2
Properties=species:S:1:pos:R:3:forces:R:3 energy=3793.9509092796734 pbc="F F F"
Co       0.00000000       0.00000000       0.00000000       0.00000000       0.00000000  -58764.36718750
Co       0.00000000       0.00000000       0.18000000       0.00000000       0.00000000   58764.36718750
2
Properties=species:S:1:pos:R:3:forces:R:3 energy=1656.1978575218611 pbc="F F F"
Co       0.00000000       0.00000000       0.00000000       0.00000000       0.00000000  -21382.32617188
Co       0.00000000       0.00000000       0.23878788       0.00000000       0.00000000   21382.32617188
2
Properties=species:S:1:pos:R:3:forces:R:3 energy=817.9120909234664 pbc="F F F"
Co       0.00000000       0.00000000       0.00000000       0.00000000       0.00000000   -9148.10742188
Co       0.00000000       0.00000000       0.29757576       0.00000000       0.00000000    9148.10742188
2
Properties=species:S:1:pos:R:3:forces:R:3 energy=441.57642808166946 pbc="F F F"
Co       0.00000000       0.00000000       0.00000000       0.00000000       0.00000000   -4334.23144531
Co       0.00000000       0.00000000       0.35636364       0.00000000       0.00000000    4334.23144531
2
Properties=species:S:1:pos:R:3:forces:R:3 energy=257.75288072472387 pbc="F F F"
Co       0.00000000       0.00000000       0.00000000       0.00000000       0.00000000   -2186.83618164
Co       0.00000000       0.00000000       0.41515152       0.00000000       0.00000000    2186.83618164
2
Properties=species:S:1:pos:R:3:forces:R:3 energy=163.4902617188405 pbc="F F F"
Co       0.00000000       0.00000000       0.00000000       0.00000000       0.00000000   -1137.13867188
Co       0.00000000       0.00000000       0.47393939       0.00000000       0.00000000    1137.13867188
2
Properties=species:S:1:pos:R:3:forces:R:3 energy=114.48193807474946 pbc="F F F"
Co       0.00000000       0.00000000       0.00000000       0.00000000       0.00000000    -586.23266602
Co       0.00000000       0.00000000       0.53272727       0.00000000       0.00000000     586.23266602
2
Properties=species:S:1:pos:R:3:forces:R:3 energy=89.76517938473599 pbc="F F F"
Co       0.00000000       0.00000000       0.00000000       0.00000000       0.00000000    -284.50057983
Co       0.00000000       0.00000000       0.59151515       0.00000000       0.00000000     284.50057983
2
Properties=species:S:1:pos:R:3:forces:R:3 energy=78.21877747688902 pbc="F F F"
Co       0.00000000       0.00000000       0.00000000       0.00000000       0.00000000    -131.00329590
Co       0.00000000       0.00000000       0.65030303       0.00000000       0.00000000     131.00329590
2
Properties=species:S:1:pos:R:3:forces:R:3 energy=73.05352489588027 pbc="F F F"
Co       0.00000000       0.00000000       0.00000000       0.00000000       0.00000000     -28.90629387
Co       0.00000000       0.00000000       0.70909091       0.00000000       0.00000000      28.90629387
2
Properties=species:S:1:pos:R:3:forces:R:3 energy=71.93732937872826 pbc="F F F"
Co       0.00000000       0.00000000       0.00000000       0.00000000       0.00000000     -42.55482864
Co       0.00000000       0.00000000       0.76787879       0.00000000       0.00000000      42.55482864
2
Properties=species:S:1:pos:R:3:forces:R:3 energy=67.16200002647118 pbc="F F F"
Co       0.00000000       0.00000000       0.00000000       0.00000000       0.00000000    -129.59364319
Co       0.00000000       0.00000000       0.82666667       0.00000000       0.00000000     129.59364319
2
Properties=species:S:1:pos:R:3:forces:R:3 energy=54.87675256586159 pbc="F F F"
Co       0.00000000       0.00000000       0.00000000       0.00000000       0.00000000    -246.08641052
Co       0.00000000       0.00000000       0.88545455       0.00000000       0.00000000     246.08641052
2
Properties=species:S:1:pos:R:3:forces:R:3 energy=40.76827449806015 pbc="F F F"
Co       0.00000000       0.00000000       0.00000000       0.00000000       0.00000000    -226.23210144
Co       0.00000000       0.00000000       0.94424242       0.00000000       0.00000000     226.23210144
2
Properties=species:S:1:pos:R:3:forces:R:3 energy=28.35208405589294 pbc="F F F"
Co       0.00000000       0.00000000       0.00000000       0.00000000       0.00000000    -192.09049988
Co       0.00000000       0.00000000       1.00303030       0.00000000       0.00000000     192.09049988
2
Properties=species:S:1:pos:R:3:forces:R:3 energy=18.490024396008142 pbc="F F F"
Co       0.00000000       0.00000000       0.00000000       0.00000000       0.00000000    -143.36065674
Co       0.00000000       0.00000000       1.06181818       0.00000000       0.00000000     143.36065674
2
Properties=species:S:1:pos:R:3:forces:R:3 energy=11.370122963659174 pbc="F F F"
Co       0.00000000       0.00000000       0.00000000       0.00000000       0.00000000    -102.82305908
Co       0.00000000       0.00000000       1.12060606       0.00000000       0.00000000     102.82305908
2
Properties=species:S:1:pos:R:3:forces:R:3 energy=5.9293953651532085 pbc="F F F"
Co       0.00000000       0.00000000       0.00000000       0.00000000       0.00000000     -83.99743652
Co       0.00000000       0.00000000       1.17939394       0.00000000       0.00000000      83.99743652
2
Properties=species:S:1:pos:R:3:forces:R:3 energy=1.626349227031064 pbc="F F F"
Co       0.00000000       0.00000000       0.00000000       0.00000000       0.00000000     -59.91602707
Co       0.00000000       0.00000000       1.23818182       0.00000000       0.00000000      59.91602707
2
Properties=species:S:1:pos:R:3:forces:R:3 energy=-1.0761981540914918 pbc="F F F"
Co       0.00000000       0.00000000       0.00000000       0.00000000       0.00000000     -34.30553055
Co       0.00000000       0.00000000       1.29696970       0.00000000       0.00000000      34.30553055
2
Properties=species:S:1:pos:R:3:forces:R:3 energy=-2.695128136420371 pbc="F F F"
Co       0.00000000       0.00000000       0.00000000       0.00000000       0.00000000     -22.28335190
Co       0.00000000       0.00000000       1.35575758       0.00000000       0.00000000      22.28335190
2
Properties=species:S:1:pos:R:3:forces:R:3 energy=-3.78020713060221 pbc="F F F"
Co       0.00000000       0.00000000       0.00000000       0.00000000       0.00000000     -14.97400856
Co       0.00000000       0.00000000       1.41454545       0.00000000       0.00000000      14.97400856
2
Properties=species:S:1:pos:R:3:forces:R:3 energy=-4.493285465515039 pbc="F F F"
Co       0.00000000       0.00000000       0.00000000       0.00000000       0.00000000      -9.63129616
Co       0.00000000       0.00000000       1.47333333       0.00000000       0.00000000       9.63129616
2
Properties=species:S:1:pos:R:3:forces:R:3 energy=-4.95266829043689 pbc="F F F"
Co       0.00000000       0.00000000       0.00000000       0.00000000       0.00000000      -6.30246830
Co       0.00000000       0.00000000       1.53212121       0.00000000       0.00000000       6.30246830
2
Properties=species:S:1:pos:R:3:forces:R:3 energy=-5.263402878837241 pbc="F F F"
Co       0.00000000       0.00000000       0.00000000       0.00000000       0.00000000      -4.45642185
Co       0.00000000       0.00000000       1.59090909       0.00000000       0.00000000       4.45642185
2
Properties=species:S:1:pos:R:3:forces:R:3 energy=-5.492307418839613 pbc="F F F"
Co       0.00000000       0.00000000       0.00000000       0.00000000       0.00000000      -3.41686034
Co       0.00000000       0.00000000       1.64969697       0.00000000       0.00000000       3.41686034
2
Properties=species:S:1:pos:R:3:forces:R:3 energy=-5.671110276156321 pbc="F F F"
Co       0.00000000       0.00000000       0.00000000       0.00000000       0.00000000      -2.69081378
Co       0.00000000       0.00000000       1.70848485       0.00000000       0.00000000       2.69081378
2
Properties=species:S:1:pos:R:3:forces:R:3 energy=-5.8099986295298995 pbc="F F F"
Co       0.00000000       0.00000000       0.00000000       0.00000000       0.00000000      -2.03880239
Co       0.00000000       0.00000000       1.76727273       0.00000000       0.00000000       2.03880239
2
Properties=species:S:1:pos:R:3:forces:R:3 energy=-5.911331877923358 pbc="F F F"
Co       0.00000000       0.00000000       0.00000000       0.00000000       0.00000000      -1.41453242
Co       0.00000000       0.00000000       1.82606061       0.00000000       0.00000000       1.41453242
2
Properties=species:S:1:pos:R:3:forces:R:3 energy=-5.9772151434139005 pbc="F F F"
Co       0.00000000       0.00000000       0.00000000       0.00000000       0.00000000      -0.83542943
Co       0.00000000       0.00000000       1.88484848       0.00000000       0.00000000       0.83542943
2
Properties=species:S:1:pos:R:3:forces:R:3 energy=-6.0105364517211 pbc="F F F"
Co       0.00000000       0.00000000       0.00000000       0.00000000       0.00000000      -0.30589709
Co       0.00000000       0.00000000       1.94363636       0.00000000       0.00000000       0.30589709
2
Properties=species:S:1:pos:R:3:forces:R:3 energy=-6.014042725533171 pbc="F F F"
Co       0.00000000       0.00000000       0.00000000       0.00000000       0.00000000       0.17916188
Co       0.00000000       0.00000000       2.00242424       0.00000000       0.00000000      -0.17916188
2
Properties=species:S:1:pos:R:3:forces:R:3 energy=-5.990466700947969 pbc="F F F"
Co       0.00000000       0.00000000       0.00000000       0.00000000       0.00000000       0.61285508
Co       0.00000000       0.00000000       2.06121212       0.00000000       0.00000000      -0.61285508
2
Properties=species:S:1:pos:R:3:forces:R:3 energy=-5.94341941336421 pbc="F F F"
Co       0.00000000       0.00000000       0.00000000       0.00000000       0.00000000       0.97307754
Co       0.00000000       0.00000000       2.12000000       0.00000000       0.00000000      -0.97307754
2
Properties=species:S:1:pos:R:3:forces:R:3 energy=-5.8781009231747605 pbc="F F F"
Co       0.00000000       0.00000000       0.00000000       0.00000000       0.00000000       1.22895265
Co       0.00000000       0.00000000       2.17878788       0.00000000       0.00000000      -1.22895265
2
Properties=species:S:1:pos:R:3:forces:R:3 energy=-5.801572522598116 pbc="F F F"
Co       0.00000000       0.00000000       0.00000000       0.00000000       0.00000000       1.35023344
Co       0.00000000       0.00000000       2.23757576       0.00000000       0.00000000      -1.35023344
2
Properties=species:S:1:pos:R:3:forces:R:3 energy=-5.7222833247152485 pbc="F F F"
Co       0.00000000       0.00000000       0.00000000       0.00000000       0.00000000       1.32278645
Co       0.00000000       0.00000000       2.29636364       0.00000000       0.00000000      -1.32278645
2
Properties=species:S:1:pos:R:3:forces:R:3 energy=-5.648608542958842 pbc="F F F"
Co       0.00000000       0.00000000       0.00000000       0.00000000       0.00000000       1.16618109
Co       0.00000000       0.00000000       2.35515152       0.00000000       0.00000000      -1.16618109
2
Properties=species:S:1:pos:R:3:forces:R:3 energy=-5.586341036456137 pbc="F F F"
Co       0.00000000       0.00000000       0.00000000       0.00000000       0.00000000       0.95237792
Co       0.00000000       0.00000000       2.41393939       0.00000000       0.00000000      -0.95237792
2
Properties=species:S:1:pos:R:3:forces:R:3 energy=-5.535115118157703 pbc="F F F"
Co       0.00000000       0.00000000       0.00000000       0.00000000       0.00000000       0.81462646
Co       0.00000000       0.00000000       2.47272727       0.00000000       0.00000000      -0.81462646
2
Properties=species:S:1:pos:R:3:forces:R:3 energy=-5.487342155691005 pbc="F F F"
Co       0.00000000       0.00000000       0.00000000       0.00000000       0.00000000       0.83447886
Co       0.00000000       0.00000000       2.53151515       0.00000000       0.00000000      -0.83447886
2
Properties=species:S:1:pos:R:3:forces:R:3 energy=-5.435058601685621 pbc="F F F"
Co       0.00000000       0.00000000       0.00000000       0.00000000       0.00000000       0.95498735
Co       0.00000000       0.00000000       2.59030303       0.00000000       0.00000000      -0.95498735
2
Properties=species:S:1:pos:R:3:forces:R:3 energy=-5.374109225947284 pbc="F F F"
Co       0.00000000       0.00000000       0.00000000       0.00000000       0.00000000       1.12480724
Co       0.00000000       0.00000000       2.64909091       0.00000000       0.00000000      -1.12480724
2
Properties=species:S:1:pos:R:3:forces:R:3 energy=-5.302321631915847 pbc="F F F"
Co       0.00000000       0.00000000       0.00000000       0.00000000       0.00000000       1.31888211
Co       0.00000000       0.00000000       2.70787879       0.00000000       0.00000000      -1.31888211
2
Properties=species:S:1:pos:R:3:forces:R:3 energy=-5.219256931448742 pbc="F F F"
Co       0.00000000       0.00000000       0.00000000       0.00000000       0.00000000       1.50182295
Co       0.00000000       0.00000000       2.76666667       0.00000000       0.00000000      -1.50182295
2
Properties=species:S:1:pos:R:3:forces:R:3 energy=-5.126697508855908 pbc="F F F"
Co       0.00000000       0.00000000       0.00000000       0.00000000       0.00000000       1.63657594
Co       0.00000000       0.00000000       2.82545455       0.00000000       0.00000000      -1.63657594
2
Properties=species:S:1:pos:R:3:forces:R:3 energy=-5.028256015953783 pbc="F F F"
Co       0.00000000       0.00000000       0.00000000       0.00000000       0.00000000       1.69956875
Co       0.00000000       0.00000000       2.88424242       0.00000000       0.00000000      -1.69956875
2
Properties=species:S:1:pos:R:3:forces:R:3 energy=-4.928370105855269 pbc="F F F"
Co       0.00000000       0.00000000       0.00000000       0.00000000       0.00000000       1.68653929
Co       0.00000000       0.00000000       2.94303030       0.00000000       0.00000000      -1.68653929
2
Properties=species:S:1:pos:R:3:forces:R:3 energy=-4.831208172972244 pbc="F F F"
Co       0.00000000       0.00000000       0.00000000       0.00000000       0.00000000       1.61009800
Co       0.00000000       0.00000000       3.00181818       0.00000000       0.00000000      -1.61009800
2
Properties=species:S:1:pos:R:3:forces:R:3 energy=-4.739868577101691 pbc="F F F"
Co       0.00000000       0.00000000       0.00000000       0.00000000       0.00000000       1.49254978
Co       0.00000000       0.00000000       3.06060606       0.00000000       0.00000000      -1.49254978
2
Properties=species:S:1:pos:R:3:forces:R:3 energy=-4.656055740635016 pbc="F F F"
Co       0.00000000       0.00000000       0.00000000       0.00000000       0.00000000       1.35776222
Co       0.00000000       0.00000000       3.11939394       0.00000000       0.00000000      -1.35776222
2
Properties=species:S:1:pos:R:3:forces:R:3 energy=-4.580183454166959 pbc="F F F"
Co       0.00000000       0.00000000       0.00000000       0.00000000       0.00000000       1.22501361
Co       0.00000000       0.00000000       3.17818182       0.00000000       0.00000000      -1.22501361
2
Properties=species:S:1:pos:R:3:forces:R:3 energy=-4.511746273957196 pbc="F F F"
Co       0.00000000       0.00000000       0.00000000       0.00000000       0.00000000       1.10616803
Co       0.00000000       0.00000000       3.23696970       0.00000000       0.00000000      -1.10616803
2
Properties=species:S:1:pos:R:3:forces:R:3 energy=-4.449759222811003 pbc="F F F"
Co       0.00000000       0.00000000       0.00000000       0.00000000       0.00000000       1.00581598
Co       0.00000000       0.00000000       3.29575758       0.00000000       0.00000000      -1.00581598
2
Properties=species:S:1:pos:R:3:forces:R:3 energy=-4.39313848352954 pbc="F F F"
Co       0.00000000       0.00000000       0.00000000       0.00000000       0.00000000       0.92311698
Co       0.00000000       0.00000000       3.35454545       0.00000000       0.00000000      -0.92311698
2
Properties=species:S:1:pos:R:3:forces:R:3 energy=-4.340953823164587 pbc="F F F"
Co       0.00000000       0.00000000       0.00000000       0.00000000       0.00000000       0.85412186
Co       0.00000000       0.00000000       3.41333333       0.00000000       0.00000000      -0.85412186
2
Properties=species:S:1:pos:R:3:forces:R:3 energy=-4.2925444200984675 pbc="F F F"
Co       0.00000000       0.00000000       0.00000000       0.00000000       0.00000000       0.79381740
Co       0.00000000       0.00000000       3.47212121       0.00000000       0.00000000      -0.79381740
2
Properties=species:S:1:pos:R:3:forces:R:3 energy=-4.2475400032701245 pbc="F F F"
Co       0.00000000       0.00000000       0.00000000       0.00000000       0.00000000       0.73764342
Co       0.00000000       0.00000000       3.53090909       0.00000000       0.00000000      -0.73764342
2
Properties=species:S:1:pos:R:3:forces:R:3 energy=-4.205798036383122 pbc="F F F"
Co       0.00000000       0.00000000       0.00000000       0.00000000       0.00000000       0.68242002
Co       0.00000000       0.00000000       3.58969697       0.00000000       0.00000000      -0.68242002
2
Properties=species:S:1:pos:R:3:forces:R:3 energy=-4.167314530350126 pbc="F F F"
Co       0.00000000       0.00000000       0.00000000       0.00000000       0.00000000       0.62672263
Co       0.00000000       0.00000000       3.64848485       0.00000000       0.00000000      -0.62672263
2
Properties=species:S:1:pos:R:3:forces:R:3 energy=-4.132118343834892 pbc="F F F"
Co       0.00000000       0.00000000       0.00000000       0.00000000       0.00000000       0.57069254
Co       0.00000000       0.00000000       3.70727273       0.00000000       0.00000000      -0.57069254
2
Properties=species:S:1:pos:R:3:forces:R:3 energy=-4.100198678661642 pbc="F F F"
Co       0.00000000       0.00000000       0.00000000       0.00000000       0.00000000       0.51547229
Co       0.00000000       0.00000000       3.76606061       0.00000000       0.00000000      -0.51547229
2
Properties=species:S:1:pos:R:3:forces:R:3 energy=-4.071467536392451 pbc="F F F"
Co       0.00000000       0.00000000       0.00000000       0.00000000       0.00000000       0.46245885
Co       0.00000000       0.00000000       3.82484848       0.00000000       0.00000000      -0.46245885
2
Properties=species:S:1:pos:R:3:forces:R:3 energy=-4.045760965105037 pbc="F F F"
Co       0.00000000       0.00000000       0.00000000       0.00000000       0.00000000       0.41266435
Co       0.00000000       0.00000000       3.88363636       0.00000000       0.00000000      -0.41266435
2
Properties=species:S:1:pos:R:3:forces:R:3 energy=-4.022878575856355 pbc="F F F"
Co       0.00000000       0.00000000       0.00000000       0.00000000       0.00000000       0.36639318
Co       0.00000000       0.00000000       3.94242424       0.00000000       0.00000000      -0.36639318
2
Properties=species:S:1:pos:R:3:forces:R:3 energy=-4.002621280174274 pbc="F F F"
Co       0.00000000       0.00000000       0.00000000       0.00000000       0.00000000       0.32324147
Co       0.00000000       0.00000000       4.00121212       0.00000000       0.00000000      -0.32324147
2
Properties=species:S:1:pos:R:3:forces:R:3 energy=-3.984828375649971 pbc="F F F"
Co       0.00000000       0.00000000       0.00000000       0.00000000       0.00000000       0.28237924
Co       0.00000000       0.00000000       4.06000000       0.00000000       0.00000000      -0.28237924
2
Properties=species:S:1:pos:R:3:forces:R:3 energy=-3.9693925536371153 pbc="F F F"
Co       0.00000000       0.00000000       0.00000000       0.00000000       0.00000000       0.24294470
Co       0.00000000       0.00000000       4.11878788       0.00000000       0.00000000      -0.24294470
2
Properties=species:S:1:pos:R:3:forces:R:3 energy=-3.956247009641415 pbc="F F F"
Co       0.00000000       0.00000000       0.00000000       0.00000000       0.00000000       0.20440221
Co       0.00000000       0.00000000       4.17757576       0.00000000       0.00000000      -0.20440221
2
Properties=species:S:1:pos:R:3:forces:R:3 energy=-3.945342014943415 pbc="F F F"
Co       0.00000000       0.00000000       0.00000000       0.00000000       0.00000000       0.16677466
Co       0.00000000       0.00000000       4.23636364       0.00000000       0.00000000      -0.16677466
2
Properties=species:S:1:pos:R:3:forces:R:3 energy=-3.936608404541773 pbc="F F F"
Co       0.00000000       0.00000000       0.00000000       0.00000000       0.00000000       0.13067901
Co       0.00000000       0.00000000       4.29515152       0.00000000       0.00000000      -0.13067901
2
Properties=species:S:1:pos:R:3:forces:R:3 energy=-3.929926589073617 pbc="F F F"
Co       0.00000000       0.00000000       0.00000000       0.00000000       0.00000000       0.09718505
Co       0.00000000       0.00000000       4.35393939       0.00000000       0.00000000      -0.09718505
2
Properties=species:S:1:pos:R:3:forces:R:3 energy=-3.925106586338538 pbc="F F F"
Co       0.00000000       0.00000000       0.00000000       0.00000000       0.00000000       0.06753545
Co       0.00000000       0.00000000       4.41272727       0.00000000       0.00000000      -0.06753545
2
Properties=species:S:1:pos:R:3:forces:R:3 energy=-3.9218888220855246 pbc="F F F"
Co       0.00000000       0.00000000       0.00000000       0.00000000       0.00000000       0.04282921
Co       0.00000000       0.00000000       4.47151515       0.00000000       0.00000000      -0.04282921
2
Properties=species:S:1:pos:R:3:forces:R:3 energy=-3.919960493027819 pbc="F F F"
Co       0.00000000       0.00000000       0.00000000       0.00000000       0.00000000       0.02373060
Co       0.00000000       0.00000000       4.53030303       0.00000000       0.00000000      -0.02373060
2
Properties=species:S:1:pos:R:3:forces:R:3 energy=-3.918987006417136 pbc="F F F"
Co       0.00000000       0.00000000       0.00000000       0.00000000       0.00000000       0.01030847
Co       0.00000000       0.00000000       4.58909091       0.00000000       0.00000000      -0.01030847
2
Properties=species:S:1:pos:R:3:forces:R:3 energy=-3.9186469642183495 pbc="F F F"
Co       0.00000000       0.00000000       0.00000000       0.00000000       0.00000000       0.00204976
Co       0.00000000       0.00000000       4.64787879       0.00000000       0.00000000      -0.00204976
2
Properties=species:S:1:pos:R:3:forces:R:3 energy=-3.9186625096252206 pbc="F F F"
Co       0.00000000       0.00000000       0.00000000       0.00000000       0.00000000      -0.00195329
Co       0.00000000       0.00000000       4.70666667       0.00000000       0.00000000       0.00195329
2
Properties=species:S:1:pos:R:3:forces:R:3 energy=-3.918813419099141 pbc="F F F"
Co       0.00000000       0.00000000       0.00000000       0.00000000       0.00000000      -0.00272241
Co       0.00000000       0.00000000       4.76545455       0.00000000       0.00000000       0.00272241
2
Properties=species:S:1:pos:R:3:forces:R:3 energy=-3.918936625531976 pbc="F F F"
Co       0.00000000       0.00000000       0.00000000       0.00000000       0.00000000      -0.00113004
Co       0.00000000       0.00000000       4.82424242       0.00000000       0.00000000       0.00113004
2
Properties=species:S:1:pos:R:3:forces:R:3 energy=-3.918911426790695 pbc="F F F"
Co       0.00000000       0.00000000       0.00000000       0.00000000       0.00000000       0.00224679
Co       0.00000000       0.00000000       4.88303030       0.00000000       0.00000000      -0.00224679
2
Properties=species:S:1:pos:R:3:forces:R:3 energy=-3.9186432669183446 pbc="F F F"
Co       0.00000000       0.00000000       0.00000000       0.00000000       0.00000000       0.00711907
Co       0.00000000       0.00000000       4.94181818       0.00000000       0.00000000      -0.00711907
2
Properties=species:S:1:pos:R:3:forces:R:3 energy=-3.918047819110051 pbc="F F F"
Co       0.00000000       0.00000000       0.00000000       0.00000000       0.00000000       0.01335429
Co       0.00000000       0.00000000       5.00060606       0.00000000       0.00000000      -0.01335429
2
Properties=species:S:1:pos:R:3:forces:R:3 energy=-3.9170491987416267 pbc="F F F"
Co       0.00000000       0.00000000       0.00000000       0.00000000       0.00000000       0.02080379
Co       0.00000000       0.00000000       5.05939394       0.00000000       0.00000000      -0.02080379
2
Properties=species:S:1:pos:R:3:forces:R:3 energy=-3.9155842137223074 pbc="F F F"
Co       0.00000000       0.00000000       0.00000000       0.00000000       0.00000000       0.02915208
Co       0.00000000       0.00000000       5.11818182       0.00000000       0.00000000      -0.02915208
2
Properties=species:S:1:pos:R:3:forces:R:3 energy=-3.9136146537229934 pbc="F F F"
Co       0.00000000       0.00000000       0.00000000       0.00000000       0.00000000       0.03785454
Co       0.00000000       0.00000000       5.17696970       0.00000000       0.00000000      -0.03785454
2
Properties=species:S:1:pos:R:3:forces:R:3 energy=-3.9111412039850375 pbc="F F F"
Co       0.00000000       0.00000000       0.00000000       0.00000000       0.00000000       0.04615986
Co       0.00000000       0.00000000       5.23575758       0.00000000       0.00000000      -0.04615986
2
Properties=species:S:1:pos:R:3:forces:R:3 energy=-3.90821178997051 pbc="F F F"
Co       0.00000000       0.00000000       0.00000000       0.00000000       0.00000000       0.05322255
Co       0.00000000       0.00000000       5.29454545       0.00000000       0.00000000      -0.05322255
2
Properties=species:S:1:pos:R:3:forces:R:3 energy=-3.9049231551774075 pbc="F F F"
Co       0.00000000       0.00000000       0.00000000       0.00000000       0.00000000       0.05825645
Co       0.00000000       0.00000000       5.35333333       0.00000000       0.00000000      -0.05825645
2
Properties=species:S:1:pos:R:3:forces:R:3 energy=-3.9014134844188963 pbc="F F F"
Co       0.00000000       0.00000000       0.00000000       0.00000000       0.00000000       0.06068667
Co       0.00000000       0.00000000       5.41212121       0.00000000       0.00000000      -0.06068667
2
Properties=species:S:1:pos:R:3:forces:R:3 energy=-3.8978440915261463 pbc="F F F"
Co       0.00000000       0.00000000       0.00000000       0.00000000       0.00000000       0.06026164
Co       0.00000000       0.00000000       5.47090909       0.00000000       0.00000000      -0.06026164
2
Properties=species:S:1:pos:R:3:forces:R:3 energy=-3.8943821019071625 pbc="F F F"
Co       0.00000000       0.00000000       0.00000000       0.00000000       0.00000000       0.05708101
Co       0.00000000       0.00000000       5.52969697       0.00000000       0.00000000      -0.05708101
2
Properties=species:S:1:pos:R:3:forces:R:3 energy=-3.8911785576352864 pbc="F F F"
Co       0.00000000       0.00000000       0.00000000       0.00000000       0.00000000       0.05157012
Co       0.00000000       0.00000000       5.58848485       0.00000000       0.00000000      -0.05157012
2
Properties=species:S:1:pos:R:3:forces:R:3 energy=-3.8883526976620866 pbc="F F F"
Co       0.00000000       0.00000000       0.00000000       0.00000000       0.00000000       0.04439735
Co       0.00000000       0.00000000       5.64727273       0.00000000       0.00000000      -0.04439735
2
Properties=species:S:1:pos:R:3:forces:R:3 energy=-3.8859762728762903 pbc="F F F"
Co       0.00000000       0.00000000       0.00000000       0.00000000       0.00000000       0.03635766
Co       0.00000000       0.00000000       5.70606061       0.00000000       0.00000000      -0.03635766
2
Properties=species:S:1:pos:R:3:forces:R:3 energy=-3.8840757314687737 pbc="F F F"
Co       0.00000000       0.00000000       0.00000000       0.00000000       0.00000000       0.02827658
Co       0.00000000       0.00000000       5.76484848       0.00000000       0.00000000      -0.02827658
2
Properties=species:S:1:pos:R:3:forces:R:3 energy=-3.8826353247097347 pbc="F F F"
Co       0.00000000       0.00000000       0.00000000       0.00000000       0.00000000       0.02092197
Co       0.00000000       0.00000000       5.82363636       0.00000000       0.00000000      -0.02092197
2
Properties=species:S:1:pos:R:3:forces:R:3 energy=-3.8815911654911464 pbc="F F F"
Co       0.00000000       0.00000000       0.00000000       0.00000000       0.00000000       0.01493985
Co       0.00000000       0.00000000       5.88242424       0.00000000       0.00000000      -0.01493985
2
Properties=species:S:1:pos:R:3:forces:R:3 energy=-3.880842472805799 pbc="F F F"
Co       0.00000000       0.00000000       0.00000000       0.00000000       0.00000000       0.01084713
Co       0.00000000       0.00000000       5.94121212       0.00000000       0.00000000      -0.01084713
2
Properties=species:S:1:pos:R:3:forces:R:3 energy=-3.880270388600069 pbc="F F F"
Co       0.00000000       0.00000000       0.00000000       0.00000000       0.00000000       0.00903741
Co       0.00000000       0.00000000       6.00000000       0.00000000       0.00000000      -0.00903741
