2
Properties=species:S:1:pos:R:3:forces:R:3 energy=825.455451512513 pbc="F F F"
F        0.00000000       0.00000000       0.00000000       0.00000000       0.00000000   -9855.17968750
F        0.00000000       0.00000000       0.18000000       0.00000000       0.00000000    9855.17968750
2
Properties=species:S:1:pos:R:3:forces:R:3 energy=454.69620468673713 pbc="F F F"
F        0.00000000       0.00000000       0.00000000       0.00000000       0.00000000   -3856.08642578
F        0.00000000       0.00000000       0.23878788       0.00000000       0.00000000    3856.08642578
2
Properties=species:S:1:pos:R:3:forces:R:3 energy=297.63343003011795 pbc="F F F"
F        0.00000000       0.00000000       0.00000000       0.00000000       0.00000000   -1860.95373535
F        0.00000000       0.00000000       0.29757576       0.00000000       0.00000000    1860.95373535
2
Properties=species:S:1:pos:R:3:forces:R:3 energy=210.04991868114269 pbc="F F F"
F        0.00000000       0.00000000       0.00000000       0.00000000       0.00000000   -1219.26574707
F        0.00000000       0.00000000       0.35636364       0.00000000       0.00000000    1219.26574707
2
Properties=species:S:1:pos:R:3:forces:R:3 energy=151.8118815800832 pbc="F F F"
F        0.00000000       0.00000000       0.00000000       0.00000000       0.00000000    -932.87927246
F        0.00000000       0.00000000       0.41515152       0.00000000       0.00000000     932.87927246
2
Properties=species:S:1:pos:R:3:forces:R:3 energy=101.40273242718838 pbc="F F F"
F        0.00000000       0.00000000       0.00000000       0.00000000       0.00000000    -763.66784668
F        0.00000000       0.00000000       0.47393939       0.00000000       0.00000000     763.66784668
2
Properties=species:S:1:pos:R:3:forces:R:3 energy=64.3231349849301 pbc="F F F"
F        0.00000000       0.00000000       0.00000000       0.00000000       0.00000000    -489.09619141
F        0.00000000       0.00000000       0.53272727       0.00000000       0.00000000     489.09619141
2
Properties=species:S:1:pos:R:3:forces:R:3 energy=41.57389797863219 pbc="F F F"
F        0.00000000       0.00000000       0.00000000       0.00000000       0.00000000    -320.38549805
F        0.00000000       0.00000000       0.59151515       0.00000000       0.00000000     320.38549805
2
Properties=species:S:1:pos:R:3:forces:R:3 energy=25.826339474373167 pbc="F F F"
F        0.00000000       0.00000000       0.00000000       0.00000000       0.00000000    -216.67811584
F        0.00000000       0.00000000       0.65030303       0.00000000       0.00000000     216.67811584
2
Properties=species:S:1:pos:R:3:forces:R:3 energy=14.933681381302698 pbc="F F F"
F        0.00000000       0.00000000       0.00000000       0.00000000       0.00000000    -161.49864197
F        0.00000000       0.00000000       0.70909091       0.00000000       0.00000000     161.49864197
2
Properties=species:S:1:pos:R:3:forces:R:3 energy=7.0053030127339815 pbc="F F F"
F        0.00000000       0.00000000       0.00000000       0.00000000       0.00000000    -101.69822693
F        0.00000000       0.00000000       0.76787879       0.00000000       0.00000000     101.69822693
2
Properties=species:S:1:pos:R:3:forces:R:3 energy=2.81171888460568 pbc="F F F"
F        0.00000000       0.00000000       0.00000000       0.00000000       0.00000000     -47.74091721
F        0.00000000       0.00000000       0.82666667       0.00000000       0.00000000      47.74091721
2
Properties=species:S:1:pos:R:3:forces:R:3 energy=0.9684193491085018 pbc="F F F"
F        0.00000000       0.00000000       0.00000000       0.00000000       0.00000000     -15.98194408
F        0.00000000       0.00000000       0.88545455       0.00000000       0.00000000      15.98194408
2
Properties=species:S:1:pos:R:3:forces:R:3 energy=0.693745085495661 pbc="F F F"
F        0.00000000       0.00000000       0.00000000       0.00000000       0.00000000       2.60266185
F        0.00000000       0.00000000       0.94424242       0.00000000       0.00000000      -2.60266185
2
Properties=species:S:1:pos:R:3:forces:R:3 energy=0.796246979504052 pbc="F F F"
F        0.00000000       0.00000000       0.00000000       0.00000000       0.00000000      -1.82697833
F        0.00000000       0.00000000       1.00303030       0.00000000       0.00000000       1.82697833
2
Properties=species:S:1:pos:R:3:forces:R:3 energy=0.37772946697079396 pbc="F F F"
F        0.00000000       0.00000000       0.00000000       0.00000000       0.00000000     -11.59444714
F        0.00000000       0.00000000       1.06181818       0.00000000       0.00000000      11.59444714
2
Properties=species:S:1:pos:R:3:forces:R:3 energy=-0.35914224135395667 pbc="F F F"
F        0.00000000       0.00000000       0.00000000       0.00000000       0.00000000     -11.65981865
F        0.00000000       0.00000000       1.12060606       0.00000000       0.00000000      11.65981865
2
Properties=species:S:1:pos:R:3:forces:R:3 energy=-0.9043650159676377 pbc="F F F"
F        0.00000000       0.00000000       0.00000000       0.00000000       0.00000000      -7.12790823
F        0.00000000       0.00000000       1.17939394       0.00000000       0.00000000       7.12790823
2
Properties=species:S:1:pos:R:3:forces:R:3 energy=-1.252880471657474 pbc="F F F"
F        0.00000000       0.00000000       0.00000000       0.00000000       0.00000000      -5.05659866
F        0.00000000       0.00000000       1.23818182       0.00000000       0.00000000       5.05659866
2
Properties=species:S:1:pos:R:3:forces:R:3 energy=-1.5092240197543663 pbc="F F F"
F        0.00000000       0.00000000       0.00000000       0.00000000       0.00000000      -3.61056781
F        0.00000000       0.00000000       1.29696970       0.00000000       0.00000000       3.61056781
2
Properties=species:S:1:pos:R:3:forces:R:3 energy=-1.6699371711493407 pbc="F F F"
F        0.00000000       0.00000000       0.00000000       0.00000000       0.00000000      -1.82634079
F        0.00000000       0.00000000       1.35575758       0.00000000       0.00000000       1.82634079
2
Properties=species:S:1:pos:R:3:forces:R:3 energy=-1.725628055779452 pbc="F F F"
F        0.00000000       0.00000000       0.00000000       0.00000000       0.00000000      -0.11849429
F        0.00000000       0.00000000       1.41454545       0.00000000       0.00000000       0.11849429
2
Properties=species:S:1:pos:R:3:forces:R:3 energy=-1.6922432370840403 pbc="F F F"
F        0.00000000       0.00000000       0.00000000       0.00000000       0.00000000       1.16868091
F        0.00000000       0.00000000       1.47333333       0.00000000       0.00000000      -1.16868091
2
Properties=species:S:1:pos:R:3:forces:R:3 energy=-1.5993795571672227 pbc="F F F"
F        0.00000000       0.00000000       0.00000000       0.00000000       0.00000000       1.88836527
F        0.00000000       0.00000000       1.53212121       0.00000000       0.00000000      -1.88836527
2
Properties=species:S:1:pos:R:3:forces:R:3 energy=-1.4824238903558362 pbc="F F F"
F        0.00000000       0.00000000       0.00000000       0.00000000       0.00000000       1.99130785
F        0.00000000       0.00000000       1.59090909       0.00000000       0.00000000      -1.99130785
2
Properties=species:S:1:pos:R:3:forces:R:3 energy=-1.375094942298983 pbc="F F F"
F        0.00000000       0.00000000       0.00000000       0.00000000       0.00000000       1.59879196
F        0.00000000       0.00000000       1.64969697       0.00000000       0.00000000      -1.59879196
2
Properties=species:S:1:pos:R:3:forces:R:3 energy=-1.2983466545384963 pbc="F F F"
F        0.00000000       0.00000000       0.00000000       0.00000000       0.00000000       1.00677717
F        0.00000000       0.00000000       1.70848485       0.00000000       0.00000000      -1.00677717
2
Properties=species:S:1:pos:R:3:forces:R:3 energy=-1.2548397664335917 pbc="F F F"
F        0.00000000       0.00000000       0.00000000       0.00000000       0.00000000       0.50426245
F        0.00000000       0.00000000       1.76727273       0.00000000       0.00000000      -0.50426245
2
Properties=species:S:1:pos:R:3:forces:R:3 energy=-1.2347948848871833 pbc="F F F"
F        0.00000000       0.00000000       0.00000000       0.00000000       0.00000000       0.21423176
F        0.00000000       0.00000000       1.82606061       0.00000000       0.00000000      -0.21423176
2
Properties=species:S:1:pos:R:3:forces:R:3 energy=-1.2259160413550432 pbc="F F F"
F        0.00000000       0.00000000       0.00000000       0.00000000       0.00000000       0.11304838
F        0.00000000       0.00000000       1.88484848       0.00000000       0.00000000      -0.11304838
2
Properties=species:S:1:pos:R:3:forces:R:3 energy=-1.2193883958741312 pbc="F F F"
F        0.00000000       0.00000000       0.00000000       0.00000000       0.00000000       0.12027340
F        0.00000000       0.00000000       1.94363636       0.00000000       0.00000000      -0.12027340
2
Properties=species:S:1:pos:R:3:forces:R:3 energy=-1.2110839608229211 pbc="F F F"
F        0.00000000       0.00000000       0.00000000       0.00000000       0.00000000       0.16387832
F        0.00000000       0.00000000       2.00242424       0.00000000       0.00000000      -0.16387832
2
Properties=species:S:1:pos:R:3:forces:R:3 energy=-1.2002354739133856 pbc="F F F"
F        0.00000000       0.00000000       0.00000000       0.00000000       0.00000000       0.20247644
F        0.00000000       0.00000000       2.06121212       0.00000000       0.00000000      -0.20247644
2
Properties=species:S:1:pos:R:3:forces:R:3 energy=-1.187682774522523 pbc="F F F"
F        0.00000000       0.00000000       0.00000000       0.00000000       0.00000000       0.22087112
F        0.00000000       0.00000000       2.12000000       0.00000000       0.00000000      -0.22087112
2
Properties=species:S:1:pos:R:3:forces:R:3 energy=-1.1746774810913219 pbc="F F F"
F        0.00000000       0.00000000       0.00000000       0.00000000       0.00000000       0.21844997
F        0.00000000       0.00000000       2.17878788       0.00000000       0.00000000      -0.21844997
2
Properties=species:S:1:pos:R:3:forces:R:3 energy=-1.162312224290233 pbc="F F F"
F        0.00000000       0.00000000       0.00000000       0.00000000       0.00000000       0.20004739
F        0.00000000       0.00000000       2.23757576       0.00000000       0.00000000      -0.20004739
2
Properties=species:S:1:pos:R:3:forces:R:3 energy=-1.1513618094404454 pbc="F F F"
F        0.00000000       0.00000000       0.00000000       0.00000000       0.00000000       0.17113349
F        0.00000000       0.00000000       2.29636364       0.00000000       0.00000000      -0.17113349
2
Properties=species:S:1:pos:R:3:forces:R:3 energy=-1.1423098512266259 pbc="F F F"
F        0.00000000       0.00000000       0.00000000       0.00000000       0.00000000       0.13611956
F        0.00000000       0.00000000       2.35515152       0.00000000       0.00000000      -0.13611956
2
Properties=species:S:1:pos:R:3:forces:R:3 energy=-1.1354140076888328 pbc="F F F"
F        0.00000000       0.00000000       0.00000000       0.00000000       0.00000000       0.09820067
F        0.00000000       0.00000000       2.41393939       0.00000000       0.00000000      -0.09820067
2
Properties=species:S:1:pos:R:3:forces:R:3 energy=-1.1307744942617828 pbc="F F F"
F        0.00000000       0.00000000       0.00000000       0.00000000       0.00000000       0.05970499
F        0.00000000       0.00000000       2.47272727       0.00000000       0.00000000      -0.05970499
2
Properties=species:S:1:pos:R:3:forces:R:3 energy=-1.1283698821997152 pbc="F F F"
F        0.00000000       0.00000000       0.00000000       0.00000000       0.00000000       0.02243479
F        0.00000000       0.00000000       2.53151515       0.00000000       0.00000000      -0.02243479
2
Properties=species:S:1:pos:R:3:forces:R:3 energy=-1.128083516689292 pbc="F F F"
F        0.00000000       0.00000000       0.00000000       0.00000000       0.00000000      -0.01213231
F        0.00000000       0.00000000       2.59030303       0.00000000       0.00000000       0.01213231
2
Properties=species:S:1:pos:R:3:forces:R:3 energy=-1.1297196053519534 pbc="F F F"
F        0.00000000       0.00000000       0.00000000       0.00000000       0.00000000      -0.04277615
F        0.00000000       0.00000000       2.64909091       0.00000000       0.00000000       0.04277615
2
Properties=species:S:1:pos:R:3:forces:R:3 energy=-1.1330168453248388 pbc="F F F"
F        0.00000000       0.00000000       0.00000000       0.00000000       0.00000000      -0.06852610
F        0.00000000       0.00000000       2.70787879       0.00000000       0.00000000       0.06852610
2
Properties=species:S:1:pos:R:3:forces:R:3 energy=-1.1376663149496389 pbc="F F F"
F        0.00000000       0.00000000       0.00000000       0.00000000       0.00000000      -0.08867919
F        0.00000000       0.00000000       2.76666667       0.00000000       0.00000000       0.08867919
2
Properties=species:S:1:pos:R:3:forces:R:3 energy=-1.143325184424807 pbc="F F F"
F        0.00000000       0.00000000       0.00000000       0.00000000       0.00000000      -0.10281089
F        0.00000000       0.00000000       2.82545455       0.00000000       0.00000000       0.10281089
2
Properties=species:S:1:pos:R:3:forces:R:3 energy=-1.1496334043141394 pbc="F F F"
F        0.00000000       0.00000000       0.00000000       0.00000000       0.00000000      -0.11077705
F        0.00000000       0.00000000       2.88424242       0.00000000       0.00000000       0.11077705
2
Properties=species:S:1:pos:R:3:forces:R:3 energy=-1.1562316827868102 pbc="F F F"
F        0.00000000       0.00000000       0.00000000       0.00000000       0.00000000      -0.11271499
F        0.00000000       0.00000000       2.94303030       0.00000000       0.00000000       0.11271499
2
Properties=species:S:1:pos:R:3:forces:R:3 energy=-1.1627755329106266 pbc="F F F"
F        0.00000000       0.00000000       0.00000000       0.00000000       0.00000000      -0.10902912
F        0.00000000       0.00000000       3.00181818       0.00000000       0.00000000       0.10902912
2
Properties=species:S:1:pos:R:3:forces:R:3 energy=-1.1689527587997057 pbc="F F F"
F        0.00000000       0.00000000       0.00000000       0.00000000       0.00000000      -0.10035896
F        0.00000000       0.00000000       3.06060606       0.00000000       0.00000000       0.10035896
2
Properties=species:S:1:pos:R:3:forces:R:3 energy=-1.1744937856409774 pbc="F F F"
F        0.00000000       0.00000000       0.00000000       0.00000000       0.00000000      -0.08752528
F        0.00000000       0.00000000       3.11939394       0.00000000       0.00000000       0.08752528
2
Properties=species:S:1:pos:R:3:forces:R:3 energy=-1.179180440791878 pbc="F F F"
F        0.00000000       0.00000000       0.00000000       0.00000000       0.00000000      -0.07145470
F        0.00000000       0.00000000       3.17818182       0.00000000       0.00000000       0.07145470
2
Properties=species:S:1:pos:R:3:forces:R:3 energy=-1.1828504366119998 pbc="F F F"
F        0.00000000       0.00000000       0.00000000       0.00000000       0.00000000      -0.05309759
F        0.00000000       0.00000000       3.23696970       0.00000000       0.00000000       0.05309759
2
Properties=species:S:1:pos:R:3:forces:R:3 energy=-1.1853960102576506 pbc="F F F"
F        0.00000000       0.00000000       0.00000000       0.00000000       0.00000000      -0.03334928
F        0.00000000       0.00000000       3.29575758       0.00000000       0.00000000       0.03334928
2
Properties=species:S:1:pos:R:3:forces:R:3 energy=-1.1867596072008313 pbc="F F F"
F        0.00000000       0.00000000       0.00000000       0.00000000       0.00000000      -0.01299474
F        0.00000000       0.00000000       3.35454545       0.00000000       0.00000000       0.01299474
2
Properties=species:S:1:pos:R:3:forces:R:3 energy=-1.1869250223219092 pbc="F F F"
F        0.00000000       0.00000000       0.00000000       0.00000000       0.00000000       0.00731209
F        0.00000000       0.00000000       3.41333333       0.00000000       0.00000000      -0.00731209
2
Properties=species:S:1:pos:R:3:forces:R:3 energy=-1.1859111834055518 pbc="F F F"
F        0.00000000       0.00000000       0.00000000       0.00000000       0.00000000       0.02703776
F        0.00000000       0.00000000       3.47212121       0.00000000       0.00000000      -0.02703776
2
Properties=species:S:1:pos:R:3:forces:R:3 energy=-1.1837662982041934 pbc="F F F"
F        0.00000000       0.00000000       0.00000000       0.00000000       0.00000000       0.04573171
F        0.00000000       0.00000000       3.53090909       0.00000000       0.00000000      -0.04573171
2
Properties=species:S:1:pos:R:3:forces:R:3 energy=-1.1805624892280504 pbc="F F F"
F        0.00000000       0.00000000       0.00000000       0.00000000       0.00000000       0.06298453
F        0.00000000       0.00000000       3.58969697       0.00000000       0.00000000      -0.06298453
2
Properties=species:S:1:pos:R:3:forces:R:3 energy=-1.1763968676186716 pbc="F F F"
F        0.00000000       0.00000000       0.00000000       0.00000000       0.00000000       0.07839832
F        0.00000000       0.00000000       3.64848485       0.00000000       0.00000000      -0.07839832
2
Properties=species:S:1:pos:R:3:forces:R:3 energy=-1.1713884531103207 pbc="F F F"
F        0.00000000       0.00000000       0.00000000       0.00000000       0.00000000       0.09158852
F        0.00000000       0.00000000       3.70727273       0.00000000       0.00000000      -0.09158852
2
Properties=species:S:1:pos:R:3:forces:R:3 energy=-1.1656785338357227 pbc="F F F"
F        0.00000000       0.00000000       0.00000000       0.00000000       0.00000000       0.10221304
F        0.00000000       0.00000000       3.76606061       0.00000000       0.00000000      -0.10221304
2
Properties=species:S:1:pos:R:3:forces:R:3 energy=-1.159425808641513 pbc="F F F"
F        0.00000000       0.00000000       0.00000000       0.00000000       0.00000000       0.11003077
F        0.00000000       0.00000000       3.82484848       0.00000000       0.00000000      -0.11003077
2
Properties=species:S:1:pos:R:3:forces:R:3 energy=-1.152798170259776 pbc="F F F"
F        0.00000000       0.00000000       0.00000000       0.00000000       0.00000000       0.11497179
F        0.00000000       0.00000000       3.88363636       0.00000000       0.00000000      -0.11497179
2
Properties=species:S:1:pos:R:3:forces:R:3 energy=-1.145961405372137 pbc="F F F"
F        0.00000000       0.00000000       0.00000000       0.00000000       0.00000000       0.11719038
F        0.00000000       0.00000000       3.94242424       0.00000000       0.00000000      -0.11719038
2
Properties=species:S:1:pos:R:3:forces:R:3 energy=-1.139065141079855 pbc="F F F"
F        0.00000000       0.00000000       0.00000000       0.00000000       0.00000000       0.11708582
F        0.00000000       0.00000000       4.00121212       0.00000000       0.00000000      -0.11708582
2
Properties=species:S:1:pos:R:3:forces:R:3 energy=-1.1322289149389624 pbc="F F F"
F        0.00000000       0.00000000       0.00000000       0.00000000       0.00000000       0.11525254
F        0.00000000       0.00000000       4.06000000       0.00000000       0.00000000      -0.11525254
2
Properties=species:S:1:pos:R:3:forces:R:3 energy=-1.1255349154689138 pbc="F F F"
F        0.00000000       0.00000000       0.00000000       0.00000000       0.00000000       0.11236008
F        0.00000000       0.00000000       4.11878788       0.00000000       0.00000000      -0.11236008
2
Properties=species:S:1:pos:R:3:forces:R:3 energy=-1.1190276379879598 pbc="F F F"
F        0.00000000       0.00000000       0.00000000       0.00000000       0.00000000       0.10897334
F        0.00000000       0.00000000       4.17757576       0.00000000       0.00000000      -0.10897334
2
Properties=species:S:1:pos:R:3:forces:R:3 energy=-1.1127260541571102 pbc="F F F"
F        0.00000000       0.00000000       0.00000000       0.00000000       0.00000000       0.10538170
F        0.00000000       0.00000000       4.23636364       0.00000000       0.00000000      -0.10538170
2
Properties=species:S:1:pos:R:3:forces:R:3 energy=-1.1066422145689698 pbc="F F F"
F        0.00000000       0.00000000       0.00000000       0.00000000       0.00000000       0.10151507
F        0.00000000       0.00000000       4.29515152       0.00000000       0.00000000      -0.10151507
2
Properties=species:S:1:pos:R:3:forces:R:3 energy=-1.1008027162203073 pbc="F F F"
F        0.00000000       0.00000000       0.00000000       0.00000000       0.00000000       0.09701154
F        0.00000000       0.00000000       4.35393939       0.00000000       0.00000000      -0.09701154
2
Properties=species:S:1:pos:R:3:forces:R:3 energy=-1.0952575252369126 pbc="F F F"
F        0.00000000       0.00000000       0.00000000       0.00000000       0.00000000       0.09143449
F        0.00000000       0.00000000       4.41272727       0.00000000       0.00000000      -0.09143449
2
Properties=species:S:1:pos:R:3:forces:R:3 energy=-1.0900780769000504 pbc="F F F"
F        0.00000000       0.00000000       0.00000000       0.00000000       0.00000000       0.08455189
F        0.00000000       0.00000000       4.47151515       0.00000000       0.00000000      -0.08455189
2
Properties=species:S:1:pos:R:3:forces:R:3 energy=-1.0853384411231801 pbc="F F F"
F        0.00000000       0.00000000       0.00000000       0.00000000       0.00000000       0.07654396
F        0.00000000       0.00000000       4.53030303       0.00000000       0.00000000      -0.07654396
2
Properties=species:S:1:pos:R:3:forces:R:3 energy=-1.0810887406612804 pbc="F F F"
F        0.00000000       0.00000000       0.00000000       0.00000000       0.00000000       0.06801647
F        0.00000000       0.00000000       4.58909091       0.00000000       0.00000000      -0.06801647
2
Properties=species:S:1:pos:R:3:forces:R:3 energy=-1.0773348887984422 pbc="F F F"
F        0.00000000       0.00000000       0.00000000       0.00000000       0.00000000       0.05982352
F        0.00000000       0.00000000       4.64787879       0.00000000       0.00000000      -0.05982352
2
Properties=species:S:1:pos:R:3:forces:R:3 energy=-1.0740320309065523 pbc="F F F"
F        0.00000000       0.00000000       0.00000000       0.00000000       0.00000000       0.05278308
F        0.00000000       0.00000000       4.70666667       0.00000000       0.00000000      -0.05278308
2
Properties=species:S:1:pos:R:3:forces:R:3 energy=-1.0710955136303228 pbc="F F F"
F        0.00000000       0.00000000       0.00000000       0.00000000       0.00000000       0.04742689
F        0.00000000       0.00000000       4.76545455       0.00000000       0.00000000      -0.04742689
2
Properties=species:S:1:pos:R:3:forces:R:3 energy=-1.068419957680659 pbc="F F F"
F        0.00000000       0.00000000       0.00000000       0.00000000       0.00000000       0.04388141
F        0.00000000       0.00000000       4.82424242       0.00000000       0.00000000      -0.04388141
2
Properties=species:S:1:pos:R:3:forces:R:3 energy=-1.065905364570076 pbc="F F F"
F        0.00000000       0.00000000       0.00000000       0.00000000       0.00000000       0.04190843
F        0.00000000       0.00000000       4.88303030       0.00000000       0.00000000      -0.04190843
2
Properties=species:S:1:pos:R:3:forces:R:3 energy=-1.063470943652856 pbc="F F F"
F        0.00000000       0.00000000       0.00000000       0.00000000       0.00000000       0.04104447
F        0.00000000       0.00000000       4.94181818       0.00000000       0.00000000      -0.04104447
2
Properties=species:S:1:pos:R:3:forces:R:3 energy=-1.061067867123053 pbc="F F F"
F        0.00000000       0.00000000       0.00000000       0.00000000       0.00000000       0.04076928
F        0.00000000       0.00000000       5.00060606       0.00000000       0.00000000      -0.04076928
2
Properties=species:S:1:pos:R:3:forces:R:3 energy=-1.0586747402842267 pbc="F F F"
F        0.00000000       0.00000000       0.00000000       0.00000000       0.00000000       0.04063251
F        0.00000000       0.00000000       5.05939394       0.00000000       0.00000000      -0.04063251
2
Properties=species:S:1:pos:R:3:forces:R:3 energy=-1.0562942615857038 pbc="F F F"
F        0.00000000       0.00000000       0.00000000       0.00000000       0.00000000       0.04030776
F        0.00000000       0.00000000       5.11818182       0.00000000       0.00000000      -0.04030776
2
Properties=species:S:1:pos:R:3:forces:R:3 energy=-1.053943446743125 pbc="F F F"
F        0.00000000       0.00000000       0.00000000       0.00000000       0.00000000       0.03959032
F        0.00000000       0.00000000       5.17696970       0.00000000       0.00000000      -0.03959032
2
Properties=species:S:1:pos:R:3:forces:R:3 energy=-1.05164945713102 pbc="F F F"
F        0.00000000       0.00000000       0.00000000       0.00000000       0.00000000       0.03836556
F        0.00000000       0.00000000       5.23575758       0.00000000       0.00000000      -0.03836556
2
Properties=species:S:1:pos:R:3:forces:R:3 energy=-1.049443874445344 pbc="F F F"
F        0.00000000       0.00000000       0.00000000       0.00000000       0.00000000       0.03657042
F        0.00000000       0.00000000       5.29454545       0.00000000       0.00000000      -0.03657042
2
Properties=species:S:1:pos:R:3:forces:R:3 energy=-1.0473612718006635 pbc="F F F"
F        0.00000000       0.00000000       0.00000000       0.00000000       0.00000000       0.03418360
F        0.00000000       0.00000000       5.35333333       0.00000000       0.00000000      -0.03418360
2
Properties=species:S:1:pos:R:3:forces:R:3 energy=-1.045436112061252 pbc="F F F"
F        0.00000000       0.00000000       0.00000000       0.00000000       0.00000000       0.03122517
F        0.00000000       0.00000000       5.41212121       0.00000000       0.00000000      -0.03122517
2
Properties=species:S:1:pos:R:3:forces:R:3 energy=-1.043699767237623 pbc="F F F"
F        0.00000000       0.00000000       0.00000000       0.00000000       0.00000000       0.02776491
F        0.00000000       0.00000000       5.47090909       0.00000000       0.00000000      -0.02776491
2
Properties=species:S:1:pos:R:3:forces:R:3 energy=-1.042178849111 pbc="F F F"
F        0.00000000       0.00000000       0.00000000       0.00000000       0.00000000       0.02391936
F        0.00000000       0.00000000       5.52969697       0.00000000       0.00000000      -0.02391936
2
Properties=species:S:1:pos:R:3:forces:R:3 energy=-1.040891989852416 pbc="F F F"
F        0.00000000       0.00000000       0.00000000       0.00000000       0.00000000       0.01984093
F        0.00000000       0.00000000       5.58848485       0.00000000       0.00000000      -0.01984093
2
Properties=species:S:1:pos:R:3:forces:R:3 energy=-1.0398478147470813 pbc="F F F"
F        0.00000000       0.00000000       0.00000000       0.00000000       0.00000000       0.01571091
F        0.00000000       0.00000000       5.64727273       0.00000000       0.00000000      -0.01571091
2
Properties=species:S:1:pos:R:3:forces:R:3 energy=-1.039042557501245 pbc="F F F"
F        0.00000000       0.00000000       0.00000000       0.00000000       0.00000000       0.01171234
F        0.00000000       0.00000000       5.70606061       0.00000000       0.00000000      -0.01171234
2
Properties=species:S:1:pos:R:3:forces:R:3 energy=-1.0384630401279533 pbc="F F F"
F        0.00000000       0.00000000       0.00000000       0.00000000       0.00000000       0.00803162
F        0.00000000       0.00000000       5.76484848       0.00000000       0.00000000      -0.00803162
2
Properties=species:S:1:pos:R:3:forces:R:3 energy=-1.0380873876830676 pbc="F F F"
F        0.00000000       0.00000000       0.00000000       0.00000000       0.00000000       0.00485507
F        0.00000000       0.00000000       5.82363636       0.00000000       0.00000000      -0.00485507
2
Properties=species:S:1:pos:R:3:forces:R:3 energy=-1.0378799014738564 pbc="F F F"
F        0.00000000       0.00000000       0.00000000       0.00000000       0.00000000       0.00235912
F        0.00000000       0.00000000       5.88242424       0.00000000       0.00000000      -0.00235912
2
Properties=species:S:1:pos:R:3:forces:R:3 energy=-1.037793443430402 pbc="F F F"
F        0.00000000       0.00000000       0.00000000       0.00000000       0.00000000       0.00072461
F        0.00000000       0.00000000       5.94121212       0.00000000       0.00000000      -0.00072461
2
Properties=species:S:1:pos:R:3:forces:R:3 energy=-1.037773965229524 pbc="F F F"
F        0.00000000       0.00000000       0.00000000       0.00000000       0.00000000       0.00013400
F        0.00000000       0.00000000       6.00000000       0.00000000       0.00000000      -0.00013400
