2
Properties=species:S:1:pos:R:3:forces:R:3 energy=17877.97415082181 pbc="F F F"
Pb       0.00000000       0.00000000       0.00000000       0.00000000       0.00000000 -317631.90625000
Pb       0.00000000       0.00000000       0.18000000       0.00000000       0.00000000  317631.90625000
2
Properties=species:S:1:pos:R:3:forces:R:3 energy=6834.3823539468085 pbc="F F F"
Pb       0.00000000       0.00000000       0.00000000       0.00000000       0.00000000 -103718.78125000
Pb       0.00000000       0.00000000       0.23878788       0.00000000       0.00000000  103718.78125000
2
Properties=species:S:1:pos:R:3:forces:R:3 energy=2950.128447696809 pbc="F F F"
Pb       0.00000000       0.00000000       0.00000000       0.00000000       0.00000000  -39817.87890625
Pb       0.00000000       0.00000000       0.29757576       0.00000000       0.00000000   39817.87890625
2
Properties=species:S:1:pos:R:3:forces:R:3 energy=1388.284941837434 pbc="F F F"
Pb       0.00000000       0.00000000       0.00000000       0.00000000       0.00000000  -16914.79101562
Pb       0.00000000       0.00000000       0.35636364       0.00000000       0.00000000   16914.79101562
2
Properties=species:S:1:pos:R:3:forces:R:3 energy=702.2324516062267 pbc="F F F"
Pb       0.00000000       0.00000000       0.00000000       0.00000000       0.00000000   -7736.97558594
Pb       0.00000000       0.00000000       0.41515152       0.00000000       0.00000000    7736.97558594
2
Properties=species:S:1:pos:R:3:forces:R:3 energy=379.70797651490614 pbc="F F F"
Pb       0.00000000       0.00000000       0.00000000       0.00000000       0.00000000   -3760.66357422
Pb       0.00000000       0.00000000       0.47393939       0.00000000       0.00000000    3760.66357422
2
Properties=species:S:1:pos:R:3:forces:R:3 energy=219.15949935472585 pbc="F F F"
Pb       0.00000000       0.00000000       0.00000000       0.00000000       0.00000000   -1926.37756348
Pb       0.00000000       0.00000000       0.53272727       0.00000000       0.00000000    1926.37756348
2
Properties=species:S:1:pos:R:3:forces:R:3 energy=135.20846482466652 pbc="F F F"
Pb       0.00000000       0.00000000       0.00000000       0.00000000       0.00000000   -1031.67211914
Pb       0.00000000       0.00000000       0.59151515       0.00000000       0.00000000    1031.67211914
2
Properties=species:S:1:pos:R:3:forces:R:3 energy=89.52068257191492 pbc="F F F"
Pb       0.00000000       0.00000000       0.00000000       0.00000000       0.00000000    -571.01574707
Pb       0.00000000       0.00000000       0.65030303       0.00000000       0.00000000     571.01574707
2
Properties=species:S:1:pos:R:3:forces:R:3 energy=64.04499750297116 pbc="F F F"
Pb       0.00000000       0.00000000       0.00000000       0.00000000       0.00000000    -319.51873779
Pb       0.00000000       0.00000000       0.70909091       0.00000000       0.00000000     319.51873779
2
Properties=species:S:1:pos:R:3:forces:R:3 energy=49.910014516254755 pbc="F F F"
Pb       0.00000000       0.00000000       0.00000000       0.00000000       0.00000000    -174.18849182
Pb       0.00000000       0.00000000       0.76787879       0.00000000       0.00000000     174.18849182
2
Properties=species:S:1:pos:R:3:forces:R:3 energy=42.34989881608737 pbc="F F F"
Pb       0.00000000       0.00000000       0.00000000       0.00000000       0.00000000     -91.62413788
Pb       0.00000000       0.00000000       0.82666667       0.00000000       0.00000000      91.62413788
2
Properties=species:S:1:pos:R:3:forces:R:3 energy=38.31015364683575 pbc="F F F"
Pb       0.00000000       0.00000000       0.00000000       0.00000000       0.00000000     -50.80324554
Pb       0.00000000       0.00000000       0.88545455       0.00000000       0.00000000      50.80324554
2
Properties=species:S:1:pos:R:3:forces:R:3 energy=36.10787192301465 pbc="F F F"
Pb       0.00000000       0.00000000       0.00000000       0.00000000       0.00000000     -24.24155045
Pb       0.00000000       0.00000000       0.94424242       0.00000000       0.00000000      24.24155045
2
Properties=species:S:1:pos:R:3:forces:R:3 energy=35.25518440093568 pbc="F F F"
Pb       0.00000000       0.00000000       0.00000000       0.00000000       0.00000000     -10.02759552
Pb       0.00000000       0.00000000       1.00303030       0.00000000       0.00000000      10.02759552
2
Properties=species:S:1:pos:R:3:forces:R:3 energy=34.30686252294563 pbc="F F F"
Pb       0.00000000       0.00000000       0.00000000       0.00000000       0.00000000     -24.93314362
Pb       0.00000000       0.00000000       1.06181818       0.00000000       0.00000000      24.93314362
2
Properties=species:S:1:pos:R:3:forces:R:3 energy=32.25808073818516 pbc="F F F"
Pb       0.00000000       0.00000000       0.00000000       0.00000000       0.00000000     -44.25871277
Pb       0.00000000       0.00000000       1.12060606       0.00000000       0.00000000      44.25871277
2
Properties=species:S:1:pos:R:3:forces:R:3 energy=29.210065878637472 pbc="F F F"
Pb       0.00000000       0.00000000       0.00000000       0.00000000       0.00000000     -58.22258759
Pb       0.00000000       0.00000000       1.17939394       0.00000000       0.00000000      58.22258759
2
Properties=species:S:1:pos:R:3:forces:R:3 energy=25.57758811499486 pbc="F F F"
Pb       0.00000000       0.00000000       0.00000000       0.00000000       0.00000000     -63.87283325
Pb       0.00000000       0.00000000       1.23818182       0.00000000       0.00000000      63.87283325
2
Properties=species:S:1:pos:R:3:forces:R:3 energy=21.86071806667406 pbc="F F F"
Pb       0.00000000       0.00000000       0.00000000       0.00000000       0.00000000     -61.45606232
Pb       0.00000000       0.00000000       1.29696970       0.00000000       0.00000000      61.45606232
2
Properties=species:S:1:pos:R:3:forces:R:3 energy=18.441032335117463 pbc="F F F"
Pb       0.00000000       0.00000000       0.00000000       0.00000000       0.00000000     -54.50685501
Pb       0.00000000       0.00000000       1.35575758       0.00000000       0.00000000      54.50685501
2
Properties=species:S:1:pos:R:3:forces:R:3 energy=15.458015382863435 pbc="F F F"
Pb       0.00000000       0.00000000       0.00000000       0.00000000       0.00000000     -47.17223740
Pb       0.00000000       0.00000000       1.41454545       0.00000000       0.00000000      47.17223740
2
Properties=species:S:1:pos:R:3:forces:R:3 energy=12.859078835781412 pbc="F F F"
Pb       0.00000000       0.00000000       0.00000000       0.00000000       0.00000000     -41.57366562
Pb       0.00000000       0.00000000       1.47333333       0.00000000       0.00000000      41.57366562
2
Properties=species:S:1:pos:R:3:forces:R:3 energy=10.5368562111773 pbc="F F F"
Pb       0.00000000       0.00000000       0.00000000       0.00000000       0.00000000     -37.65424728
Pb       0.00000000       0.00000000       1.53212121       0.00000000       0.00000000      37.65424728
2
Properties=species:S:1:pos:R:3:forces:R:3 energy=8.412329023922576 pbc="F F F"
Pb       0.00000000       0.00000000       0.00000000       0.00000000       0.00000000     -34.72502899
Pb       0.00000000       0.00000000       1.59090909       0.00000000       0.00000000      34.72502899
2
Properties=species:S:1:pos:R:3:forces:R:3 energy=6.4506806524511235 pbc="F F F"
Pb       0.00000000       0.00000000       0.00000000       0.00000000       0.00000000     -31.97154427
Pb       0.00000000       0.00000000       1.64969697       0.00000000       0.00000000      31.97154427
2
Properties=species:S:1:pos:R:3:forces:R:3 energy=4.66336199099292 pbc="F F F"
Pb       0.00000000       0.00000000       0.00000000       0.00000000       0.00000000     -28.72223091
Pb       0.00000000       0.00000000       1.70848485       0.00000000       0.00000000      28.72223091
2
Properties=species:S:1:pos:R:3:forces:R:3 energy=3.086425173869466 pbc="F F F"
Pb       0.00000000       0.00000000       0.00000000       0.00000000       0.00000000     -24.83772278
Pb       0.00000000       0.00000000       1.76727273       0.00000000       0.00000000      24.83772278
2
Properties=species:S:1:pos:R:3:forces:R:3 energy=1.7489145297849564 pbc="F F F"
Pb       0.00000000       0.00000000       0.00000000       0.00000000       0.00000000     -20.65918350
Pb       0.00000000       0.00000000       1.82606061       0.00000000       0.00000000      20.65918350
2
Properties=species:S:1:pos:R:3:forces:R:3 energy=0.6528622840227575 pbc="F F F"
Pb       0.00000000       0.00000000       0.00000000       0.00000000       0.00000000     -16.70814323
Pb       0.00000000       0.00000000       1.88484848       0.00000000       0.00000000      16.70814323
2
Properties=species:S:1:pos:R:3:forces:R:3 energy=-0.22825540859462917 pbc="F F F"
Pb       0.00000000       0.00000000       0.00000000       0.00000000       0.00000000     -13.39556408
Pb       0.00000000       0.00000000       1.94363636       0.00000000       0.00000000      13.39556408
2
Properties=species:S:1:pos:R:3:forces:R:3 energy=-0.937650614562561 pbc="F F F"
Pb       0.00000000       0.00000000       0.00000000       0.00000000       0.00000000     -10.86576748
Pb       0.00000000       0.00000000       2.00242424       0.00000000       0.00000000      10.86576748
2
Properties=species:S:1:pos:R:3:forces:R:3 energy=-1.5189576143374075 pbc="F F F"
Pb       0.00000000       0.00000000       0.00000000       0.00000000       0.00000000      -9.00278854
Pb       0.00000000       0.00000000       2.06121212       0.00000000       0.00000000       9.00278854
2
Properties=species:S:1:pos:R:3:forces:R:3 energy=-2.004436653627053 pbc="F F F"
Pb       0.00000000       0.00000000       0.00000000       0.00000000       0.00000000      -7.56365824
Pb       0.00000000       0.00000000       2.12000000       0.00000000       0.00000000       7.56365824
2
Properties=species:S:1:pos:R:3:forces:R:3 energy=-2.4123282377611837 pbc="F F F"
Pb       0.00000000       0.00000000       0.00000000       0.00000000       0.00000000      -6.33597803
Pb       0.00000000       0.00000000       2.17878788       0.00000000       0.00000000       6.33597803
2
Properties=species:S:1:pos:R:3:forces:R:3 energy=-2.7513414901556317 pbc="F F F"
Pb       0.00000000       0.00000000       0.00000000       0.00000000       0.00000000      -5.21053743
Pb       0.00000000       0.00000000       2.23757576       0.00000000       0.00000000       5.21053743
2
Properties=species:S:1:pos:R:3:forces:R:3 energy=-3.02643540404603 pbc="F F F"
Pb       0.00000000       0.00000000       0.00000000       0.00000000       0.00000000      -4.16147518
Pb       0.00000000       0.00000000       2.29636364       0.00000000       0.00000000       4.16147518
2
Properties=species:S:1:pos:R:3:forces:R:3 energy=-3.2423687200685 pbc="F F F"
Pb       0.00000000       0.00000000       0.00000000       0.00000000       0.00000000      -3.20150208
Pb       0.00000000       0.00000000       2.35515152       0.00000000       0.00000000       3.20150208
2
Properties=species:S:1:pos:R:3:forces:R:3 energy=-3.4050536606161432 pbc="F F F"
Pb       0.00000000       0.00000000       0.00000000       0.00000000       0.00000000      -2.35359120
Pb       0.00000000       0.00000000       2.41393939       0.00000000       0.00000000       2.35359120
2
Properties=species:S:1:pos:R:3:forces:R:3 energy=-3.521667789334332 pbc="F F F"
Pb       0.00000000       0.00000000       0.00000000       0.00000000       0.00000000      -1.63643432
Pb       0.00000000       0.00000000       2.47272727       0.00000000       0.00000000       1.63643432
2
Properties=species:S:1:pos:R:3:forces:R:3 energy=-3.600124470785232 pbc="F F F"
Pb       0.00000000       0.00000000       0.00000000       0.00000000       0.00000000      -1.05476761
Pb       0.00000000       0.00000000       2.53151515       0.00000000       0.00000000       1.05476761
2
Properties=species:S:1:pos:R:3:forces:R:3 energy=-3.648108295401026 pbc="F F F"
Pb       0.00000000       0.00000000       0.00000000       0.00000000       0.00000000      -0.59650493
Pb       0.00000000       0.00000000       2.59030303       0.00000000       0.00000000       0.59650493
2
Properties=species:S:1:pos:R:3:forces:R:3 energy=-3.6722135107667695 pbc="F F F"
Pb       0.00000000       0.00000000       0.00000000       0.00000000       0.00000000      -0.23789389
Pb       0.00000000       0.00000000       2.64909091       0.00000000       0.00000000       0.23789389
2
Properties=species:S:1:pos:R:3:forces:R:3 energy=-3.6775095849554043 pbc="F F F"
Pb       0.00000000       0.00000000       0.00000000       0.00000000       0.00000000       0.04758825
Pb       0.00000000       0.00000000       2.70787879       0.00000000       0.00000000      -0.04758825
2
Properties=species:S:1:pos:R:3:forces:R:3 energy=-3.667608338364837 pbc="F F F"
Pb       0.00000000       0.00000000       0.00000000       0.00000000       0.00000000       0.28227687
Pb       0.00000000       0.00000000       2.76666667       0.00000000       0.00000000      -0.28227687
2
Properties=species:S:1:pos:R:3:forces:R:3 energy=-3.645011526328047 pbc="F F F"
Pb       0.00000000       0.00000000       0.00000000       0.00000000       0.00000000       0.48143378
Pb       0.00000000       0.00000000       2.82545455       0.00000000       0.00000000      -0.48143378
2
Properties=species:S:1:pos:R:3:forces:R:3 energy=-3.6115319971975577 pbc="F F F"
Pb       0.00000000       0.00000000       0.00000000       0.00000000       0.00000000       0.65343857
Pb       0.00000000       0.00000000       2.88424242       0.00000000       0.00000000      -0.65343857
2
Properties=species:S:1:pos:R:3:forces:R:3 energy=-3.56865334793996 pbc="F F F"
Pb       0.00000000       0.00000000       0.00000000       0.00000000       0.00000000       0.80137593
Pb       0.00000000       0.00000000       2.94303030       0.00000000       0.00000000      -0.80137593
2
Properties=species:S:1:pos:R:3:forces:R:3 energy=-3.517782846570639 pbc="F F F"
Pb       0.00000000       0.00000000       0.00000000       0.00000000       0.00000000       0.92514211
Pb       0.00000000       0.00000000       3.00181818       0.00000000       0.00000000      -0.92514211
2
Properties=species:S:1:pos:R:3:forces:R:3 energy=-3.460372080466499 pbc="F F F"
Pb       0.00000000       0.00000000       0.00000000       0.00000000       0.00000000       1.02378130
Pb       0.00000000       0.00000000       3.06060606       0.00000000       0.00000000      -1.02378130
2
Properties=species:S:1:pos:R:3:forces:R:3 energy=-3.3979004608147925 pbc="F F F"
Pb       0.00000000       0.00000000       0.00000000       0.00000000       0.00000000       1.09751546
Pb       0.00000000       0.00000000       3.11939394       0.00000000       0.00000000      -1.09751546
2
Properties=species:S:1:pos:R:3:forces:R:3 energy=-3.331773703176359 pbc="F F F"
Pb       0.00000000       0.00000000       0.00000000       0.00000000       0.00000000       1.14866459
Pb       0.00000000       0.00000000       3.17818182       0.00000000       0.00000000      -1.14866459
2
Properties=species:S:1:pos:R:3:forces:R:3 energy=-3.2632104441407024 pbc="F F F"
Pb       0.00000000       0.00000000       0.00000000       0.00000000       0.00000000       1.18122482
Pb       0.00000000       0.00000000       3.23696970       0.00000000       0.00000000      -1.18122482
2
Properties=species:S:1:pos:R:3:forces:R:3 energy=-3.193166763014957 pbc="F F F"
Pb       0.00000000       0.00000000       0.00000000       0.00000000       0.00000000       1.19970965
Pb       0.00000000       0.00000000       3.29575758       0.00000000       0.00000000      -1.19970965
2
Properties=species:S:1:pos:R:3:forces:R:3 energy=-3.1223481171824794 pbc="F F F"
Pb       0.00000000       0.00000000       0.00000000       0.00000000       0.00000000       1.20823240
Pb       0.00000000       0.00000000       3.35454545       0.00000000       0.00000000      -1.20823240
2
Properties=species:S:1:pos:R:3:forces:R:3 energy=-3.0512357493156492 pbc="F F F"
Pb       0.00000000       0.00000000       0.00000000       0.00000000       0.00000000       1.21021175
Pb       0.00000000       0.00000000       3.41333333       0.00000000       0.00000000      -1.21021175
2
Properties=species:S:1:pos:R:3:forces:R:3 energy=-2.9801352926339186 pbc="F F F"
Pb       0.00000000       0.00000000       0.00000000       0.00000000       0.00000000       1.20811963
Pb       0.00000000       0.00000000       3.47212121       0.00000000       0.00000000      -1.20811963
2
Properties=species:S:1:pos:R:3:forces:R:3 energy=-2.9092543073074735 pbc="F F F"
Pb       0.00000000       0.00000000       0.00000000       0.00000000       0.00000000       1.20269012
Pb       0.00000000       0.00000000       3.53090909       0.00000000       0.00000000      -1.20269012
2
Properties=species:S:1:pos:R:3:forces:R:3 energy=-2.838815975250972 pbc="F F F"
Pb       0.00000000       0.00000000       0.00000000       0.00000000       0.00000000       1.19273460
Pb       0.00000000       0.00000000       3.58969697       0.00000000       0.00000000      -1.19273460
2
Properties=species:S:1:pos:R:3:forces:R:3 energy=-2.7691426936353296 pbc="F F F"
Pb       0.00000000       0.00000000       0.00000000       0.00000000       0.00000000       1.17643833
Pb       0.00000000       0.00000000       3.64848485       0.00000000       0.00000000      -1.17643833
2
Properties=species:S:1:pos:R:3:forces:R:3 energy=-2.700642085563419 pbc="F F F"
Pb       0.00000000       0.00000000       0.00000000       0.00000000       0.00000000       1.15274489
Pb       0.00000000       0.00000000       3.70727273       0.00000000       0.00000000      -1.15274489
2
Properties=species:S:1:pos:R:3:forces:R:3 energy=-2.63375176707821 pbc="F F F"
Pb       0.00000000       0.00000000       0.00000000       0.00000000       0.00000000       1.12170279
Pb       0.00000000       0.00000000       3.76606061       0.00000000       0.00000000      -1.12170279
2
Properties=species:S:1:pos:R:3:forces:R:3 energy=-2.5688841130519595 pbc="F F F"
Pb       0.00000000       0.00000000       0.00000000       0.00000000       0.00000000       1.08417070
Pb       0.00000000       0.00000000       3.82484848       0.00000000       0.00000000      -1.08417070
2
Properties=species:S:1:pos:R:3:forces:R:3 energy=-2.506381395901918 pbc="F F F"
Pb       0.00000000       0.00000000       0.00000000       0.00000000       0.00000000       1.04141474
Pb       0.00000000       0.00000000       3.88363636       0.00000000       0.00000000      -1.04141474
2
Properties=species:S:1:pos:R:3:forces:R:3 energy=-2.4465139766040367 pbc="F F F"
Pb       0.00000000       0.00000000       0.00000000       0.00000000       0.00000000       0.99482274
Pb       0.00000000       0.00000000       3.94242424       0.00000000       0.00000000      -0.99482274
2
Properties=species:S:1:pos:R:3:forces:R:3 energy=-2.389464323992818 pbc="F F F"
Pb       0.00000000       0.00000000       0.00000000       0.00000000       0.00000000       0.94573325
Pb       0.00000000       0.00000000       4.00121212       0.00000000       0.00000000      -0.94573325
2
Properties=species:S:1:pos:R:3:forces:R:3 energy=-2.335343597540193 pbc="F F F"
Pb       0.00000000       0.00000000       0.00000000       0.00000000       0.00000000       0.89535880
Pb       0.00000000       0.00000000       4.06000000       0.00000000       0.00000000      -0.89535880
2
Properties=species:S:1:pos:R:3:forces:R:3 energy=-2.284194782155304 pbc="F F F"
Pb       0.00000000       0.00000000       0.00000000       0.00000000       0.00000000       0.84484071
Pb       0.00000000       0.00000000       4.11878788       0.00000000       0.00000000      -0.84484071
2
Properties=species:S:1:pos:R:3:forces:R:3 energy=-2.2359916701619844 pbc="F F F"
Pb       0.00000000       0.00000000       0.00000000       0.00000000       0.00000000       0.79530478
Pb       0.00000000       0.00000000       4.17757576       0.00000000       0.00000000      -0.79530478
2
Properties=species:S:1:pos:R:3:forces:R:3 energy=-2.1906434457768023 pbc="F F F"
Pb       0.00000000       0.00000000       0.00000000       0.00000000       0.00000000       0.74791974
Pb       0.00000000       0.00000000       4.23636364       0.00000000       0.00000000      -0.74791974
2
Properties=species:S:1:pos:R:3:forces:R:3 energy=-2.1479884497161232 pbc="F F F"
Pb       0.00000000       0.00000000       0.00000000       0.00000000       0.00000000       0.70383739
Pb       0.00000000       0.00000000       4.29515152       0.00000000       0.00000000      -0.70383739
2
Properties=species:S:1:pos:R:3:forces:R:3 energy=-2.107805027577498 pbc="F F F"
Pb       0.00000000       0.00000000       0.00000000       0.00000000       0.00000000       0.66405666
Pb       0.00000000       0.00000000       4.35393939       0.00000000       0.00000000      -0.66405666
2
Properties=species:S:1:pos:R:3:forces:R:3 energy=-2.0698161358203917 pbc="F F F"
Pb       0.00000000       0.00000000       0.00000000       0.00000000       0.00000000       0.62917036
Pb       0.00000000       0.00000000       4.41272727       0.00000000       0.00000000      -0.62917036
2
Properties=species:S:1:pos:R:3:forces:R:3 energy=-2.0337329842055345 pbc="F F F"
Pb       0.00000000       0.00000000       0.00000000       0.00000000       0.00000000       0.59916711
Pb       0.00000000       0.00000000       4.47151515       0.00000000       0.00000000      -0.59916711
2
Properties=species:S:1:pos:R:3:forces:R:3 energy=-1.9992860238745571 pbc="F F F"
Pb       0.00000000       0.00000000       0.00000000       0.00000000       0.00000000       0.57333094
Pb       0.00000000       0.00000000       4.53030303       0.00000000       0.00000000      -0.57333094
2
Properties=species:S:1:pos:R:3:forces:R:3 energy=-1.9662675304089396 pbc="F F F"
Pb       0.00000000       0.00000000       0.00000000       0.00000000       0.00000000       0.55034512
Pb       0.00000000       0.00000000       4.58909091       0.00000000       0.00000000      -0.55034512
2
Properties=species:S:1:pos:R:3:forces:R:3 energy=-1.9345555914077401 pbc="F F F"
Pb       0.00000000       0.00000000       0.00000000       0.00000000       0.00000000       0.52860600
Pb       0.00000000       0.00000000       4.64787879       0.00000000       0.00000000      -0.52860600
2
Properties=species:S:1:pos:R:3:forces:R:3 energy=-1.9041205414533255 pbc="F F F"
Pb       0.00000000       0.00000000       0.00000000       0.00000000       0.00000000       0.50664592
Pb       0.00000000       0.00000000       4.70666667       0.00000000       0.00000000      -0.50664592
2
Properties=species:S:1:pos:R:3:forces:R:3 energy=-1.8750088236758549 pbc="F F F"
Pb       0.00000000       0.00000000       0.00000000       0.00000000       0.00000000       0.48355964
Pb       0.00000000       0.00000000       4.76545455       0.00000000       0.00000000      -0.48355964
2
Properties=species:S:1:pos:R:3:forces:R:3 energy=-1.8472893444050291 pbc="F F F"
Pb       0.00000000       0.00000000       0.00000000       0.00000000       0.00000000       0.45923549
Pb       0.00000000       0.00000000       4.82424242       0.00000000       0.00000000      -0.45923549
2
Properties=species:S:1:pos:R:3:forces:R:3 energy=-1.8210260233552733 pbc="F F F"
Pb       0.00000000       0.00000000       0.00000000       0.00000000       0.00000000       0.43435466
Pb       0.00000000       0.00000000       4.88303030       0.00000000       0.00000000      -0.43435466
2
Properties=species:S:1:pos:R:3:forces:R:3 energy=-1.7962089338379335 pbc="F F F"
Pb       0.00000000       0.00000000       0.00000000       0.00000000       0.00000000       0.41008738
Pb       0.00000000       0.00000000       4.94181818       0.00000000       0.00000000      -0.41008738
2
Properties=species:S:1:pos:R:3:forces:R:3 energy=-1.7727714593955064 pbc="F F F"
Pb       0.00000000       0.00000000       0.00000000       0.00000000       0.00000000       0.38769063
Pb       0.00000000       0.00000000       5.00060606       0.00000000       0.00000000      -0.38769063
2
Properties=species:S:1:pos:R:3:forces:R:3 energy=-1.7505712888394462 pbc="F F F"
Pb       0.00000000       0.00000000       0.00000000       0.00000000       0.00000000       0.36801445
Pb       0.00000000       0.00000000       5.05939394       0.00000000       0.00000000      -0.36801445
2
Properties=species:S:1:pos:R:3:forces:R:3 energy=-1.7294454771026964 pbc="F F F"
Pb       0.00000000       0.00000000       0.00000000       0.00000000       0.00000000       0.35118827
Pb       0.00000000       0.00000000       5.11818182       0.00000000       0.00000000      -0.35118827
2
Properties=species:S:1:pos:R:3:forces:R:3 energy=-1.7092385101078875 pbc="F F F"
Pb       0.00000000       0.00000000       0.00000000       0.00000000       0.00000000       0.33651692
Pb       0.00000000       0.00000000       5.17696970       0.00000000       0.00000000      -0.33651692
2
Properties=species:S:1:pos:R:3:forces:R:3 energy=-1.6898648041131556 pbc="F F F"
Pb       0.00000000       0.00000000       0.00000000       0.00000000       0.00000000       0.32260364
Pb       0.00000000       0.00000000       5.23575758       0.00000000       0.00000000      -0.32260364
2
Properties=species:S:1:pos:R:3:forces:R:3 energy=-1.6713279162467385 pbc="F F F"
Pb       0.00000000       0.00000000       0.00000000       0.00000000       0.00000000       0.30770525
Pb       0.00000000       0.00000000       5.29454545       0.00000000       0.00000000      -0.30770525
2
Properties=species:S:1:pos:R:3:forces:R:3 energy=-1.6537380314266275 pbc="F F F"
Pb       0.00000000       0.00000000       0.00000000       0.00000000       0.00000000       0.29012480
Pb       0.00000000       0.00000000       5.35333333       0.00000000       0.00000000      -0.29012480
2
Properties=species:S:1:pos:R:3:forces:R:3 energy=-1.6372940829670035 pbc="F F F"
Pb       0.00000000       0.00000000       0.00000000       0.00000000       0.00000000       0.26862341
Pb       0.00000000       0.00000000       5.41212121       0.00000000       0.00000000      -0.26862341
2
Properties=species:S:1:pos:R:3:forces:R:3 energy=-1.6222413140711585 pbc="F F F"
Pb       0.00000000       0.00000000       0.00000000       0.00000000       0.00000000       0.24269114
Pb       0.00000000       0.00000000       5.47090909       0.00000000       0.00000000      -0.24269114
2
Properties=species:S:1:pos:R:3:forces:R:3 energy=-1.6088392121165163 pbc="F F F"
Pb       0.00000000       0.00000000       0.00000000       0.00000000       0.00000000       0.21260551
Pb       0.00000000       0.00000000       5.52969697       0.00000000       0.00000000      -0.21260551
2
Properties=species:S:1:pos:R:3:forces:R:3 energy=-1.5973051258284978 pbc="F F F"
Pb       0.00000000       0.00000000       0.00000000       0.00000000       0.00000000       0.17941196
Pb       0.00000000       0.00000000       5.58848485       0.00000000       0.00000000      -0.17941196
2
Properties=species:S:1:pos:R:3:forces:R:3 energy=-1.5877796708278844 pbc="F F F"
Pb       0.00000000       0.00000000       0.00000000       0.00000000       0.00000000       0.14474007
Pb       0.00000000       0.00000000       5.64727273       0.00000000       0.00000000      -0.14474007
2
Properties=species:S:1:pos:R:3:forces:R:3 energy=-1.5802814459399006 pbc="F F F"
Pb       0.00000000       0.00000000       0.00000000       0.00000000       0.00000000       0.11052350
Pb       0.00000000       0.00000000       5.70606061       0.00000000       0.00000000      -0.11052350
2
Properties=species:S:1:pos:R:3:forces:R:3 energy=-1.5747243533872415 pbc="F F F"
Pb       0.00000000       0.00000000       0.00000000       0.00000000       0.00000000       0.07880884
Pb       0.00000000       0.00000000       5.76484848       0.00000000       0.00000000      -0.07880884
2
Properties=species:S:1:pos:R:3:forces:R:3 energy=-1.5709209350662694 pbc="F F F"
Pb       0.00000000       0.00000000       0.00000000       0.00000000       0.00000000       0.05154068
Pb       0.00000000       0.00000000       5.82363636       0.00000000       0.00000000      -0.05154068
2
Properties=species:S:1:pos:R:3:forces:R:3 energy=-1.5685529294364062 pbc="F F F"
Pb       0.00000000       0.00000000       0.00000000       0.00000000       0.00000000       0.03038248
Pb       0.00000000       0.00000000       5.88242424       0.00000000       0.00000000      -0.03038248
2
Properties=species:S:1:pos:R:3:forces:R:3 energy=-1.5672048358547617 pbc="F F F"
Pb       0.00000000       0.00000000       0.00000000       0.00000000       0.00000000       0.01670655
Pb       0.00000000       0.00000000       5.94121212       0.00000000       0.00000000      -0.01670655
2
Properties=species:S:1:pos:R:3:forces:R:3 energy=-1.5664181357959466 pbc="F F F"
Pb       0.00000000       0.00000000       0.00000000       0.00000000       0.00000000       0.01160836
Pb       0.00000000       0.00000000       6.00000000       0.00000000       0.00000000      -0.01160836
