2
Properties=species:S:1:pos:R:3:forces:R:3 energy=8101.124140635036 pbc="F F F"
Pd       0.00000000       0.00000000       0.00000000       0.00000000       0.00000000 -133925.68750000
Pd       0.00000000       0.00000000       0.18000000       0.00000000       0.00000000  133925.68750000
2
Properties=species:S:1:pos:R:3:forces:R:3 energy=3328.8353222756614 pbc="F F F"
Pd       0.00000000       0.00000000       0.00000000       0.00000000       0.00000000  -46426.27734375
Pd       0.00000000       0.00000000       0.23878788       0.00000000       0.00000000   46426.27734375
2
Properties=species:S:1:pos:R:3:forces:R:3 energy=1544.2252148537866 pbc="F F F"
Pd       0.00000000       0.00000000       0.00000000       0.00000000       0.00000000  -18966.17187500
Pd       0.00000000       0.00000000       0.29757576       0.00000000       0.00000000   18966.17187500
2
Properties=species:S:1:pos:R:3:forces:R:3 energy=779.7270459116419 pbc="F F F"
Pd       0.00000000       0.00000000       0.00000000       0.00000000       0.00000000   -8578.10937500
Pd       0.00000000       0.00000000       0.35636364       0.00000000       0.00000000    8578.10937500
2
Properties=species:S:1:pos:R:3:forces:R:3 energy=422.72173586571944 pbc="F F F"
Pd       0.00000000       0.00000000       0.00000000       0.00000000       0.00000000   -4155.25390625
Pd       0.00000000       0.00000000       0.41515152       0.00000000       0.00000000    4155.25390625
2
Properties=species:S:1:pos:R:3:forces:R:3 energy=245.71486942964825 pbc="F F F"
Pd       0.00000000       0.00000000       0.00000000       0.00000000       0.00000000   -2115.74877930
Pd       0.00000000       0.00000000       0.47393939       0.00000000       0.00000000    2115.74877930
2
Properties=species:S:1:pos:R:3:forces:R:3 energy=154.01458259609208 pbc="F F F"
Pd       0.00000000       0.00000000       0.00000000       0.00000000       0.00000000   -1117.32666016
Pd       0.00000000       0.00000000       0.53272727       0.00000000       0.00000000    1117.32666016
2
Properties=species:S:1:pos:R:3:forces:R:3 energy=105.01307966555805 pbc="F F F"
Pd       0.00000000       0.00000000       0.00000000       0.00000000       0.00000000    -604.46478271
Pd       0.00000000       0.00000000       0.59151515       0.00000000       0.00000000     604.46478271
2
Properties=species:S:1:pos:R:3:forces:R:3 energy=78.31078636776445 pbc="F F F"
Pd       0.00000000       0.00000000       0.00000000       0.00000000       0.00000000    -332.10632324
Pd       0.00000000       0.00000000       0.65030303       0.00000000       0.00000000     332.10632324
2
Properties=species:S:1:pos:R:3:forces:R:3 energy=63.50517204838436 pbc="F F F"
Pd       0.00000000       0.00000000       0.00000000       0.00000000       0.00000000    -187.02639771
Pd       0.00000000       0.00000000       0.70909091       0.00000000       0.00000000     187.02639771
2
Properties=species:S:1:pos:R:3:forces:R:3 energy=54.95089296174626 pbc="F F F"
Pd       0.00000000       0.00000000       0.00000000       0.00000000       0.00000000    -112.61475372
Pd       0.00000000       0.00000000       0.76787879       0.00000000       0.00000000     112.61475372
2
Properties=species:S:1:pos:R:3:forces:R:3 energy=49.51140584976349 pbc="F F F"
Pd       0.00000000       0.00000000       0.00000000       0.00000000       0.00000000     -77.03847504
Pd       0.00000000       0.00000000       0.82666667       0.00000000       0.00000000      77.03847504
2
Properties=species:S:1:pos:R:3:forces:R:3 energy=45.50260584051977 pbc="F F F"
Pd       0.00000000       0.00000000       0.00000000       0.00000000       0.00000000     -61.75696564
Pd       0.00000000       0.00000000       0.88545455       0.00000000       0.00000000      61.75696564
2
Properties=species:S:1:pos:R:3:forces:R:3 energy=41.989838745692595 pbc="F F F"
Pd       0.00000000       0.00000000       0.00000000       0.00000000       0.00000000     -60.30413437
Pd       0.00000000       0.00000000       0.94424242       0.00000000       0.00000000      60.30413437
2
Properties=species:S:1:pos:R:3:forces:R:3 energy=38.059995806122636 pbc="F F F"
Pd       0.00000000       0.00000000       0.00000000       0.00000000       0.00000000     -75.45079803
Pd       0.00000000       0.00000000       1.00303030       0.00000000       0.00000000      75.45079803
2
Properties=species:S:1:pos:R:3:forces:R:3 energy=33.26072647187908 pbc="F F F"
Pd       0.00000000       0.00000000       0.00000000       0.00000000       0.00000000     -85.08532715
Pd       0.00000000       0.00000000       1.06181818       0.00000000       0.00000000      85.08532715
2
Properties=species:S:1:pos:R:3:forces:R:3 energy=28.15378315099689 pbc="F F F"
Pd       0.00000000       0.00000000       0.00000000       0.00000000       0.00000000     -89.08416748
Pd       0.00000000       0.00000000       1.12060606       0.00000000       0.00000000      89.08416748
2
Properties=species:S:1:pos:R:3:forces:R:3 energy=22.817104040519464 pbc="F F F"
Pd       0.00000000       0.00000000       0.00000000       0.00000000       0.00000000     -91.21318817
Pd       0.00000000       0.00000000       1.17939394       0.00000000       0.00000000      91.21318817
2
Properties=species:S:1:pos:R:3:forces:R:3 energy=17.627497424160126 pbc="F F F"
Pd       0.00000000       0.00000000       0.00000000       0.00000000       0.00000000     -83.74588013
Pd       0.00000000       0.00000000       1.23818182       0.00000000       0.00000000      83.74588013
2
Properties=species:S:1:pos:R:3:forces:R:3 energy=13.103757520063406 pbc="F F F"
Pd       0.00000000       0.00000000       0.00000000       0.00000000       0.00000000     -69.48889923
Pd       0.00000000       0.00000000       1.29696970       0.00000000       0.00000000      69.48889923
2
Properties=species:S:1:pos:R:3:forces:R:3 energy=9.477258289385789 pbc="F F F"
Pd       0.00000000       0.00000000       0.00000000       0.00000000       0.00000000     -54.27821732
Pd       0.00000000       0.00000000       1.35575758       0.00000000       0.00000000      54.27821732
2
Properties=species:S:1:pos:R:3:forces:R:3 energy=6.626042143265941 pbc="F F F"
Pd       0.00000000       0.00000000       0.00000000       0.00000000       0.00000000     -43.66578293
Pd       0.00000000       0.00000000       1.41454545       0.00000000       0.00000000      43.66578293
2
Properties=species:S:1:pos:R:3:forces:R:3 energy=4.269686641263473 pbc="F F F"
Pd       0.00000000       0.00000000       0.00000000       0.00000000       0.00000000     -36.68622589
Pd       0.00000000       0.00000000       1.47333333       0.00000000       0.00000000      36.68622589
2
Properties=species:S:1:pos:R:3:forces:R:3 energy=2.324154726543949 pbc="F F F"
Pd       0.00000000       0.00000000       0.00000000       0.00000000       0.00000000     -29.33280945
Pd       0.00000000       0.00000000       1.53212121       0.00000000       0.00000000      29.33280945
2
Properties=species:S:1:pos:R:3:forces:R:3 energy=0.8218851057935215 pbc="F F F"
Pd       0.00000000       0.00000000       0.00000000       0.00000000       0.00000000     -21.96509933
Pd       0.00000000       0.00000000       1.59090909       0.00000000       0.00000000      21.96509933
2
Properties=species:S:1:pos:R:3:forces:R:3 energy=-0.29631370303664656 pbc="F F F"
Pd       0.00000000       0.00000000       0.00000000       0.00000000       0.00000000     -16.45760345
Pd       0.00000000       0.00000000       1.64969697       0.00000000       0.00000000      16.45760345
2
Properties=species:S:1:pos:R:3:forces:R:3 energy=-1.1543955635709675 pbc="F F F"
Pd       0.00000000       0.00000000       0.00000000       0.00000000       0.00000000     -13.02317905
Pd       0.00000000       0.00000000       1.70848485       0.00000000       0.00000000      13.02317905
2
Properties=species:S:1:pos:R:3:forces:R:3 energy=-1.8523341654057612 pbc="F F F"
Pd       0.00000000       0.00000000       0.00000000       0.00000000       0.00000000     -10.86076832
Pd       0.00000000       0.00000000       1.76727273       0.00000000       0.00000000      10.86076832
2
Properties=species:S:1:pos:R:3:forces:R:3 energy=-2.441537909286072 pbc="F F F"
Pd       0.00000000       0.00000000       0.00000000       0.00000000       0.00000000      -9.23168564
Pd       0.00000000       0.00000000       1.82606061       0.00000000       0.00000000       9.23168564
2
Properties=species:S:1:pos:R:3:forces:R:3 energy=-2.940844160304049 pbc="F F F"
Pd       0.00000000       0.00000000       0.00000000       0.00000000       0.00000000      -7.76916742
Pd       0.00000000       0.00000000       1.88484848       0.00000000       0.00000000       7.76916742
2
Properties=species:S:1:pos:R:3:forces:R:3 energy=-3.3563156120314934 pbc="F F F"
Pd       0.00000000       0.00000000       0.00000000       0.00000000       0.00000000      -6.37725782
Pd       0.00000000       0.00000000       1.94363636       0.00000000       0.00000000       6.37725782
2
Properties=species:S:1:pos:R:3:forces:R:3 energy=-3.692441467478798 pbc="F F F"
Pd       0.00000000       0.00000000       0.00000000       0.00000000       0.00000000      -5.07687902
Pd       0.00000000       0.00000000       2.00242424       0.00000000       0.00000000       5.07687902
2
Properties=species:S:1:pos:R:3:forces:R:3 energy=-3.9558251751558595 pbc="F F F"
Pd       0.00000000       0.00000000       0.00000000       0.00000000       0.00000000      -3.90774679
Pd       0.00000000       0.00000000       2.06121212       0.00000000       0.00000000       3.90774679
2
Properties=species:S:1:pos:R:3:forces:R:3 energy=-4.154782089417001 pbc="F F F"
Pd       0.00000000       0.00000000       0.00000000       0.00000000       0.00000000      -2.88486409
Pd       0.00000000       0.00000000       2.12000000       0.00000000       0.00000000       2.88486409
2
Properties=species:S:1:pos:R:3:forces:R:3 energy=-4.297620777001612 pbc="F F F"
Pd       0.00000000       0.00000000       0.00000000       0.00000000       0.00000000      -1.99463916
Pd       0.00000000       0.00000000       2.17878788       0.00000000       0.00000000       1.99463916
2
Properties=species:S:1:pos:R:3:forces:R:3 energy=-4.391432966303265 pbc="F F F"
Pd       0.00000000       0.00000000       0.00000000       0.00000000       0.00000000      -1.21336925
Pd       0.00000000       0.00000000       2.23757576       0.00000000       0.00000000       1.21336925
2
Properties=species:S:1:pos:R:3:forces:R:3 energy=-4.442117872371252 pbc="F F F"
Pd       0.00000000       0.00000000       0.00000000       0.00000000       0.00000000      -0.52627361
Pd       0.00000000       0.00000000       2.29636364       0.00000000       0.00000000       0.52627361
2
Properties=species:S:1:pos:R:3:forces:R:3 energy=-4.455143129025068 pbc="F F F"
Pd       0.00000000       0.00000000       0.00000000       0.00000000       0.00000000       0.06698194
Pd       0.00000000       0.00000000       2.35515152       0.00000000       0.00000000      -0.06698194
2
Properties=species:S:1:pos:R:3:forces:R:3 energy=-4.436220576898568 pbc="F F F"
Pd       0.00000000       0.00000000       0.00000000       0.00000000       0.00000000       0.55939305
Pd       0.00000000       0.00000000       2.41393939       0.00000000       0.00000000      -0.55939305
2
Properties=species:S:1:pos:R:3:forces:R:3 energy=-4.39144233286727 pbc="F F F"
Pd       0.00000000       0.00000000       0.00000000       0.00000000       0.00000000       0.94654274
Pd       0.00000000       0.00000000       2.47272727       0.00000000       0.00000000      -0.94654274
2
Properties=species:S:1:pos:R:3:forces:R:3 energy=-4.326864935567963 pbc="F F F"
Pd       0.00000000       0.00000000       0.00000000       0.00000000       0.00000000       1.23561180
Pd       0.00000000       0.00000000       2.53151515       0.00000000       0.00000000      -1.23561180
2
Properties=species:S:1:pos:R:3:forces:R:3 energy=-4.247610694733247 pbc="F F F"
Pd       0.00000000       0.00000000       0.00000000       0.00000000       0.00000000       1.45096576
Pd       0.00000000       0.00000000       2.59030303       0.00000000       0.00000000      -1.45096576
2
Properties=species:S:1:pos:R:3:forces:R:3 energy=-4.1572595271148 pbc="F F F"
Pd       0.00000000       0.00000000       0.00000000       0.00000000       0.00000000       1.61403775
Pd       0.00000000       0.00000000       2.64909091       0.00000000       0.00000000      -1.61403775
2
Properties=species:S:1:pos:R:3:forces:R:3 energy=-4.059140474702787 pbc="F F F"
Pd       0.00000000       0.00000000       0.00000000       0.00000000       0.00000000       1.71051109
Pd       0.00000000       0.00000000       2.70787879       0.00000000       0.00000000      -1.71051109
2
Properties=species:S:1:pos:R:3:forces:R:3 energy=-3.957865720983811 pbc="F F F"
Pd       0.00000000       0.00000000       0.00000000       0.00000000       0.00000000       1.72040606
Pd       0.00000000       0.00000000       2.76666667       0.00000000       0.00000000      -1.72040606
2
Properties=species:S:1:pos:R:3:forces:R:3 energy=-3.8583952081175457 pbc="F F F"
Pd       0.00000000       0.00000000       0.00000000       0.00000000       0.00000000       1.65246844
Pd       0.00000000       0.00000000       2.82545455       0.00000000       0.00000000      -1.65246844
2
Properties=species:S:1:pos:R:3:forces:R:3 energy=-3.76466274875374 pbc="F F F"
Pd       0.00000000       0.00000000       0.00000000       0.00000000       0.00000000       1.52896512
Pd       0.00000000       0.00000000       2.88424242       0.00000000       0.00000000      -1.52896512
2
Properties=species:S:1:pos:R:3:forces:R:3 energy=-3.6792954419971773 pbc="F F F"
Pd       0.00000000       0.00000000       0.00000000       0.00000000       0.00000000       1.37113547
Pd       0.00000000       0.00000000       2.94303030       0.00000000       0.00000000      -1.37113547
2
Properties=species:S:1:pos:R:3:forces:R:3 energy=-3.6037659253807464 pbc="F F F"
Pd       0.00000000       0.00000000       0.00000000       0.00000000       0.00000000       1.19710863
Pd       0.00000000       0.00000000       3.00181818       0.00000000       0.00000000      -1.19710863
2
Properties=species:S:1:pos:R:3:forces:R:3 energy=-3.538561616014561 pbc="F F F"
Pd       0.00000000       0.00000000       0.00000000       0.00000000       0.00000000       1.02215290
Pd       0.00000000       0.00000000       3.06060606       0.00000000       0.00000000      -1.02215290
2
Properties=species:S:1:pos:R:3:forces:R:3 energy=-3.483361420453972 pbc="F F F"
Pd       0.00000000       0.00000000       0.00000000       0.00000000       0.00000000       0.85854846
Pd       0.00000000       0.00000000       3.11939394       0.00000000       0.00000000      -0.85854846
2
Properties=species:S:1:pos:R:3:forces:R:3 energy=-3.437214348999249 pbc="F F F"
Pd       0.00000000       0.00000000       0.00000000       0.00000000       0.00000000       0.71538854
Pd       0.00000000       0.00000000       3.17818182       0.00000000       0.00000000      -0.71538854
2
Properties=species:S:1:pos:R:3:forces:R:3 energy=-3.3987325350708524 pbc="F F F"
Pd       0.00000000       0.00000000       0.00000000       0.00000000       0.00000000       0.59847236
Pd       0.00000000       0.00000000       3.23696970       0.00000000       0.00000000      -0.59847236
2
Properties=species:S:1:pos:R:3:forces:R:3 energy=-3.3662844586367844 pbc="F F F"
Pd       0.00000000       0.00000000       0.00000000       0.00000000       0.00000000       0.51022953
Pd       0.00000000       0.00000000       3.29575758       0.00000000       0.00000000      -0.51022953
2
Properties=species:S:1:pos:R:3:forces:R:3 energy=-3.338194494563818 pbc="F F F"
Pd       0.00000000       0.00000000       0.00000000       0.00000000       0.00000000       0.44980988
Pd       0.00000000       0.00000000       3.35454545       0.00000000       0.00000000      -0.44980988
2
Properties=species:S:1:pos:R:3:forces:R:3 energy=-3.31292303902196 pbc="F F F"
Pd       0.00000000       0.00000000       0.00000000       0.00000000       0.00000000       0.41353601
Pd       0.00000000       0.00000000       3.41333333       0.00000000       0.00000000      -0.41353601
2
Properties=species:S:1:pos:R:3:forces:R:3 energy=-3.2892092295145723 pbc="F F F"
Pd       0.00000000       0.00000000       0.00000000       0.00000000       0.00000000       0.39578316
Pd       0.00000000       0.00000000       3.47212121       0.00000000       0.00000000      -0.39578316
2
Properties=species:S:1:pos:R:3:forces:R:3 energy=-3.2661527921430906 pbc="F F F"
Pd       0.00000000       0.00000000       0.00000000       0.00000000       0.00000000       0.39009121
Pd       0.00000000       0.00000000       3.53090909       0.00000000       0.00000000      -0.39009121
2
Properties=species:S:1:pos:R:3:forces:R:3 energy=-3.24323070790089 pbc="F F F"
Pd       0.00000000       0.00000000       0.00000000       0.00000000       0.00000000       0.39021909
Pd       0.00000000       0.00000000       3.58969697       0.00000000       0.00000000      -0.39021909
2
Properties=species:S:1:pos:R:3:forces:R:3 energy=-3.2202613041665984 pbc="F F F"
Pd       0.00000000       0.00000000       0.00000000       0.00000000       0.00000000       0.39095238
Pd       0.00000000       0.00000000       3.64848485       0.00000000       0.00000000      -0.39095238
2
Properties=species:S:1:pos:R:3:forces:R:3 energy=-3.1973261761233 pbc="F F F"
Pd       0.00000000       0.00000000       0.00000000       0.00000000       0.00000000       0.38858420
Pd       0.00000000       0.00000000       3.70727273       0.00000000       0.00000000      -0.38858420
2
Properties=species:S:1:pos:R:3:forces:R:3 energy=-3.174674905690008 pbc="F F F"
Pd       0.00000000       0.00000000       0.00000000       0.00000000       0.00000000       0.38106954
Pd       0.00000000       0.00000000       3.76606061       0.00000000       0.00000000      -0.38106954
2
Properties=species:S:1:pos:R:3:forces:R:3 energy=-3.152633352732088 pbc="F F F"
Pd       0.00000000       0.00000000       0.00000000       0.00000000       0.00000000       0.36788741
Pd       0.00000000       0.00000000       3.82484848       0.00000000       0.00000000      -0.36788741
2
Properties=species:S:1:pos:R:3:forces:R:3 energy=-3.131519381597142 pbc="F F F"
Pd       0.00000000       0.00000000       0.00000000       0.00000000       0.00000000       0.34966812
Pd       0.00000000       0.00000000       3.88363636       0.00000000       0.00000000      -0.34966812
2
Properties=species:S:1:pos:R:3:forces:R:3 energy=-3.1115943037523413 pbc="F F F"
Pd       0.00000000       0.00000000       0.00000000       0.00000000       0.00000000       0.32770467
Pd       0.00000000       0.00000000       3.94242424       0.00000000       0.00000000      -0.32770467
2
Properties=species:S:1:pos:R:3:forces:R:3 energy=-3.093034048143291 pbc="F F F"
Pd       0.00000000       0.00000000       0.00000000       0.00000000       0.00000000       0.30346218
Pd       0.00000000       0.00000000       4.00121212       0.00000000       0.00000000      -0.30346218
2
Properties=species:S:1:pos:R:3:forces:R:3 energy=-3.075934199662411 pbc="F F F"
Pd       0.00000000       0.00000000       0.00000000       0.00000000       0.00000000       0.27820510
Pd       0.00000000       0.00000000       4.06000000       0.00000000       0.00000000      -0.27820510
2
Properties=species:S:1:pos:R:3:forces:R:3 energy=-3.0603266037501933 pbc="F F F"
Pd       0.00000000       0.00000000       0.00000000       0.00000000       0.00000000       0.25279814
Pd       0.00000000       0.00000000       4.11878788       0.00000000       0.00000000      -0.25279814
2
Properties=species:S:1:pos:R:3:forces:R:3 energy=-3.0462054363836994 pbc="F F F"
Pd       0.00000000       0.00000000       0.00000000       0.00000000       0.00000000       0.22767152
Pd       0.00000000       0.00000000       4.17757576       0.00000000       0.00000000      -0.22767152
2
Properties=species:S:1:pos:R:3:forces:R:3 energy=-3.0335500740851407 pbc="F F F"
Pd       0.00000000       0.00000000       0.00000000       0.00000000       0.00000000       0.20292953
Pd       0.00000000       0.00000000       4.23636364       0.00000000       0.00000000      -0.20292953
2
Properties=species:S:1:pos:R:3:forces:R:3 energy=-3.022339237477693 pbc="F F F"
Pd       0.00000000       0.00000000       0.00000000       0.00000000       0.00000000       0.17851098
Pd       0.00000000       0.00000000       4.29515152       0.00000000       0.00000000      -0.17851098
2
Properties=species:S:1:pos:R:3:forces:R:3 energy=-3.012556354535577 pbc="F F F"
Pd       0.00000000       0.00000000       0.00000000       0.00000000       0.00000000       0.15437077
Pd       0.00000000       0.00000000       4.35393939       0.00000000       0.00000000      -0.15437077
2
Properties=species:S:1:pos:R:3:forces:R:3 energy=-3.00418212609051 pbc="F F F"
Pd       0.00000000       0.00000000       0.00000000       0.00000000       0.00000000       0.13059807
Pd       0.00000000       0.00000000       4.41272727       0.00000000       0.00000000      -0.13059807
2
Properties=species:S:1:pos:R:3:forces:R:3 energy=-2.997188279431322 pbc="F F F"
Pd       0.00000000       0.00000000       0.00000000       0.00000000       0.00000000       0.10748293
Pd       0.00000000       0.00000000       4.47151515       0.00000000       0.00000000      -0.10748293
2
Properties=species:S:1:pos:R:3:forces:R:3 energy=-2.991522742834455 pbc="F F F"
Pd       0.00000000       0.00000000       0.00000000       0.00000000       0.00000000       0.08550087
Pd       0.00000000       0.00000000       4.53030303       0.00000000       0.00000000      -0.08550087
2
Properties=species:S:1:pos:R:3:forces:R:3 energy=-2.987101689051835 pbc="F F F"
Pd       0.00000000       0.00000000       0.00000000       0.00000000       0.00000000       0.06523989
Pd       0.00000000       0.00000000       4.58909091       0.00000000       0.00000000      -0.06523989
2
Properties=species:S:1:pos:R:3:forces:R:3 energy=-2.983806378848544 pbc="F F F"
Pd       0.00000000       0.00000000       0.00000000       0.00000000       0.00000000       0.04729920
Pd       0.00000000       0.00000000       4.64787879       0.00000000       0.00000000      -0.04729920
2
Properties=species:S:1:pos:R:3:forces:R:3 energy=-2.9814853107697727 pbc="F F F"
Pd       0.00000000       0.00000000       0.00000000       0.00000000       0.00000000       0.03217424
Pd       0.00000000       0.00000000       4.70666667       0.00000000       0.00000000      -0.03217424
2
Properties=species:S:1:pos:R:3:forces:R:3 energy=-2.9799621491425508 pbc="F F F"
Pd       0.00000000       0.00000000       0.00000000       0.00000000       0.00000000       0.02017117
Pd       0.00000000       0.00000000       4.76545455       0.00000000       0.00000000      -0.02017117
2
Properties=species:S:1:pos:R:3:forces:R:3 energy=-2.9790511389200143 pbc="F F F"
Pd       0.00000000       0.00000000       0.00000000       0.00000000       0.00000000       0.01135199
Pd       0.00000000       0.00000000       4.82424242       0.00000000       0.00000000      -0.01135199
2
Properties=species:S:1:pos:R:3:forces:R:3 energy=-2.9785680792716858 pbc="F F F"
Pd       0.00000000       0.00000000       0.00000000       0.00000000       0.00000000       0.00554999
Pd       0.00000000       0.00000000       4.88303030       0.00000000       0.00000000      -0.00554999
2
Properties=species:S:1:pos:R:3:forces:R:3 energy=-2.978346253278768 pbc="F F F"
Pd       0.00000000       0.00000000       0.00000000       0.00000000       0.00000000       0.00241295
Pd       0.00000000       0.00000000       4.94181818       0.00000000       0.00000000      -0.00241295
2
Properties=species:S:1:pos:R:3:forces:R:3 energy=-2.978241037082696 pbc="F F F"
Pd       0.00000000       0.00000000       0.00000000       0.00000000       0.00000000       0.00148743
Pd       0.00000000       0.00000000       5.00060606       0.00000000       0.00000000      -0.00148743
2
Properties=species:S:1:pos:R:3:forces:R:3 energy=-2.9781376116430485 pbc="F F F"
Pd       0.00000000       0.00000000       0.00000000       0.00000000       0.00000000       0.00228053
Pd       0.00000000       0.00000000       5.05939394       0.00000000       0.00000000      -0.00228053
2
Properties=species:S:1:pos:R:3:forces:R:3 energy=-2.977948794795578 pbc="F F F"
Pd       0.00000000       0.00000000       0.00000000       0.00000000       0.00000000       0.00430665
Pd       0.00000000       0.00000000       5.11818182       0.00000000       0.00000000      -0.00430665
2
Properties=species:S:1:pos:R:3:forces:R:3 energy=-2.9776161058003026 pbc="F F F"
Pd       0.00000000       0.00000000       0.00000000       0.00000000       0.00000000       0.00710472
Pd       0.00000000       0.00000000       5.17696970       0.00000000       0.00000000      -0.00710472
2
Properties=species:S:1:pos:R:3:forces:R:3 energy=-2.9771070025210467 pbc="F F F"
Pd       0.00000000       0.00000000       0.00000000       0.00000000       0.00000000       0.01024150
Pd       0.00000000       0.00000000       5.23575758       0.00000000       0.00000000      -0.01024150
2
Properties=species:S:1:pos:R:3:forces:R:3 energy=-2.9764132061597373 pbc="F F F"
Pd       0.00000000       0.00000000       0.00000000       0.00000000       0.00000000       0.01331991
Pd       0.00000000       0.00000000       5.29454545       0.00000000       0.00000000      -0.01331991
2
Properties=species:S:1:pos:R:3:forces:R:3 energy=-2.9755487138803045 pbc="F F F"
Pd       0.00000000       0.00000000       0.00000000       0.00000000       0.00000000       0.01599674
Pd       0.00000000       0.00000000       5.35333333       0.00000000       0.00000000      -0.01599674
2
Properties=species:S:1:pos:R:3:forces:R:3 energy=-2.9745452989499865 pbc="F F F"
Pd       0.00000000       0.00000000       0.00000000       0.00000000       0.00000000       0.01801142
Pd       0.00000000       0.00000000       5.41212121       0.00000000       0.00000000      -0.01801142
2
Properties=species:S:1:pos:R:3:forces:R:3 energy=-2.973447063541966 pbc="F F F"
Pd       0.00000000       0.00000000       0.00000000       0.00000000       0.00000000       0.01921300
Pd       0.00000000       0.00000000       5.47090909       0.00000000       0.00000000      -0.01921300
2
Properties=species:S:1:pos:R:3:forces:R:3 energy=-2.972302904375502 pbc="F F F"
Pd       0.00000000       0.00000000       0.00000000       0.00000000       0.00000000       0.01956955
Pd       0.00000000       0.00000000       5.52969697       0.00000000       0.00000000      -0.01956955
2
Properties=species:S:1:pos:R:3:forces:R:3 energy=-2.971161098780699 pbc="F F F"
Pd       0.00000000       0.00000000       0.00000000       0.00000000       0.00000000       0.01916089
Pd       0.00000000       0.00000000       5.58848485       0.00000000       0.00000000      -0.01916089
2
Properties=species:S:1:pos:R:3:forces:R:3 energy=-2.970062153725046 pbc="F F F"
Pd       0.00000000       0.00000000       0.00000000       0.00000000       0.00000000       0.01815186
Pd       0.00000000       0.00000000       5.64727273       0.00000000       0.00000000      -0.01815186
2
Properties=species:S:1:pos:R:3:forces:R:3 energy=-2.969034564964143 pbc="F F F"
Pd       0.00000000       0.00000000       0.00000000       0.00000000       0.00000000       0.01675395
Pd       0.00000000       0.00000000       5.70606061       0.00000000       0.00000000      -0.01675395
2
Properties=species:S:1:pos:R:3:forces:R:3 energy=-2.968095129904106 pbc="F F F"
Pd       0.00000000       0.00000000       0.00000000       0.00000000       0.00000000       0.01518462
Pd       0.00000000       0.00000000       5.76484848       0.00000000       0.00000000      -0.01518462
2
Properties=species:S:1:pos:R:3:forces:R:3 energy=-2.9672487012634283 pbc="F F F"
Pd       0.00000000       0.00000000       0.00000000       0.00000000       0.00000000       0.01363715
Pd       0.00000000       0.00000000       5.82363636       0.00000000       0.00000000      -0.01363715
2
Properties=species:S:1:pos:R:3:forces:R:3 energy=-2.9664886876688064 pbc="F F F"
Pd       0.00000000       0.00000000       0.00000000       0.00000000       0.00000000       0.01225880
Pd       0.00000000       0.00000000       5.88242424       0.00000000       0.00000000      -0.01225880
2
Properties=species:S:1:pos:R:3:forces:R:3 energy=-2.9658021087545894 pbc="F F F"
Pd       0.00000000       0.00000000       0.00000000       0.00000000       0.00000000       0.01114614
Pd       0.00000000       0.00000000       5.94121212       0.00000000       0.00000000      -0.01114614
2
Properties=species:S:1:pos:R:3:forces:R:3 energy=-2.965171969053147 pbc="F F F"
Pd       0.00000000       0.00000000       0.00000000       0.00000000       0.00000000       0.01034850
Pd       0.00000000       0.00000000       6.00000000       0.00000000       0.00000000      -0.01034850
