2
Properties=species:S:1:pos:R:3:forces:R:3 energy=1746.8920485719455 pbc="F F F"
S        0.00000000       0.00000000       0.00000000       0.00000000       0.00000000  -25520.18750000
S        0.00000000       0.00000000       0.18000000       0.00000000       0.00000000   25520.18750000
2
Properties=species:S:1:pos:R:3:forces:R:3 energy=799.9395949586642 pbc="F F F"
S        0.00000000       0.00000000       0.00000000       0.00000000       0.00000000   -9714.68164062
S        0.00000000       0.00000000       0.23878788       0.00000000       0.00000000    9714.68164062
2
Properties=species:S:1:pos:R:3:forces:R:3 energy=412.6003005282383 pbc="F F F"
S        0.00000000       0.00000000       0.00000000       0.00000000       0.00000000   -4319.46044922
S        0.00000000       0.00000000       0.29757576       0.00000000       0.00000000    4319.46044922
2
Properties=species:S:1:pos:R:3:forces:R:3 energy=232.0067794195777 pbc="F F F"
S        0.00000000       0.00000000       0.00000000       0.00000000       0.00000000   -2122.30761719
S        0.00000000       0.00000000       0.35636364       0.00000000       0.00000000    2122.30761719
2
Properties=species:S:1:pos:R:3:forces:R:3 energy=140.69229579283868 pbc="F F F"
S        0.00000000       0.00000000       0.00000000       0.00000000       0.00000000   -1103.56018066
S        0.00000000       0.00000000       0.41515152       0.00000000       0.00000000    1103.56018066
2
Properties=species:S:1:pos:R:3:forces:R:3 energy=92.88035277348551 pbc="F F F"
S        0.00000000       0.00000000       0.00000000       0.00000000       0.00000000    -575.07299805
S        0.00000000       0.00000000       0.47393939       0.00000000       0.00000000     575.07299805
2
Properties=species:S:1:pos:R:3:forces:R:3 energy=68.92248998600587 pbc="F F F"
S        0.00000000       0.00000000       0.00000000       0.00000000       0.00000000    -263.21435547
S        0.00000000       0.00000000       0.53272727       0.00000000       0.00000000     263.21435547
2
Properties=species:S:1:pos:R:3:forces:R:3 energy=60.05778978266465 pbc="F F F"
S        0.00000000       0.00000000       0.00000000       0.00000000       0.00000000     -49.35824203
S        0.00000000       0.00000000       0.59151515       0.00000000       0.00000000      49.35824203
2
Properties=species:S:1:pos:R:3:forces:R:3 energy=62.08255879891186 pbc="F F F"
S        0.00000000       0.00000000       0.00000000       0.00000000       0.00000000     105.82818604
S        0.00000000       0.00000000       0.65030303       0.00000000       0.00000000    -105.82818604
2
Properties=species:S:1:pos:R:3:forces:R:3 energy=69.31724308716566 pbc="F F F"
S        0.00000000       0.00000000       0.00000000       0.00000000       0.00000000     110.21408081
S        0.00000000       0.00000000       0.70909091       0.00000000       0.00000000    -110.21408081
2
Properties=species:S:1:pos:R:3:forces:R:3 energy=72.88558002698063 pbc="F F F"
S        0.00000000       0.00000000       0.00000000       0.00000000       0.00000000       2.60071349
S        0.00000000       0.00000000       0.76787879       0.00000000       0.00000000      -2.60071349
2
Properties=species:S:1:pos:R:3:forces:R:3 energy=69.4235979651725 pbc="F F F"
S        0.00000000       0.00000000       0.00000000       0.00000000       0.00000000    -115.61889648
S        0.00000000       0.00000000       0.82666667       0.00000000       0.00000000     115.61889648
2
Properties=species:S:1:pos:R:3:forces:R:3 energy=60.53496137596236 pbc="F F F"
S        0.00000000       0.00000000       0.00000000       0.00000000       0.00000000    -172.36952209
S        0.00000000       0.00000000       0.88545455       0.00000000       0.00000000     172.36952209
2
Properties=species:S:1:pos:R:3:forces:R:3 energy=50.23192697669932 pbc="F F F"
S        0.00000000       0.00000000       0.00000000       0.00000000       0.00000000    -180.86723328
S        0.00000000       0.00000000       0.94424242       0.00000000       0.00000000     180.86723328
2
Properties=species:S:1:pos:R:3:forces:R:3 energy=39.64423655329398 pbc="F F F"
S        0.00000000       0.00000000       0.00000000       0.00000000       0.00000000    -171.11198425
S        0.00000000       0.00000000       1.00303030       0.00000000       0.00000000     171.11198425
2
Properties=species:S:1:pos:R:3:forces:R:3 energy=30.224114976575823 pbc="F F F"
S        0.00000000       0.00000000       0.00000000       0.00000000       0.00000000    -151.57803345
S        0.00000000       0.00000000       1.06181818       0.00000000       0.00000000     151.57803345
2
Properties=species:S:1:pos:R:3:forces:R:3 energy=21.83291343395866 pbc="F F F"
S        0.00000000       0.00000000       0.00000000       0.00000000       0.00000000    -130.80070496
S        0.00000000       0.00000000       1.12060606       0.00000000       0.00000000     130.80070496
2
Properties=species:S:1:pos:R:3:forces:R:3 energy=15.181505728836086 pbc="F F F"
S        0.00000000       0.00000000       0.00000000       0.00000000       0.00000000     -94.68840790
S        0.00000000       0.00000000       1.17939394       0.00000000       0.00000000      94.68840790
2
Properties=species:S:1:pos:R:3:forces:R:3 energy=10.51663912203715 pbc="F F F"
S        0.00000000       0.00000000       0.00000000       0.00000000       0.00000000     -67.09471130
S        0.00000000       0.00000000       1.23818182       0.00000000       0.00000000      67.09471130
2
Properties=species:S:1:pos:R:3:forces:R:3 energy=6.947573504073556 pbc="F F F"
S        0.00000000       0.00000000       0.00000000       0.00000000       0.00000000     -56.39007950
S        0.00000000       0.00000000       1.29696970       0.00000000       0.00000000      56.39007950
2
Properties=species:S:1:pos:R:3:forces:R:3 energy=3.7728798405012007 pbc="F F F"
S        0.00000000       0.00000000       0.00000000       0.00000000       0.00000000     -51.68748093
S        0.00000000       0.00000000       1.35575758       0.00000000       0.00000000      51.68748093
2
Properties=species:S:1:pos:R:3:forces:R:3 energy=0.9152175604595844 pbc="F F F"
S        0.00000000       0.00000000       0.00000000       0.00000000       0.00000000     -44.97983170
S        0.00000000       0.00000000       1.41454545       0.00000000       0.00000000      44.97983170
2
Properties=species:S:1:pos:R:3:forces:R:3 energy=-1.4668238934215612 pbc="F F F"
S        0.00000000       0.00000000       0.00000000       0.00000000       0.00000000     -35.88232803
S        0.00000000       0.00000000       1.47333333       0.00000000       0.00000000      35.88232803
2
Properties=species:S:1:pos:R:3:forces:R:3 energy=-3.310516446924762 pbc="F F F"
S        0.00000000       0.00000000       0.00000000       0.00000000       0.00000000     -27.06025887
S        0.00000000       0.00000000       1.53212121       0.00000000       0.00000000      27.06025887
2
Properties=species:S:1:pos:R:3:forces:R:3 energy=-4.679325454204862 pbc="F F F"
S        0.00000000       0.00000000       0.00000000       0.00000000       0.00000000     -19.76416779
S        0.00000000       0.00000000       1.59090909       0.00000000       0.00000000      19.76416779
2
Properties=species:S:1:pos:R:3:forces:R:3 energy=-5.661031933567671 pbc="F F F"
S        0.00000000       0.00000000       0.00000000       0.00000000       0.00000000     -13.83574295
S        0.00000000       0.00000000       1.64969697       0.00000000       0.00000000      13.83574295
2
Properties=species:S:1:pos:R:3:forces:R:3 energy=-6.328181396913876 pbc="F F F"
S        0.00000000       0.00000000       0.00000000       0.00000000       0.00000000      -9.04168606
S        0.00000000       0.00000000       1.70848485       0.00000000       0.00000000       9.04168606
2
Properties=species:S:1:pos:R:3:forces:R:3 energy=-6.744752636808156 pbc="F F F"
S        0.00000000       0.00000000       0.00000000       0.00000000       0.00000000      -5.29864359
S        0.00000000       0.00000000       1.76727273       0.00000000       0.00000000       5.29864359
2
Properties=species:S:1:pos:R:3:forces:R:3 energy=-6.969446265618953 pbc="F F F"
S        0.00000000       0.00000000       0.00000000       0.00000000       0.00000000      -2.48465705
S        0.00000000       0.00000000       1.82606061       0.00000000       0.00000000       2.48465705
2
Properties=species:S:1:pos:R:3:forces:R:3 energy=-7.051018349074429 pbc="F F F"
S        0.00000000       0.00000000       0.00000000       0.00000000       0.00000000      -0.39194021
S        0.00000000       0.00000000       1.88484848       0.00000000       0.00000000       0.39194021
2
Properties=species:S:1:pos:R:3:forces:R:3 energy=-7.025541491639616 pbc="F F F"
S        0.00000000       0.00000000       0.00000000       0.00000000       0.00000000       1.18763614
S        0.00000000       0.00000000       1.94363636       0.00000000       0.00000000      -1.18763614
2
Properties=species:S:1:pos:R:3:forces:R:3 energy=-6.918476687633158 pbc="F F F"
S        0.00000000       0.00000000       0.00000000       0.00000000       0.00000000       2.40280175
S        0.00000000       0.00000000       2.00242424       0.00000000       0.00000000      -2.40280175
2
Properties=species:S:1:pos:R:3:forces:R:3 energy=-6.748525218126928 pbc="F F F"
S        0.00000000       0.00000000       0.00000000       0.00000000       0.00000000       3.33579230
S        0.00000000       0.00000000       2.06121212       0.00000000       0.00000000      -3.33579230
2
Properties=species:S:1:pos:R:3:forces:R:3 energy=-6.531210677021023 pbc="F F F"
S        0.00000000       0.00000000       0.00000000       0.00000000       0.00000000       4.01607180
S        0.00000000       0.00000000       2.12000000       0.00000000       0.00000000      -4.01607180
2
Properties=species:S:1:pos:R:3:forces:R:3 energy=-6.281047184448155 pbc="F F F"
S        0.00000000       0.00000000       0.00000000       0.00000000       0.00000000       4.45664740
S        0.00000000       0.00000000       2.17878788       0.00000000       0.00000000      -4.45664740
2
Properties=species:S:1:pos:R:3:forces:R:3 energy=-6.011181755737181 pbc="F F F"
S        0.00000000       0.00000000       0.00000000       0.00000000       0.00000000       4.69610596
S        0.00000000       0.00000000       2.23757576       0.00000000       0.00000000      -4.69610596
2
Properties=species:S:1:pos:R:3:forces:R:3 energy=-5.731414483035707 pbc="F F F"
S        0.00000000       0.00000000       0.00000000       0.00000000       0.00000000       4.80724716
S        0.00000000       0.00000000       2.29636364       0.00000000       0.00000000      -4.80724716
2
Properties=species:S:1:pos:R:3:forces:R:3 energy=-5.446999445080496 pbc="F F F"
S        0.00000000       0.00000000       0.00000000       0.00000000       0.00000000       4.86472273
S        0.00000000       0.00000000       2.35515152       0.00000000       0.00000000      -4.86472273
2
Properties=species:S:1:pos:R:3:forces:R:3 energy=-5.159620200317713 pbc="F F F"
S        0.00000000       0.00000000       0.00000000       0.00000000       0.00000000       4.91159630
S        0.00000000       0.00000000       2.41393939       0.00000000       0.00000000      -4.91159630
2
Properties=species:S:1:pos:R:3:forces:R:3 energy=-4.869638127796984 pbc="F F F"
S        0.00000000       0.00000000       0.00000000       0.00000000       0.00000000       4.95110750
S        0.00000000       0.00000000       2.47272727       0.00000000       0.00000000      -4.95110750
2
Properties=species:S:1:pos:R:3:forces:R:3 energy=-4.5781491665630325 pbc="F F F"
S        0.00000000       0.00000000       0.00000000       0.00000000       0.00000000       4.95654297
S        0.00000000       0.00000000       2.53151515       0.00000000       0.00000000      -4.95654297
2
Properties=species:S:1:pos:R:3:forces:R:3 energy=-4.288327859389866 pbc="F F F"
S        0.00000000       0.00000000       0.00000000       0.00000000       0.00000000       4.88768005
S        0.00000000       0.00000000       2.59030303       0.00000000       0.00000000      -4.88768005
2
Properties=species:S:1:pos:R:3:forces:R:3 energy=-4.0056021864264935 pbc="F F F"
S        0.00000000       0.00000000       0.00000000       0.00000000       0.00000000       4.71120691
S        0.00000000       0.00000000       2.64909091       0.00000000       0.00000000      -4.71120691
2
Properties=species:S:1:pos:R:3:forces:R:3 energy=-3.7366846156421265 pbc="F F F"
S        0.00000000       0.00000000       0.00000000       0.00000000       0.00000000       4.41944027
S        0.00000000       0.00000000       2.70787879       0.00000000       0.00000000      -4.41944027
2
Properties=species:S:1:pos:R:3:forces:R:3 energy=-3.4878019390137536 pbc="F F F"
S        0.00000000       0.00000000       0.00000000       0.00000000       0.00000000       4.03544855
S        0.00000000       0.00000000       2.76666667       0.00000000       0.00000000      -4.03544855
2
Properties=species:S:1:pos:R:3:forces:R:3 energy=-3.263198441844255 pbc="F F F"
S        0.00000000       0.00000000       0.00000000       0.00000000       0.00000000       3.60115957
S        0.00000000       0.00000000       2.82545455       0.00000000       0.00000000      -3.60115957
2
Properties=species:S:1:pos:R:3:forces:R:3 energy=-3.064541537919481 pbc="F F F"
S        0.00000000       0.00000000       0.00000000       0.00000000       0.00000000       3.15890646
S        0.00000000       0.00000000       2.88424242       0.00000000       0.00000000      -3.15890646
2
Properties=species:S:1:pos:R:3:forces:R:3 energy=-2.8913474343138668 pbc="F F F"
S        0.00000000       0.00000000       0.00000000       0.00000000       0.00000000       2.73853374
S        0.00000000       0.00000000       2.94303030       0.00000000       0.00000000      -2.73853374
2
Properties=species:S:1:pos:R:3:forces:R:3 energy=-2.741834975580368 pbc="F F F"
S        0.00000000       0.00000000       0.00000000       0.00000000       0.00000000       2.35456729
S        0.00000000       0.00000000       3.00181818       0.00000000       0.00000000      -2.35456729
2
Properties=species:S:1:pos:R:3:forces:R:3 energy=-2.61372132654373 pbc="F F F"
S        0.00000000       0.00000000       0.00000000       0.00000000       0.00000000       2.01056337
S        0.00000000       0.00000000       3.06060606       0.00000000       0.00000000      -2.01056337
2
Properties=species:S:1:pos:R:3:forces:R:3 energy=-2.5046897098749796 pbc="F F F"
S        0.00000000       0.00000000       0.00000000       0.00000000       0.00000000       1.70494008
S        0.00000000       0.00000000       3.11939394       0.00000000       0.00000000      -1.70494008
2
Properties=species:S:1:pos:R:3:forces:R:3 energy=-2.4125646712656996 pbc="F F F"
S        0.00000000       0.00000000       0.00000000       0.00000000       0.00000000       1.43489468
S        0.00000000       0.00000000       3.17818182       0.00000000       0.00000000      -1.43489468
2
Properties=species:S:1:pos:R:3:forces:R:3 energy=-2.3353303963170786 pbc="F F F"
S        0.00000000       0.00000000       0.00000000       0.00000000       0.00000000       1.19804311
S        0.00000000       0.00000000       3.23696970       0.00000000       0.00000000      -1.19804311
2
Properties=species:S:1:pos:R:3:forces:R:3 energy=-2.2710858450015188 pbc="F F F"
S        0.00000000       0.00000000       0.00000000       0.00000000       0.00000000       0.99274468
S        0.00000000       0.00000000       3.29575758       0.00000000       0.00000000      -0.99274468
2
Properties=species:S:1:pos:R:3:forces:R:3 energy=-2.218011403907863 pbc="F F F"
S        0.00000000       0.00000000       0.00000000       0.00000000       0.00000000       0.81788617
S        0.00000000       0.00000000       3.35454545       0.00000000       0.00000000      -0.81788617
2
Properties=species:S:1:pos:R:3:forces:R:3 energy=-2.1743452344528147 pbc="F F F"
S        0.00000000       0.00000000       0.00000000       0.00000000       0.00000000       0.67246312
S        0.00000000       0.00000000       3.41333333       0.00000000       0.00000000      -0.67246312
2
Properties=species:S:1:pos:R:3:forces:R:3 energy=-2.1383946694554017 pbc="F F F"
S        0.00000000       0.00000000       0.00000000       0.00000000       0.00000000       0.55512244
S        0.00000000       0.00000000       3.47212121       0.00000000       0.00000000      -0.55512244
2
Properties=species:S:1:pos:R:3:forces:R:3 energy=-2.108566781400257 pbc="F F F"
S        0.00000000       0.00000000       0.00000000       0.00000000       0.00000000       0.46376470
S        0.00000000       0.00000000       3.53090909       0.00000000       0.00000000      -0.46376470
2
Properties=species:S:1:pos:R:3:forces:R:3 energy=-2.0834169406322007 pbc="F F F"
S        0.00000000       0.00000000       0.00000000       0.00000000       0.00000000       0.39536715
S        0.00000000       0.00000000       3.58969697       0.00000000       0.00000000      -0.39536715
2
Properties=species:S:1:pos:R:3:forces:R:3 energy=-2.0617061728634947 pbc="F F F"
S        0.00000000       0.00000000       0.00000000       0.00000000       0.00000000       0.34607282
S        0.00000000       0.00000000       3.64848485       0.00000000       0.00000000      -0.34607282
2
Properties=species:S:1:pos:R:3:forces:R:3 energy=-2.0424390107071213 pbc="F F F"
S        0.00000000       0.00000000       0.00000000       0.00000000       0.00000000       0.31149068
S        0.00000000       0.00000000       3.70727273       0.00000000       0.00000000      -0.31149068
2
Properties=species:S:1:pos:R:3:forces:R:3 energy=-2.024881897088802 pbc="F F F"
S        0.00000000       0.00000000       0.00000000       0.00000000       0.00000000       0.28714645
S        0.00000000       0.00000000       3.76606061       0.00000000       0.00000000      -0.28714645
2
Properties=species:S:1:pos:R:3:forces:R:3 energy=-2.008557601833282 pbc="F F F"
S        0.00000000       0.00000000       0.00000000       0.00000000       0.00000000       0.26895067
S        0.00000000       0.00000000       3.82484848       0.00000000       0.00000000      -0.26895067
2
Properties=species:S:1:pos:R:3:forces:R:3 energy=-1.9932050311266862 pbc="F F F"
S        0.00000000       0.00000000       0.00000000       0.00000000       0.00000000       0.25358981
S        0.00000000       0.00000000       3.88363636       0.00000000       0.00000000      -0.25358981
2
Properties=species:S:1:pos:R:3:forces:R:3 energy=-1.9787312994624364 pbc="F F F"
S        0.00000000       0.00000000       0.00000000       0.00000000       0.00000000       0.23878431
S        0.00000000       0.00000000       3.94242424       0.00000000       0.00000000      -0.23878431
2
Properties=species:S:1:pos:R:3:forces:R:3 energy=-1.9651425775818927 pbc="F F F"
S        0.00000000       0.00000000       0.00000000       0.00000000       0.00000000       0.22337618
S        0.00000000       0.00000000       4.00121212       0.00000000       0.00000000      -0.22337618
2
Properties=species:S:1:pos:R:3:forces:R:3 energy=-1.9524822866254783 pbc="F F F"
S        0.00000000       0.00000000       0.00000000       0.00000000       0.00000000       0.20724882
S        0.00000000       0.00000000       4.06000000       0.00000000       0.00000000      -0.20724882
2
Properties=species:S:1:pos:R:3:forces:R:3 energy=-1.940776267027179 pbc="F F F"
S        0.00000000       0.00000000       0.00000000       0.00000000       0.00000000       0.19108059
S        0.00000000       0.00000000       4.11878788       0.00000000       0.00000000      -0.19108059
2
Properties=species:S:1:pos:R:3:forces:R:3 energy=-1.9299952196687793 pbc="F F F"
S        0.00000000       0.00000000       0.00000000       0.00000000       0.00000000       0.17596506
S        0.00000000       0.00000000       4.17757576       0.00000000       0.00000000      -0.17596506
2
Properties=species:S:1:pos:R:3:forces:R:3 energy=-1.9200448942881638 pbc="F F F"
S        0.00000000       0.00000000       0.00000000       0.00000000       0.00000000       0.16297382
S        0.00000000       0.00000000       4.23636364       0.00000000       0.00000000      -0.16297382
2
Properties=species:S:1:pos:R:3:forces:R:3 energy=-1.9107783680361417 pbc="F F F"
S        0.00000000       0.00000000       0.00000000       0.00000000       0.00000000       0.15276153
S        0.00000000       0.00000000       4.29515152       0.00000000       0.00000000      -0.15276153
2
Properties=species:S:1:pos:R:3:forces:R:3 energy=-1.9020286292102704 pbc="F F F"
S        0.00000000       0.00000000       0.00000000       0.00000000       0.00000000       0.14535651
S        0.00000000       0.00000000       4.35393939       0.00000000       0.00000000      -0.14535651
2
Properties=species:S:1:pos:R:3:forces:R:3 energy=-1.8936440794483873 pbc="F F F"
S        0.00000000       0.00000000       0.00000000       0.00000000       0.00000000       0.14018944
S        0.00000000       0.00000000       4.41272727       0.00000000       0.00000000      -0.14018944
2
Properties=species:S:1:pos:R:3:forces:R:3 energy=-1.885519413270377 pbc="F F F"
S        0.00000000       0.00000000       0.00000000       0.00000000       0.00000000       0.13635474
S        0.00000000       0.00000000       4.47151515       0.00000000       0.00000000      -0.13635474
2
Properties=species:S:1:pos:R:3:forces:R:3 energy=-1.8776037148063949 pbc="F F F"
S        0.00000000       0.00000000       0.00000000       0.00000000       0.00000000       0.13295314
S        0.00000000       0.00000000       4.53030303       0.00000000       0.00000000      -0.13295314
2
Properties=species:S:1:pos:R:3:forces:R:3 energy=-1.8698914683749035 pbc="F F F"
S        0.00000000       0.00000000       0.00000000       0.00000000       0.00000000       0.12935869
S        0.00000000       0.00000000       4.58909091       0.00000000       0.00000000      -0.12935869
2
Properties=species:S:1:pos:R:3:forces:R:3 energy=-1.8624035649838542 pbc="F F F"
S        0.00000000       0.00000000       0.00000000       0.00000000       0.00000000       0.12530610
S        0.00000000       0.00000000       4.64787879       0.00000000       0.00000000      -0.12530610
2
Properties=species:S:1:pos:R:3:forces:R:3 energy=-1.8551674054667089 pbc="F F F"
S        0.00000000       0.00000000       0.00000000       0.00000000       0.00000000       0.12079939
S        0.00000000       0.00000000       4.70666667       0.00000000       0.00000000      -0.12079939
2
Properties=species:S:1:pos:R:3:forces:R:3 energy=-1.8482069732252726 pbc="F F F"
S        0.00000000       0.00000000       0.00000000       0.00000000       0.00000000       0.11595821
S        0.00000000       0.00000000       4.76545455       0.00000000       0.00000000      -0.11595821
2
Properties=species:S:1:pos:R:3:forces:R:3 energy=-1.8415377462441072 pbc="F F F"
S        0.00000000       0.00000000       0.00000000       0.00000000       0.00000000       0.11088414
S        0.00000000       0.00000000       4.82424242       0.00000000       0.00000000      -0.11088414
2
Properties=species:S:1:pos:R:3:forces:R:3 energy=-1.835173889245682 pbc="F F F"
S        0.00000000       0.00000000       0.00000000       0.00000000       0.00000000       0.10560632
S        0.00000000       0.00000000       4.88303030       0.00000000       0.00000000      -0.10560632
2
Properties=species:S:1:pos:R:3:forces:R:3 energy=-1.8291260188081826 pbc="F F F"
S        0.00000000       0.00000000       0.00000000       0.00000000       0.00000000       0.10008888
S        0.00000000       0.00000000       4.94181818       0.00000000       0.00000000      -0.10008888
2
Properties=species:S:1:pos:R:3:forces:R:3 energy=-1.8234114878345895 pbc="F F F"
S        0.00000000       0.00000000       0.00000000       0.00000000       0.00000000       0.09426699
S        0.00000000       0.00000000       5.00060606       0.00000000       0.00000000      -0.09426699
2
Properties=species:S:1:pos:R:3:forces:R:3 energy=-1.8180495494489162 pbc="F F F"
S        0.00000000       0.00000000       0.00000000       0.00000000       0.00000000       0.08806863
S        0.00000000       0.00000000       5.05939394       0.00000000       0.00000000      -0.08806863
2
Properties=species:S:1:pos:R:3:forces:R:3 energy=-1.813065275063653 pbc="F F F"
S        0.00000000       0.00000000       0.00000000       0.00000000       0.00000000       0.08143583
S        0.00000000       0.00000000       5.11818182       0.00000000       0.00000000      -0.08143583
2
Properties=species:S:1:pos:R:3:forces:R:3 energy=-1.8084841099542477 pbc="F F F"
S        0.00000000       0.00000000       0.00000000       0.00000000       0.00000000       0.07433999
S        0.00000000       0.00000000       5.17696970       0.00000000       0.00000000      -0.07433999
2
Properties=species:S:1:pos:R:3:forces:R:3 energy=-1.804333680009404 pbc="F F F"
S        0.00000000       0.00000000       0.00000000       0.00000000       0.00000000       0.06680112
S        0.00000000       0.00000000       5.23575758       0.00000000       0.00000000      -0.06680112
2
Properties=species:S:1:pos:R:3:forces:R:3 energy=-1.8006369880900657 pbc="F F F"
S        0.00000000       0.00000000       0.00000000       0.00000000       0.00000000       0.05891353
S        0.00000000       0.00000000       5.29454545       0.00000000       0.00000000      -0.05891353
2
Properties=species:S:1:pos:R:3:forces:R:3 energy=-1.7974100587500026 pbc="F F F"
S        0.00000000       0.00000000       0.00000000       0.00000000       0.00000000       0.05085733
S        0.00000000       0.00000000       5.35333333       0.00000000       0.00000000      -0.05085733
2
Properties=species:S:1:pos:R:3:forces:R:3 energy=-1.794655854602266 pbc="F F F"
S        0.00000000       0.00000000       0.00000000       0.00000000       0.00000000       0.04288683
S        0.00000000       0.00000000       5.41212121       0.00000000       0.00000000      -0.04288683
2
Properties=species:S:1:pos:R:3:forces:R:3 energy=-1.792360340828723 pbc="F F F"
S        0.00000000       0.00000000       0.00000000       0.00000000       0.00000000       0.03528757
S        0.00000000       0.00000000       5.47090909       0.00000000       0.00000000      -0.03528757
2
Properties=species:S:1:pos:R:3:forces:R:3 energy=-1.7904941651974868 pbc="F F F"
S        0.00000000       0.00000000       0.00000000       0.00000000       0.00000000       0.02832126
S        0.00000000       0.00000000       5.52969697       0.00000000       0.00000000      -0.02832126
2
Properties=species:S:1:pos:R:3:forces:R:3 energy=-1.789014327586938 pbc="F F F"
S        0.00000000       0.00000000       0.00000000       0.00000000       0.00000000       0.02217106
S        0.00000000       0.00000000       5.58848485       0.00000000       0.00000000      -0.02217106
2
Properties=species:S:1:pos:R:3:forces:R:3 energy=-1.7878703747110132 pbc="F F F"
S        0.00000000       0.00000000       0.00000000       0.00000000       0.00000000       0.01692117
S        0.00000000       0.00000000       5.64727273       0.00000000       0.00000000      -0.01692117
2
Properties=species:S:1:pos:R:3:forces:R:3 energy=-1.7870078548127373 pbc="F F F"
S        0.00000000       0.00000000       0.00000000       0.00000000       0.00000000       0.01255634
S        0.00000000       0.00000000       5.70606061       0.00000000       0.00000000      -0.01255634
2
Properties=species:S:1:pos:R:3:forces:R:3 energy=-1.7863767888493691 pbc="F F F"
S        0.00000000       0.00000000       0.00000000       0.00000000       0.00000000       0.00900892
S        0.00000000       0.00000000       5.76484848       0.00000000       0.00000000      -0.00900892
2
Properties=species:S:1:pos:R:3:forces:R:3 energy=-1.7859333299189886 pbc="F F F"
S        0.00000000       0.00000000       0.00000000       0.00000000       0.00000000       0.00620183
S        0.00000000       0.00000000       5.82363636       0.00000000       0.00000000      -0.00620183
2
Properties=species:S:1:pos:R:3:forces:R:3 energy=-1.7856347550844138 pbc="F F F"
S        0.00000000       0.00000000       0.00000000       0.00000000       0.00000000       0.00409187
S        0.00000000       0.00000000       5.88242424       0.00000000       0.00000000      -0.00409187
2
Properties=species:S:1:pos:R:3:forces:R:3 energy=-1.7854385134807849 pbc="F F F"
S        0.00000000       0.00000000       0.00000000       0.00000000       0.00000000       0.00269789
S        0.00000000       0.00000000       5.94121212       0.00000000       0.00000000      -0.00269789
2
Properties=species:S:1:pos:R:3:forces:R:3 energy=-1.785301504328204 pbc="F F F"
S        0.00000000       0.00000000       0.00000000       0.00000000       0.00000000       0.00211222
S        0.00000000       0.00000000       6.00000000       0.00000000       0.00000000      -0.00211222
