2
Properties=species:S:1:pos:R:3:forces:R:3 energy=14159.114693475292 pbc="F F F"
Tm       0.00000000       0.00000000       0.00000000       0.00000000       0.00000000 -246270.25000000
Tm       0.00000000       0.00000000       0.18000000       0.00000000       0.00000000  246270.25000000
2
Properties=species:S:1:pos:R:3:forces:R:3 energy=5530.457955194042 pbc="F F F"
Tm       0.00000000       0.00000000       0.00000000       0.00000000       0.00000000  -81955.92968750
Tm       0.00000000       0.00000000       0.23878788       0.00000000       0.00000000   81955.92968750
2
Properties=species:S:1:pos:R:3:forces:R:3 energy=2435.4240196471674 pbc="F F F"
Tm       0.00000000       0.00000000       0.00000000       0.00000000       0.00000000  -32098.51562500
Tm       0.00000000       0.00000000       0.29757576       0.00000000       0.00000000   32098.51562500
2
Properties=species:S:1:pos:R:3:forces:R:3 energy=1165.4535606627924 pbc="F F F"
Tm       0.00000000       0.00000000       0.00000000       0.00000000       0.00000000  -13909.22070312
Tm       0.00000000       0.00000000       0.35636364       0.00000000       0.00000000   13909.22070312
2
Properties=species:S:1:pos:R:3:forces:R:3 energy=596.7297447574949 pbc="F F F"
Tm       0.00000000       0.00000000       0.00000000       0.00000000       0.00000000   -6478.21484375
Tm       0.00000000       0.00000000       0.41515152       0.00000000       0.00000000    6478.21484375
2
Properties=species:S:1:pos:R:3:forces:R:3 energy=324.77134021647936 pbc="F F F"
Tm       0.00000000       0.00000000       0.00000000       0.00000000       0.00000000   -3197.85205078
Tm       0.00000000       0.00000000       0.47393939       0.00000000       0.00000000    3197.85205078
2
Properties=species:S:1:pos:R:3:forces:R:3 energy=187.4339531441897 pbc="F F F"
Tm       0.00000000       0.00000000       0.00000000       0.00000000       0.00000000   -1659.54223633
Tm       0.00000000       0.00000000       0.53272727       0.00000000       0.00000000    1659.54223633
2
Properties=species:S:1:pos:R:3:forces:R:3 energy=114.72170342634419 pbc="F F F"
Tm       0.00000000       0.00000000       0.00000000       0.00000000       0.00000000    -899.54583740
Tm       0.00000000       0.00000000       0.59151515       0.00000000       0.00000000     899.54583740
2
Properties=species:S:1:pos:R:3:forces:R:3 energy=74.62541287597915 pbc="F F F"
Tm       0.00000000       0.00000000       0.00000000       0.00000000       0.00000000    -505.88525391
Tm       0.00000000       0.00000000       0.65030303       0.00000000       0.00000000     505.88525391
2
Properties=species:S:1:pos:R:3:forces:R:3 energy=51.757500659526414 pbc="F F F"
Tm       0.00000000       0.00000000       0.00000000       0.00000000       0.00000000    -293.04943848
Tm       0.00000000       0.00000000       0.70909091       0.00000000       0.00000000     293.04943848
2
Properties=species:S:1:pos:R:3:forces:R:3 energy=38.36470138345532 pbc="F F F"
Tm       0.00000000       0.00000000       0.00000000       0.00000000       0.00000000    -173.71540833
Tm       0.00000000       0.00000000       0.76787879       0.00000000       0.00000000     173.71540833
2
Properties=species:S:1:pos:R:3:forces:R:3 energy=30.350692059802775 pbc="F F F"
Tm       0.00000000       0.00000000       0.00000000       0.00000000       0.00000000    -105.15666199
Tm       0.00000000       0.00000000       0.82666667       0.00000000       0.00000000     105.15666199
2
Properties=species:S:1:pos:R:3:forces:R:3 energy=25.43569518705589 pbc="F F F"
Tm       0.00000000       0.00000000       0.00000000       0.00000000       0.00000000     -65.76123047
Tm       0.00000000       0.00000000       0.88545455       0.00000000       0.00000000      65.76123047
2
Properties=species:S:1:pos:R:3:forces:R:3 energy=22.271467051835764 pbc="F F F"
Tm       0.00000000       0.00000000       0.00000000       0.00000000       0.00000000     -44.24940491
Tm       0.00000000       0.00000000       0.94424242       0.00000000       0.00000000      44.24940491
2
Properties=species:S:1:pos:R:3:forces:R:3 energy=20.0052626486752 pbc="F F F"
Tm       0.00000000       0.00000000       0.00000000       0.00000000       0.00000000     -34.43720245
Tm       0.00000000       0.00000000       1.00303030       0.00000000       0.00000000      34.43720245
2
Properties=species:S:1:pos:R:3:forces:R:3 energy=18.068180940905062 pbc="F F F"
Tm       0.00000000       0.00000000       0.00000000       0.00000000       0.00000000     -32.52963638
Tm       0.00000000       0.00000000       1.06181818       0.00000000       0.00000000      32.52963638
2
Properties=species:S:1:pos:R:3:forces:R:3 energy=16.081227978502103 pbc="F F F"
Tm       0.00000000       0.00000000       0.00000000       0.00000000       0.00000000     -35.69814301
Tm       0.00000000       0.00000000       1.12060606       0.00000000       0.00000000      35.69814301
2
Properties=species:S:1:pos:R:3:forces:R:3 energy=13.821606418352651 pbc="F F F"
Tm       0.00000000       0.00000000       0.00000000       0.00000000       0.00000000     -41.38118362
Tm       0.00000000       0.00000000       1.17939394       0.00000000       0.00000000      41.38118362
2
Properties=species:S:1:pos:R:3:forces:R:3 energy=11.216929569503677 pbc="F F F"
Tm       0.00000000       0.00000000       0.00000000       0.00000000       0.00000000     -47.01231766
Tm       0.00000000       0.00000000       1.23818182       0.00000000       0.00000000      47.01231766
2
Properties=species:S:1:pos:R:3:forces:R:3 energy=8.341739553576174 pbc="F F F"
Tm       0.00000000       0.00000000       0.00000000       0.00000000       0.00000000     -50.22984314
Tm       0.00000000       0.00000000       1.29696970       0.00000000       0.00000000      50.22984314
2
Properties=species:S:1:pos:R:3:forces:R:3 energy=5.396377181759836 pbc="F F F"
Tm       0.00000000       0.00000000       0.00000000       0.00000000       0.00000000     -49.10673904
Tm       0.00000000       0.00000000       1.35575758       0.00000000       0.00000000      49.10673904
2
Properties=species:S:1:pos:R:3:forces:R:3 energy=2.679054606816574 pbc="F F F"
Tm       0.00000000       0.00000000       0.00000000       0.00000000       0.00000000     -42.41408539
Tm       0.00000000       0.00000000       1.41454545       0.00000000       0.00000000      42.41408539
2
Properties=species:S:1:pos:R:3:forces:R:3 energy=0.49400675818220474 pbc="F F F"
Tm       0.00000000       0.00000000       0.00000000       0.00000000       0.00000000     -31.48613548
Tm       0.00000000       0.00000000       1.47333333       0.00000000       0.00000000      31.48613548
2
Properties=species:S:1:pos:R:3:forces:R:3 energy=-0.9987210219641119 pbc="F F F"
Tm       0.00000000       0.00000000       0.00000000       0.00000000       0.00000000     -19.20689583
Tm       0.00000000       0.00000000       1.53212121       0.00000000       0.00000000      19.20689583
2
Properties=species:S:1:pos:R:3:forces:R:3 energy=-1.7561991452898875 pbc="F F F"
Tm       0.00000000       0.00000000       0.00000000       0.00000000       0.00000000      -6.58300114
Tm       0.00000000       0.00000000       1.59090909       0.00000000       0.00000000       6.58300114
2
Properties=species:S:1:pos:R:3:forces:R:3 energy=-1.809312560104344 pbc="F F F"
Tm       0.00000000       0.00000000       0.00000000       0.00000000       0.00000000       4.09868956
Tm       0.00000000       0.00000000       1.64969697       0.00000000       0.00000000      -4.09868956
2
Properties=species:S:1:pos:R:3:forces:R:3 energy=-1.383805408721898 pbc="F F F"
Tm       0.00000000       0.00000000       0.00000000       0.00000000       0.00000000       9.36562443
Tm       0.00000000       0.00000000       1.70848485       0.00000000       0.00000000      -9.36562443
2
Properties=species:S:1:pos:R:3:forces:R:3 energy=-0.809929037575651 pbc="F F F"
Tm       0.00000000       0.00000000       0.00000000       0.00000000       0.00000000       9.51513577
Tm       0.00000000       0.00000000       1.76727273       0.00000000       0.00000000      -9.51513577
2
Properties=species:S:1:pos:R:3:forces:R:3 energy=-0.3131273566324879 pbc="F F F"
Tm       0.00000000       0.00000000       0.00000000       0.00000000       0.00000000       7.17825031
Tm       0.00000000       0.00000000       1.82606061       0.00000000       0.00000000      -7.17825031
2
Properties=species:S:1:pos:R:3:forces:R:3 energy=0.025889940627455407 pbc="F F F"
Tm       0.00000000       0.00000000       0.00000000       0.00000000       0.00000000       4.38717747
Tm       0.00000000       0.00000000       1.88484848       0.00000000       0.00000000      -4.38717747
2
Properties=species:S:1:pos:R:3:forces:R:3 energy=0.2131870368513296 pbc="F F F"
Tm       0.00000000       0.00000000       0.00000000       0.00000000       0.00000000       2.10815740
Tm       0.00000000       0.00000000       1.94363636       0.00000000       0.00000000      -2.10815740
2
Properties=species:S:1:pos:R:3:forces:R:3 energy=0.28887700800486893 pbc="F F F"
Tm       0.00000000       0.00000000       0.00000000       0.00000000       0.00000000       0.58596838
Tm       0.00000000       0.00000000       2.00242424       0.00000000       0.00000000      -0.58596838
2
Properties=species:S:1:pos:R:3:forces:R:3 energy=0.29342340536508715 pbc="F F F"
Tm       0.00000000       0.00000000       0.00000000       0.00000000       0.00000000      -0.36007720
Tm       0.00000000       0.00000000       2.06121212       0.00000000       0.00000000       0.36007720
2
Properties=species:S:1:pos:R:3:forces:R:3 energy=0.25233152151725363 pbc="F F F"
Tm       0.00000000       0.00000000       0.00000000       0.00000000       0.00000000      -1.00592399
Tm       0.00000000       0.00000000       2.12000000       0.00000000       0.00000000       1.00592399
2
Properties=species:S:1:pos:R:3:forces:R:3 energy=0.17772664907261232 pbc="F F F"
Tm       0.00000000       0.00000000       0.00000000       0.00000000       0.00000000      -1.51660275
Tm       0.00000000       0.00000000       2.17878788       0.00000000       0.00000000       1.51660275
2
Properties=species:S:1:pos:R:3:forces:R:3 energy=0.07552897711193103 pbc="F F F"
Tm       0.00000000       0.00000000       0.00000000       0.00000000       0.00000000      -1.94869173
Tm       0.00000000       0.00000000       2.23757576       0.00000000       0.00000000       1.94869173
2
Properties=species:S:1:pos:R:3:forces:R:3 energy=-0.05007092178560514 pbc="F F F"
Tm       0.00000000       0.00000000       0.00000000       0.00000000       0.00000000      -2.31297445
Tm       0.00000000       0.00000000       2.29636364       0.00000000       0.00000000       2.31297445
2
Properties=species:S:1:pos:R:3:forces:R:3 energy=-0.19504583048930849 pbc="F F F"
Tm       0.00000000       0.00000000       0.00000000       0.00000000       0.00000000      -2.60696292
Tm       0.00000000       0.00000000       2.35515152       0.00000000       0.00000000       2.60696292
2
Properties=species:S:1:pos:R:3:forces:R:3 energy=-0.35506786515741223 pbc="F F F"
Tm       0.00000000       0.00000000       0.00000000       0.00000000       0.00000000      -2.82341623
Tm       0.00000000       0.00000000       2.41393939       0.00000000       0.00000000       2.82341623
2
Properties=species:S:1:pos:R:3:forces:R:3 energy=-0.5253209850751314 pbc="F F F"
Tm       0.00000000       0.00000000       0.00000000       0.00000000       0.00000000      -2.95371962
Tm       0.00000000       0.00000000       2.47272727       0.00000000       0.00000000       2.95371962
2
Properties=species:S:1:pos:R:3:forces:R:3 energy=-0.700547300295961 pbc="F F F"
Tm       0.00000000       0.00000000       0.00000000       0.00000000       0.00000000      -2.99211884
Tm       0.00000000       0.00000000       2.53151515       0.00000000       0.00000000       2.99211884
2
Properties=species:S:1:pos:R:3:forces:R:3 energy=-0.8753377515309041 pbc="F F F"
Tm       0.00000000       0.00000000       0.00000000       0.00000000       0.00000000      -2.93975425
Tm       0.00000000       0.00000000       2.59030303       0.00000000       0.00000000       2.93975425
2
Properties=species:S:1:pos:R:3:forces:R:3 energy=-1.0445956212088225 pbc="F F F"
Tm       0.00000000       0.00000000       0.00000000       0.00000000       0.00000000      -2.80611420
Tm       0.00000000       0.00000000       2.64909091       0.00000000       0.00000000       2.80611420
2
Properties=species:S:1:pos:R:3:forces:R:3 energy=-1.203980345201689 pbc="F F F"
Tm       0.00000000       0.00000000       0.00000000       0.00000000       0.00000000      -2.60677600
Tm       0.00000000       0.00000000       2.70787879       0.00000000       0.00000000       2.60677600
2
Properties=species:S:1:pos:R:3:forces:R:3 energy=-1.3501403248152817 pbc="F F F"
Tm       0.00000000       0.00000000       0.00000000       0.00000000       0.00000000      -2.35893893
Tm       0.00000000       0.00000000       2.76666667       0.00000000       0.00000000       2.35893893
2
Properties=species:S:1:pos:R:3:forces:R:3 energy=-1.4806828048527938 pbc="F F F"
Tm       0.00000000       0.00000000       0.00000000       0.00000000       0.00000000      -2.07781315
Tm       0.00000000       0.00000000       2.82545455       0.00000000       0.00000000       2.07781315
2
Properties=species:S:1:pos:R:3:forces:R:3 energy=-1.5940304268256382 pbc="F F F"
Tm       0.00000000       0.00000000       0.00000000       0.00000000       0.00000000      -1.77567267
Tm       0.00000000       0.00000000       2.88424242       0.00000000       0.00000000       1.77567267
2
Properties=species:S:1:pos:R:3:forces:R:3 energy=-1.6892519465945928 pbc="F F F"
Tm       0.00000000       0.00000000       0.00000000       0.00000000       0.00000000      -1.46290624
Tm       0.00000000       0.00000000       2.94303030       0.00000000       0.00000000       1.46290624
2
Properties=species:S:1:pos:R:3:forces:R:3 energy=-1.7660086131961759 pbc="F F F"
Tm       0.00000000       0.00000000       0.00000000       0.00000000       0.00000000      -1.14896190
Tm       0.00000000       0.00000000       3.00181818       0.00000000       0.00000000       1.14896190
2
Properties=species:S:1:pos:R:3:forces:R:3 energy=-1.8244829398762459 pbc="F F F"
Tm       0.00000000       0.00000000       0.00000000       0.00000000       0.00000000      -0.84208435
Tm       0.00000000       0.00000000       3.06060606       0.00000000       0.00000000       0.84208435
2
Properties=species:S:1:pos:R:3:forces:R:3 energy=-1.865274828449292 pbc="F F F"
Tm       0.00000000       0.00000000       0.00000000       0.00000000       0.00000000      -0.54823434
Tm       0.00000000       0.00000000       3.11939394       0.00000000       0.00000000       0.54823434
2
Properties=species:S:1:pos:R:3:forces:R:3 energy=-1.8892581973690181 pbc="F F F"
Tm       0.00000000       0.00000000       0.00000000       0.00000000       0.00000000      -0.27051443
Tm       0.00000000       0.00000000       3.17818182       0.00000000       0.00000000       0.27051443
2
Properties=species:S:1:pos:R:3:forces:R:3 energy=-1.8974201695646924 pbc="F F F"
Tm       0.00000000       0.00000000       0.00000000       0.00000000       0.00000000      -0.01007898
Tm       0.00000000       0.00000000       3.23696970       0.00000000       0.00000000       0.01007898
2
Properties=species:S:1:pos:R:3:forces:R:3 energy=-1.8908034425011855 pbc="F F F"
Tm       0.00000000       0.00000000       0.00000000       0.00000000       0.00000000       0.23193134
Tm       0.00000000       0.00000000       3.29575758       0.00000000       0.00000000      -0.23193134
2
Properties=species:S:1:pos:R:3:forces:R:3 energy=-1.8705677961726404 pbc="F F F"
Tm       0.00000000       0.00000000       0.00000000       0.00000000       0.00000000       0.45256376
Tm       0.00000000       0.00000000       3.35454545       0.00000000       0.00000000      -0.45256376
2
Properties=species:S:1:pos:R:3:forces:R:3 energy=-1.8381174126234523 pbc="F F F"
Tm       0.00000000       0.00000000       0.00000000       0.00000000       0.00000000       0.64637959
Tm       0.00000000       0.00000000       3.41333333       0.00000000       0.00000000      -0.64637959
2
Properties=species:S:1:pos:R:3:forces:R:3 energy=-1.7952334073359315 pbc="F F F"
Tm       0.00000000       0.00000000       0.00000000       0.00000000       0.00000000       0.80628163
Tm       0.00000000       0.00000000       3.47212121       0.00000000       0.00000000      -0.80628163
2
Properties=species:S:1:pos:R:3:forces:R:3 energy=-1.7441188333209552 pbc="F F F"
Tm       0.00000000       0.00000000       0.00000000       0.00000000       0.00000000       0.92545569
Tm       0.00000000       0.00000000       3.53090909       0.00000000       0.00000000      -0.92545569
2
Properties=species:S:1:pos:R:3:forces:R:3 energy=-1.6873060860102558 pbc="F F F"
Tm       0.00000000       0.00000000       0.00000000       0.00000000       0.00000000       0.99970633
Tm       0.00000000       0.00000000       3.58969697       0.00000000       0.00000000      -0.99970633
2
Properties=species:S:1:pos:R:3:forces:R:3 energy=-1.627453998710221 pbc="F F F"
Tm       0.00000000       0.00000000       0.00000000       0.00000000       0.00000000       1.02938247
Tm       0.00000000       0.00000000       3.64848485       0.00000000       0.00000000      -1.02938247
2
Properties=species:S:1:pos:R:3:forces:R:3 energy=-1.5670400102021482 pbc="F F F"
Tm       0.00000000       0.00000000       0.00000000       0.00000000       0.00000000       1.02021670
Tm       0.00000000       0.00000000       3.70727273       0.00000000       0.00000000      -1.02021670
2
Properties=species:S:1:pos:R:3:forces:R:3 energy=-1.5080607576923073 pbc="F F F"
Tm       0.00000000       0.00000000       0.00000000       0.00000000       0.00000000       0.98256105
Tm       0.00000000       0.00000000       3.76606061       0.00000000       0.00000000      -0.98256105
2
Properties=species:S:1:pos:R:3:forces:R:3 energy=-1.4518237283161228 pbc="F F F"
Tm       0.00000000       0.00000000       0.00000000       0.00000000       0.00000000       0.92911142
Tm       0.00000000       0.00000000       3.82484848       0.00000000       0.00000000      -0.92911142
2
Properties=species:S:1:pos:R:3:forces:R:3 energy=-1.3988917721336385 pbc="F F F"
Tm       0.00000000       0.00000000       0.00000000       0.00000000       0.00000000       0.87187493
Tm       0.00000000       0.00000000       3.88363636       0.00000000       0.00000000      -0.87187493
2
Properties=species:S:1:pos:R:3:forces:R:3 energy=-1.349210944005118 pbc="F F F"
Tm       0.00000000       0.00000000       0.00000000       0.00000000       0.00000000       0.81965184
Tm       0.00000000       0.00000000       3.94242424       0.00000000       0.00000000      -0.81965184
2
Properties=species:S:1:pos:R:3:forces:R:3 energy=-1.3023336265351708 pbc="F F F"
Tm       0.00000000       0.00000000       0.00000000       0.00000000       0.00000000       0.77688271
Tm       0.00000000       0.00000000       4.00121212       0.00000000       0.00000000      -0.77688271
2
Properties=species:S:1:pos:R:3:forces:R:3 energy=-1.257672100902914 pbc="F F F"
Tm       0.00000000       0.00000000       0.00000000       0.00000000       0.00000000       0.74405545
Tm       0.00000000       0.00000000       4.06000000       0.00000000       0.00000000      -0.74405545
2
Properties=species:S:1:pos:R:3:forces:R:3 energy=-1.214696585170139 pbc="F F F"
Tm       0.00000000       0.00000000       0.00000000       0.00000000       0.00000000       0.71907538
Tm       0.00000000       0.00000000       4.11878788       0.00000000       0.00000000      -0.71907538
2
Properties=species:S:1:pos:R:3:forces:R:3 energy=-1.1730333878761214 pbc="F F F"
Tm       0.00000000       0.00000000       0.00000000       0.00000000       0.00000000       0.69882810
Tm       0.00000000       0.00000000       4.17757576       0.00000000       0.00000000      -0.69882810
2
Properties=species:S:1:pos:R:3:forces:R:3 energy=-1.1324957020481903 pbc="F F F"
Tm       0.00000000       0.00000000       0.00000000       0.00000000       0.00000000       0.68037087
Tm       0.00000000       0.00000000       4.23636364       0.00000000       0.00000000      -0.68037087
2
Properties=species:S:1:pos:R:3:forces:R:3 energy=-1.0930447999941344 pbc="F F F"
Tm       0.00000000       0.00000000       0.00000000       0.00000000       0.00000000       0.66156697
Tm       0.00000000       0.00000000       4.29515152       0.00000000       0.00000000      -0.66156697
2
Properties=species:S:1:pos:R:3:forces:R:3 energy=-1.0547417915537987 pbc="F F F"
Tm       0.00000000       0.00000000       0.00000000       0.00000000       0.00000000       0.64128095
Tm       0.00000000       0.00000000       4.35393939       0.00000000       0.00000000      -0.64128095
2
Properties=species:S:1:pos:R:3:forces:R:3 energy=-1.0176811053155161 pbc="F F F"
Tm       0.00000000       0.00000000       0.00000000       0.00000000       0.00000000       0.61926639
Tm       0.00000000       0.00000000       4.41272727       0.00000000       0.00000000      -0.61926639
2
Properties=species:S:1:pos:R:3:forces:R:3 energy=-0.9819564022628918 pbc="F F F"
Tm       0.00000000       0.00000000       0.00000000       0.00000000       0.00000000       0.59594226
Tm       0.00000000       0.00000000       4.47151515       0.00000000       0.00000000      -0.59594226
2
Properties=species:S:1:pos:R:3:forces:R:3 energy=-0.9476228676254392 pbc="F F F"
Tm       0.00000000       0.00000000       0.00000000       0.00000000       0.00000000       0.57207638
Tm       0.00000000       0.00000000       4.53030303       0.00000000       0.00000000      -0.57207638
2
Properties=species:S:1:pos:R:3:forces:R:3 energy=-0.9146898426613594 pbc="F F F"
Tm       0.00000000       0.00000000       0.00000000       0.00000000       0.00000000       0.54843175
Tm       0.00000000       0.00000000       4.58909091       0.00000000       0.00000000      -0.54843175
2
Properties=species:S:1:pos:R:3:forces:R:3 energy=-0.8831272593753304 pbc="F F F"
Tm       0.00000000       0.00000000       0.00000000       0.00000000       0.00000000       0.52548665
Tm       0.00000000       0.00000000       4.64787879       0.00000000       0.00000000      -0.52548665
2
Properties=species:S:1:pos:R:3:forces:R:3 energy=-0.8528906960600919 pbc="F F F"
Tm       0.00000000       0.00000000       0.00000000       0.00000000       0.00000000       0.50324917
Tm       0.00000000       0.00000000       4.70666667       0.00000000       0.00000000      -0.50324917
2
Properties=species:S:1:pos:R:3:forces:R:3 energy=-0.8239518859550801 pbc="F F F"
Tm       0.00000000       0.00000000       0.00000000       0.00000000       0.00000000       0.48129454
Tm       0.00000000       0.00000000       4.76545455       0.00000000       0.00000000      -0.48129454
2
Properties=species:S:1:pos:R:3:forces:R:3 energy=-0.7963086217049025 pbc="F F F"
Tm       0.00000000       0.00000000       0.00000000       0.00000000       0.00000000       0.45895800
Tm       0.00000000       0.00000000       4.82424242       0.00000000       0.00000000      -0.45895800
2
Properties=species:S:1:pos:R:3:forces:R:3 energy=-0.7700103283357927 pbc="F F F"
Tm       0.00000000       0.00000000       0.00000000       0.00000000       0.00000000       0.43561170
Tm       0.00000000       0.00000000       4.88303030       0.00000000       0.00000000      -0.43561170
2
Properties=species:S:1:pos:R:3:forces:R:3 energy=-0.7451196461861542 pbc="F F F"
Tm       0.00000000       0.00000000       0.00000000       0.00000000       0.00000000       0.41088372
Tm       0.00000000       0.00000000       4.94181818       0.00000000       0.00000000      -0.41088372
2
Properties=species:S:1:pos:R:3:forces:R:3 energy=-0.7217256948159212 pbc="F F F"
Tm       0.00000000       0.00000000       0.00000000       0.00000000       0.00000000       0.38480589
Tm       0.00000000       0.00000000       5.00060606       0.00000000       0.00000000      -0.38480589
2
Properties=species:S:1:pos:R:3:forces:R:3 energy=-0.6998947266963292 pbc="F F F"
Tm       0.00000000       0.00000000       0.00000000       0.00000000       0.00000000       0.35771951
Tm       0.00000000       0.00000000       5.05939394       0.00000000       0.00000000      -0.35771951
2
Properties=species:S:1:pos:R:3:forces:R:3 energy=-0.6796758227452844 pbc="F F F"
Tm       0.00000000       0.00000000       0.00000000       0.00000000       0.00000000       0.33014923
Tm       0.00000000       0.00000000       5.11818182       0.00000000       0.00000000      -0.33014923
2
Properties=species:S:1:pos:R:3:forces:R:3 energy=-0.661077865927547 pbc="F F F"
Tm       0.00000000       0.00000000       0.00000000       0.00000000       0.00000000       0.30260062
Tm       0.00000000       0.00000000       5.17696970       0.00000000       0.00000000      -0.30260062
2
Properties=species:S:1:pos:R:3:forces:R:3 energy=-0.6440899107881104 pbc="F F F"
Tm       0.00000000       0.00000000       0.00000000       0.00000000       0.00000000       0.27544916
Tm       0.00000000       0.00000000       5.23575758       0.00000000       0.00000000      -0.27544916
2
Properties=species:S:1:pos:R:3:forces:R:3 energy=-0.6286809363620728 pbc="F F F"
Tm       0.00000000       0.00000000       0.00000000       0.00000000       0.00000000       0.24886920
Tm       0.00000000       0.00000000       5.29454545       0.00000000       0.00000000      -0.24886920
2
Properties=species:S:1:pos:R:3:forces:R:3 energy=-0.6148161752634602 pbc="F F F"
Tm       0.00000000       0.00000000       0.00000000       0.00000000       0.00000000       0.22290581
Tm       0.00000000       0.00000000       5.35333333       0.00000000       0.00000000      -0.22290581
2
Properties=species:S:1:pos:R:3:forces:R:3 energy=-0.602461423058631 pbc="F F F"
Tm       0.00000000       0.00000000       0.00000000       0.00000000       0.00000000       0.19754086
Tm       0.00000000       0.00000000       5.41212121       0.00000000       0.00000000      -0.19754086
2
Properties=species:S:1:pos:R:3:forces:R:3 energy=-0.5915781647725867 pbc="F F F"
Tm       0.00000000       0.00000000       0.00000000       0.00000000       0.00000000       0.17279430
Tm       0.00000000       0.00000000       5.47090909       0.00000000       0.00000000      -0.17279430
2
Properties=species:S:1:pos:R:3:forces:R:3 energy=-0.5821290458450027 pbc="F F F"
Tm       0.00000000       0.00000000       0.00000000       0.00000000       0.00000000       0.14879446
Tm       0.00000000       0.00000000       5.52969697       0.00000000       0.00000000      -0.14879446
2
Properties=species:S:1:pos:R:3:forces:R:3 energy=-0.5740640527721311 pbc="F F F"
Tm       0.00000000       0.00000000       0.00000000       0.00000000       0.00000000       0.12578642
Tm       0.00000000       0.00000000       5.58848485       0.00000000       0.00000000      -0.12578642
2
Properties=species:S:1:pos:R:3:forces:R:3 energy=-0.5673155267394665 pbc="F F F"
Tm       0.00000000       0.00000000       0.00000000       0.00000000       0.00000000       0.10416400
Tm       0.00000000       0.00000000       5.64727273       0.00000000       0.00000000      -0.10416400
2
Properties=species:S:1:pos:R:3:forces:R:3 energy=-0.5617823272091921 pbc="F F F"
Tm       0.00000000       0.00000000       0.00000000       0.00000000       0.00000000       0.08438319
Tm       0.00000000       0.00000000       5.70606061       0.00000000       0.00000000      -0.08438319
2
Properties=species:S:1:pos:R:3:forces:R:3 energy=-0.557341875226247 pbc="F F F"
Tm       0.00000000       0.00000000       0.00000000       0.00000000       0.00000000       0.06696246
Tm       0.00000000       0.00000000       5.76484848       0.00000000       0.00000000      -0.06696246
2
Properties=species:S:1:pos:R:3:forces:R:3 energy=-0.5538486557986103 pbc="F F F"
Tm       0.00000000       0.00000000       0.00000000       0.00000000       0.00000000       0.05243564
Tm       0.00000000       0.00000000       5.82363636       0.00000000       0.00000000      -0.05243564
2
Properties=species:S:1:pos:R:3:forces:R:3 energy=-0.5511142719320804 pbc="F F F"
Tm       0.00000000       0.00000000       0.00000000       0.00000000       0.00000000       0.04130337
Tm       0.00000000       0.00000000       5.88242424       0.00000000       0.00000000      -0.04130337
2
Properties=species:S:1:pos:R:3:forces:R:3 energy=-0.5489186382161797 pbc="F F F"
Tm       0.00000000       0.00000000       0.00000000       0.00000000       0.00000000       0.03401454
Tm       0.00000000       0.00000000       5.94121212       0.00000000       0.00000000      -0.03401454
2
Properties=species:S:1:pos:R:3:forces:R:3 energy=-0.5470303676125388 pbc="F F F"
Tm       0.00000000       0.00000000       0.00000000       0.00000000       0.00000000       0.03099215
Tm       0.00000000       0.00000000       6.00000000       0.00000000       0.00000000      -0.03099215
