2
Properties=species:S:1:pos:R:3:forces:R:3 energy=6488.733496074198 pbc="F F F"
Y        0.00000000       0.00000000       0.00000000       0.00000000       0.00000000 -104047.29687500
Y        0.00000000       0.00000000       0.18000000       0.00000000       0.00000000  104047.29687500
2
Properties=species:S:1:pos:R:3:forces:R:3 energy=2756.7862304491987 pbc="F F F"
Y        0.00000000       0.00000000       0.00000000       0.00000000       0.00000000  -36633.67578125
Y        0.00000000       0.00000000       0.23878788       0.00000000       0.00000000   36633.67578125
2
Properties=species:S:1:pos:R:3:forces:R:3 energy=1339.2608398241985 pbc="F F F"
Y        0.00000000       0.00000000       0.00000000       0.00000000       0.00000000  -15202.93261719
Y        0.00000000       0.00000000       0.29757576       0.00000000       0.00000000   15202.93261719
2
Properties=species:S:1:pos:R:3:forces:R:3 energy=721.9128173759324 pbc="F F F"
Y        0.00000000       0.00000000       0.00000000       0.00000000       0.00000000   -6996.14550781
Y        0.00000000       0.00000000       0.35636364       0.00000000       0.00000000    6996.14550781
2
Properties=species:S:1:pos:R:3:forces:R:3 energy=428.27313842085425 pbc="F F F"
Y        0.00000000       0.00000000       0.00000000       0.00000000       0.00000000   -3456.85131836
Y        0.00000000       0.00000000       0.41515152       0.00000000       0.00000000    3456.85131836
2
Properties=species:S:1:pos:R:3:forces:R:3 energy=279.4217285087449 pbc="F F F"
Y        0.00000000       0.00000000       0.00000000       0.00000000       0.00000000   -1806.40051270
Y        0.00000000       0.00000000       0.47393939       0.00000000       0.00000000    1806.40051270
2
Properties=species:S:1:pos:R:3:forces:R:3 energy=199.8020538451346 pbc="F F F"
Y        0.00000000       0.00000000       0.00000000       0.00000000       0.00000000    -994.65393066
Y        0.00000000       0.00000000       0.53272727       0.00000000       0.00000000     994.65393066
2
Properties=species:S:1:pos:R:3:forces:R:3 energy=154.80681461266468 pbc="F F F"
Y        0.00000000       0.00000000       0.00000000       0.00000000       0.00000000    -581.52905273
Y        0.00000000       0.00000000       0.59151515       0.00000000       0.00000000     581.52905273
2
Properties=species:S:1:pos:R:3:forces:R:3 energy=127.55508278445559 pbc="F F F"
Y        0.00000000       0.00000000       0.00000000       0.00000000       0.00000000    -369.27645874
Y        0.00000000       0.00000000       0.65030303       0.00000000       0.00000000     369.27645874
2
Properties=species:S:1:pos:R:3:forces:R:3 energy=109.30899672720656 pbc="F F F"
Y        0.00000000       0.00000000       0.00000000       0.00000000       0.00000000    -264.62649536
Y        0.00000000       0.00000000       0.70909091       0.00000000       0.00000000     264.62649536
2
Properties=species:S:1:pos:R:3:forces:R:3 energy=95.2469774740967 pbc="F F F"
Y        0.00000000       0.00000000       0.00000000       0.00000000       0.00000000    -221.58068848
Y        0.00000000       0.00000000       0.76787879       0.00000000       0.00000000     221.58068848
2
Properties=species:S:1:pos:R:3:forces:R:3 energy=82.54070167987511 pbc="F F F"
Y        0.00000000       0.00000000       0.00000000       0.00000000       0.00000000    -215.32327271
Y        0.00000000       0.00000000       0.82666667       0.00000000       0.00000000     215.32327271
2
Properties=species:S:1:pos:R:3:forces:R:3 energy=69.5337591335923 pbc="F F F"
Y        0.00000000       0.00000000       0.00000000       0.00000000       0.00000000    -229.41842651
Y        0.00000000       0.00000000       0.88545455       0.00000000       0.00000000     229.41842651
2
Properties=species:S:1:pos:R:3:forces:R:3 energy=55.37644893919209 pbc="F F F"
Y        0.00000000       0.00000000       0.00000000       0.00000000       0.00000000    -253.60635376
Y        0.00000000       0.00000000       0.94424242       0.00000000       0.00000000     253.60635376
2
Properties=species:S:1:pos:R:3:forces:R:3 energy=39.904388181111116 pbc="F F F"
Y        0.00000000       0.00000000       0.00000000       0.00000000       0.00000000    -264.45071411
Y        0.00000000       0.00000000       1.00303030       0.00000000       0.00000000     264.45071411
2
Properties=species:S:1:pos:R:3:forces:R:3 energy=25.934933000646737 pbc="F F F"
Y        0.00000000       0.00000000       0.00000000       0.00000000       0.00000000    -198.49026489
Y        0.00000000       0.00000000       1.06181818       0.00000000       0.00000000     198.49026489
2
Properties=species:S:1:pos:R:3:forces:R:3 energy=16.465098428866828 pbc="F F F"
Y        0.00000000       0.00000000       0.00000000       0.00000000       0.00000000    -132.76029968
Y        0.00000000       0.00000000       1.12060606       0.00000000       0.00000000     132.76029968
2
Properties=species:S:1:pos:R:3:forces:R:3 energy=9.638287563404587 pbc="F F F"
Y        0.00000000       0.00000000       0.00000000       0.00000000       0.00000000    -101.07164764
Y        0.00000000       0.00000000       1.17939394       0.00000000       0.00000000     101.07164764
2
Properties=species:S:1:pos:R:3:forces:R:3 energy=4.593018801051516 pbc="F F F"
Y        0.00000000       0.00000000       0.00000000       0.00000000       0.00000000     -70.31392670
Y        0.00000000       0.00000000       1.23818182       0.00000000       0.00000000      70.31392670
2
Properties=species:S:1:pos:R:3:forces:R:3 energy=1.3131784470768975 pbc="F F F"
Y        0.00000000       0.00000000       0.00000000       0.00000000       0.00000000     -42.47237778
Y        0.00000000       0.00000000       1.29696970       0.00000000       0.00000000      42.47237778
2
Properties=species:S:1:pos:R:3:forces:R:3 energy=-0.5838966914679502 pbc="F F F"
Y        0.00000000       0.00000000       0.00000000       0.00000000       0.00000000     -23.74031639
Y        0.00000000       0.00000000       1.35575758       0.00000000       0.00000000      23.74031639
2
Properties=species:S:1:pos:R:3:forces:R:3 energy=-1.659150593565502 pbc="F F F"
Y        0.00000000       0.00000000       0.00000000       0.00000000       0.00000000     -14.14562798
Y        0.00000000       0.00000000       1.41454545       0.00000000       0.00000000      14.14562798
2
Properties=species:S:1:pos:R:3:forces:R:3 energy=-2.3639321905210102 pbc="F F F"
Y        0.00000000       0.00000000       0.00000000       0.00000000       0.00000000     -10.50853348
Y        0.00000000       0.00000000       1.47333333       0.00000000       0.00000000      10.50853348
2
Properties=species:S:1:pos:R:3:forces:R:3 energy=-2.9417416136606995 pbc="F F F"
Y        0.00000000       0.00000000       0.00000000       0.00000000       0.00000000      -9.31779957
Y        0.00000000       0.00000000       1.53212121       0.00000000       0.00000000       9.31779957
2
Properties=species:S:1:pos:R:3:forces:R:3 energy=-3.461428268192095 pbc="F F F"
Y        0.00000000       0.00000000       0.00000000       0.00000000       0.00000000      -8.28026581
Y        0.00000000       0.00000000       1.59090909       0.00000000       0.00000000       8.28026581
2
Properties=species:S:1:pos:R:3:forces:R:3 energy=-3.902573621869474 pbc="F F F"
Y        0.00000000       0.00000000       0.00000000       0.00000000       0.00000000      -6.63141298
Y        0.00000000       0.00000000       1.64969697       0.00000000       0.00000000       6.63141298
2
Properties=species:S:1:pos:R:3:forces:R:3 energy=-4.235270283403585 pbc="F F F"
Y        0.00000000       0.00000000       0.00000000       0.00000000       0.00000000      -4.68990517
Y        0.00000000       0.00000000       1.70848485       0.00000000       0.00000000       4.68990517
2
Properties=species:S:1:pos:R:3:forces:R:3 energy=-4.4590299945511 pbc="F F F"
Y        0.00000000       0.00000000       0.00000000       0.00000000       0.00000000      -2.98901010
Y        0.00000000       0.00000000       1.76727273       0.00000000       0.00000000       2.98901010
2
Properties=species:S:1:pos:R:3:forces:R:3 energy=-4.5946214587580965 pbc="F F F"
Y        0.00000000       0.00000000       0.00000000       0.00000000       0.00000000      -1.68401134
Y        0.00000000       0.00000000       1.82606061       0.00000000       0.00000000       1.68401134
2
Properties=species:S:1:pos:R:3:forces:R:3 energy=-4.663568832913159 pbc="F F F"
Y        0.00000000       0.00000000       0.00000000       0.00000000       0.00000000      -0.72174525
Y        0.00000000       0.00000000       1.88484848       0.00000000       0.00000000       0.72174525
2
Properties=species:S:1:pos:R:3:forces:R:3 energy=-4.688372874418735 pbc="F F F"
Y        0.00000000       0.00000000       0.00000000       0.00000000       0.00000000      -0.21265230
Y        0.00000000       0.00000000       1.94363636       0.00000000       0.00000000       0.21265230
2
Properties=species:S:1:pos:R:3:forces:R:3 energy=-4.69933816890941 pbc="F F F"
Y        0.00000000       0.00000000       0.00000000       0.00000000       0.00000000      -0.24048498
Y        0.00000000       0.00000000       2.00242424       0.00000000       0.00000000       0.24048498
2
Properties=species:S:1:pos:R:3:forces:R:3 energy=-4.723329436774352 pbc="F F F"
Y        0.00000000       0.00000000       0.00000000       0.00000000       0.00000000      -0.60826290
Y        0.00000000       0.00000000       2.06121212       0.00000000       0.00000000       0.60826290
2
Properties=species:S:1:pos:R:3:forces:R:3 energy=-4.772402610569047 pbc="F F F"
Y        0.00000000       0.00000000       0.00000000       0.00000000       0.00000000      -1.05987144
Y        0.00000000       0.00000000       2.12000000       0.00000000       0.00000000       1.05987144
2
Properties=species:S:1:pos:R:3:forces:R:3 energy=-4.846831649911912 pbc="F F F"
Y        0.00000000       0.00000000       0.00000000       0.00000000       0.00000000      -1.45793176
Y        0.00000000       0.00000000       2.17878788       0.00000000       0.00000000       1.45793176
2
Properties=species:S:1:pos:R:3:forces:R:3 energy=-4.941959967520387 pbc="F F F"
Y        0.00000000       0.00000000       0.00000000       0.00000000       0.00000000      -1.76235974
Y        0.00000000       0.00000000       2.23757576       0.00000000       0.00000000       1.76235974
2
Properties=species:S:1:pos:R:3:forces:R:3 energy=-5.05227127672954 pbc="F F F"
Y        0.00000000       0.00000000       0.00000000       0.00000000       0.00000000      -1.97663736
Y        0.00000000       0.00000000       2.29636364       0.00000000       0.00000000       1.97663736
2
Properties=species:S:1:pos:R:3:forces:R:3 energy=-5.17287320295363 pbc="F F F"
Y        0.00000000       0.00000000       0.00000000       0.00000000       0.00000000      -2.11464787
Y        0.00000000       0.00000000       2.35515152       0.00000000       0.00000000       2.11464787
2
Properties=species:S:1:pos:R:3:forces:R:3 energy=-5.299608990294012 pbc="F F F"
Y        0.00000000       0.00000000       0.00000000       0.00000000       0.00000000      -2.18642306
Y        0.00000000       0.00000000       2.41393939       0.00000000       0.00000000       2.18642306
2
Properties=species:S:1:pos:R:3:forces:R:3 energy=-5.42872530443098 pbc="F F F"
Y        0.00000000       0.00000000       0.00000000       0.00000000       0.00000000      -2.19599319
Y        0.00000000       0.00000000       2.47272727       0.00000000       0.00000000       2.19599319
2
Properties=species:S:1:pos:R:3:forces:R:3 energy=-5.556618661297714 pbc="F F F"
Y        0.00000000       0.00000000       0.00000000       0.00000000       0.00000000      -2.14521837
Y        0.00000000       0.00000000       2.53151515       0.00000000       0.00000000       2.14521837
2
Properties=species:S:1:pos:R:3:forces:R:3 energy=-5.6798621996532335 pbc="F F F"
Y        0.00000000       0.00000000       0.00000000       0.00000000       0.00000000      -2.03905821
Y        0.00000000       0.00000000       2.59030303       0.00000000       0.00000000       2.03905821
2
Properties=species:S:1:pos:R:3:forces:R:3 energy=-5.795490216489638 pbc="F F F"
Y        0.00000000       0.00000000       0.00000000       0.00000000       0.00000000      -1.88848150
Y        0.00000000       0.00000000       2.64909091       0.00000000       0.00000000       1.88848150
2
Properties=species:S:1:pos:R:3:forces:R:3 energy=-5.90132686923319 pbc="F F F"
Y        0.00000000       0.00000000       0.00000000       0.00000000       0.00000000      -1.70853758
Y        0.00000000       0.00000000       2.70787879       0.00000000       0.00000000       1.70853758
2
Properties=species:S:1:pos:R:3:forces:R:3 energy=-5.996068201079143 pbc="F F F"
Y        0.00000000       0.00000000       0.00000000       0.00000000       0.00000000      -1.51283872
Y        0.00000000       0.00000000       2.76666667       0.00000000       0.00000000       1.51283872
2
Properties=species:S:1:pos:R:3:forces:R:3 energy=-6.079043373632503 pbc="F F F"
Y        0.00000000       0.00000000       0.00000000       0.00000000       0.00000000      -1.30897534
Y        0.00000000       0.00000000       2.82545455       0.00000000       0.00000000       1.30897534
2
Properties=species:S:1:pos:R:3:forces:R:3 energy=-6.149839234026044 pbc="F F F"
Y        0.00000000       0.00000000       0.00000000       0.00000000       0.00000000      -1.09822500
Y        0.00000000       0.00000000       2.88424242       0.00000000       0.00000000       1.09822500
2
Properties=species:S:1:pos:R:3:forces:R:3 energy=-6.208004559857088 pbc="F F F"
Y        0.00000000       0.00000000       0.00000000       0.00000000       0.00000000      -0.87915111
Y        0.00000000       0.00000000       2.94303030       0.00000000       0.00000000       0.87915111
2
Properties=species:S:1:pos:R:3:forces:R:3 energy=-6.253039501446512 pbc="F F F"
Y        0.00000000       0.00000000       0.00000000       0.00000000       0.00000000      -0.65178871
Y        0.00000000       0.00000000       3.00181818       0.00000000       0.00000000       0.65178871
2
Properties=species:S:1:pos:R:3:forces:R:3 energy=-6.284541046546985 pbc="F F F"
Y        0.00000000       0.00000000       0.00000000       0.00000000       0.00000000      -0.41947374
Y        0.00000000       0.00000000       3.06060606       0.00000000       0.00000000       0.41947374
2
Properties=species:S:1:pos:R:3:forces:R:3 energy=-6.302367643589181 pbc="F F F"
Y        0.00000000       0.00000000       0.00000000       0.00000000       0.00000000      -0.18752024
Y        0.00000000       0.00000000       3.11939394       0.00000000       0.00000000       0.18752024
2
Properties=species:S:1:pos:R:3:forces:R:3 energy=-6.306687112521698 pbc="F F F"
Y        0.00000000       0.00000000       0.00000000       0.00000000       0.00000000       0.03948156
Y        0.00000000       0.00000000       3.17818182       0.00000000       0.00000000      -0.03948156
2
Properties=species:S:1:pos:R:3:forces:R:3 energy=-6.29787312782265 pbc="F F F"
Y        0.00000000       0.00000000       0.00000000       0.00000000       0.00000000       0.25900224
Y        0.00000000       0.00000000       3.23696970       0.00000000       0.00000000      -0.25900224
2
Properties=species:S:1:pos:R:3:forces:R:3 energy=-6.276407337415744 pbc="F F F"
Y        0.00000000       0.00000000       0.00000000       0.00000000       0.00000000       0.46968722
Y        0.00000000       0.00000000       3.29575758       0.00000000       0.00000000      -0.46968722
2
Properties=species:S:1:pos:R:3:forces:R:3 energy=-6.242855673500243 pbc="F F F"
Y        0.00000000       0.00000000       0.00000000       0.00000000       0.00000000       0.66983271
Y        0.00000000       0.00000000       3.35454545       0.00000000       0.00000000      -0.66983271
2
Properties=species:S:1:pos:R:3:forces:R:3 energy=-6.1978965414099765 pbc="F F F"
Y        0.00000000       0.00000000       0.00000000       0.00000000       0.00000000       0.85753429
Y        0.00000000       0.00000000       3.41333333       0.00000000       0.00000000      -0.85753429
2
Properties=species:S:1:pos:R:3:forces:R:3 energy=-6.1422875453626045 pbc="F F F"
Y        0.00000000       0.00000000       0.00000000       0.00000000       0.00000000       1.03208971
Y        0.00000000       0.00000000       3.47212121       0.00000000       0.00000000      -1.03208971
2
Properties=species:S:1:pos:R:3:forces:R:3 energy=-6.076818131814751 pbc="F F F"
Y        0.00000000       0.00000000       0.00000000       0.00000000       0.00000000       1.19266641
Y        0.00000000       0.00000000       3.53090909       0.00000000       0.00000000      -1.19266641
2
Properties=species:S:1:pos:R:3:forces:R:3 energy=-6.0024456352816555 pbc="F F F"
Y        0.00000000       0.00000000       0.00000000       0.00000000       0.00000000       1.33334434
Y        0.00000000       0.00000000       3.58969697       0.00000000       0.00000000      -1.33334434
2
Properties=species:S:1:pos:R:3:forces:R:3 energy=-5.920657951954786 pbc="F F F"
Y        0.00000000       0.00000000       0.00000000       0.00000000       0.00000000       1.44304192
Y        0.00000000       0.00000000       3.64848485       0.00000000       0.00000000      -1.44304192
2
Properties=species:S:1:pos:R:3:forces:R:3 energy=-5.833549287094489 pbc="F F F"
Y        0.00000000       0.00000000       0.00000000       0.00000000       0.00000000       1.51375246
Y        0.00000000       0.00000000       3.70727273       0.00000000       0.00000000      -1.51375246
2
Properties=species:S:1:pos:R:3:forces:R:3 energy=-5.743441658858231 pbc="F F F"
Y        0.00000000       0.00000000       0.00000000       0.00000000       0.00000000       1.54558897
Y        0.00000000       0.00000000       3.76606061       0.00000000       0.00000000      -1.54558897
2
Properties=species:S:1:pos:R:3:forces:R:3 energy=-5.6524895882086605 pbc="F F F"
Y        0.00000000       0.00000000       0.00000000       0.00000000       0.00000000       1.54351950
Y        0.00000000       0.00000000       3.82484848       0.00000000       0.00000000      -1.54351950
2
Properties=species:S:1:pos:R:3:forces:R:3 energy=-5.562521566373167 pbc="F F F"
Y        0.00000000       0.00000000       0.00000000       0.00000000       0.00000000       1.51281333
Y        0.00000000       0.00000000       3.88363636       0.00000000       0.00000000      -1.51281333
2
Properties=species:S:1:pos:R:3:forces:R:3 energy=-5.475097196717539 pbc="F F F"
Y        0.00000000       0.00000000       0.00000000       0.00000000       0.00000000       1.45769238
Y        0.00000000       0.00000000       3.94242424       0.00000000       0.00000000      -1.45769238
2
Properties=species:S:1:pos:R:3:forces:R:3 energy=-5.3915361241985575 pbc="F F F"
Y        0.00000000       0.00000000       0.00000000       0.00000000       0.00000000       1.38206649
Y        0.00000000       0.00000000       4.00121212       0.00000000       0.00000000      -1.38206649
2
Properties=species:S:1:pos:R:3:forces:R:3 energy=-5.31291399758204 pbc="F F F"
Y        0.00000000       0.00000000       0.00000000       0.00000000       0.00000000       1.29046988
Y        0.00000000       0.00000000       4.06000000       0.00000000       0.00000000      -1.29046988
2
Properties=species:S:1:pos:R:3:forces:R:3 energy=-5.240014761219852 pbc="F F F"
Y        0.00000000       0.00000000       0.00000000       0.00000000       0.00000000       1.18836069
Y        0.00000000       0.00000000       4.11878788       0.00000000       0.00000000      -1.18836069
2
Properties=species:S:1:pos:R:3:forces:R:3 energy=-5.17328092601075 pbc="F F F"
Y        0.00000000       0.00000000       0.00000000       0.00000000       0.00000000       1.08165789
Y        0.00000000       0.00000000       4.17757576       0.00000000       0.00000000      -1.08165789
2
Properties=species:S:1:pos:R:3:forces:R:3 energy=-5.112814433736281 pbc="F F F"
Y        0.00000000       0.00000000       0.00000000       0.00000000       0.00000000       0.97605729
Y        0.00000000       0.00000000       4.23636364       0.00000000       0.00000000      -0.97605729
2
Properties=species:S:1:pos:R:3:forces:R:3 energy=-5.058402572338211 pbc="F F F"
Y        0.00000000       0.00000000       0.00000000       0.00000000       0.00000000       0.87634540
Y        0.00000000       0.00000000       4.29515152       0.00000000       0.00000000      -0.87634540
2
Properties=species:S:1:pos:R:3:forces:R:3 energy=-5.009592525578125 pbc="F F F"
Y        0.00000000       0.00000000       0.00000000       0.00000000       0.00000000       0.78606147
Y        0.00000000       0.00000000       4.35393939       0.00000000       0.00000000      -0.78606147
2
Properties=species:S:1:pos:R:3:forces:R:3 energy=-4.9657535836155375 pbc="F F F"
Y        0.00000000       0.00000000       0.00000000       0.00000000       0.00000000       0.70741779
Y        0.00000000       0.00000000       4.41272727       0.00000000       0.00000000      -0.70741779
2
Properties=species:S:1:pos:R:3:forces:R:3 energy=-4.926166953120393 pbc="F F F"
Y        0.00000000       0.00000000       0.00000000       0.00000000       0.00000000       0.64148217
Y        0.00000000       0.00000000       4.47151515       0.00000000       0.00000000      -0.64148217
2
Properties=species:S:1:pos:R:3:forces:R:3 energy=-4.8900782093604604 pbc="F F F"
Y        0.00000000       0.00000000       0.00000000       0.00000000       0.00000000       0.58839178
Y        0.00000000       0.00000000       4.53030303       0.00000000       0.00000000      -0.58839178
2
Properties=species:S:1:pos:R:3:forces:R:3 energy=-4.856746461113793 pbc="F F F"
Y        0.00000000       0.00000000       0.00000000       0.00000000       0.00000000       0.54754639
Y        0.00000000       0.00000000       4.58909091       0.00000000       0.00000000      -0.54754639
2
Properties=species:S:1:pos:R:3:forces:R:3 energy=-4.825482649696837 pbc="F F F"
Y        0.00000000       0.00000000       0.00000000       0.00000000       0.00000000       0.51780039
Y        0.00000000       0.00000000       4.64787879       0.00000000       0.00000000      -0.51780039
2
Properties=species:S:1:pos:R:3:forces:R:3 energy=-4.795678038816686 pbc="F F F"
Y        0.00000000       0.00000000       0.00000000       0.00000000       0.00000000       0.49760073
Y        0.00000000       0.00000000       4.70666667       0.00000000       0.00000000      -0.49760073
2
Properties=species:S:1:pos:R:3:forces:R:3 energy=-4.766825653236274 pbc="F F F"
Y        0.00000000       0.00000000       0.00000000       0.00000000       0.00000000       0.48514590
Y        0.00000000       0.00000000       4.76545455       0.00000000       0.00000000      -0.48514590
2
Properties=species:S:1:pos:R:3:forces:R:3 energy=-4.738521359161565 pbc="F F F"
Y        0.00000000       0.00000000       0.00000000       0.00000000       0.00000000       0.47852552
Y        0.00000000       0.00000000       4.82424242       0.00000000       0.00000000      -0.47852552
2
Properties=species:S:1:pos:R:3:forces:R:3 energy=-4.710487096213785 pbc="F F F"
Y        0.00000000       0.00000000       0.00000000       0.00000000       0.00000000       0.47580415
Y        0.00000000       0.00000000       4.88303030       0.00000000       0.00000000      -0.47580415
2
Properties=species:S:1:pos:R:3:forces:R:3 energy=-4.682540728982499 pbc="F F F"
Y        0.00000000       0.00000000       0.00000000       0.00000000       0.00000000       0.47504818
Y        0.00000000       0.00000000       4.94181818       0.00000000       0.00000000      -0.47504818
2
Properties=species:S:1:pos:R:3:forces:R:3 energy=-4.654630849802514 pbc="F F F"
Y        0.00000000       0.00000000       0.00000000       0.00000000       0.00000000       0.47432137
Y        0.00000000       0.00000000       5.00060606       0.00000000       0.00000000      -0.47432137
2
Properties=species:S:1:pos:R:3:forces:R:3 energy=-4.626807189507493 pbc="F F F"
Y        0.00000000       0.00000000       0.00000000       0.00000000       0.00000000       0.47171986
Y        0.00000000       0.00000000       5.05939394       0.00000000       0.00000000      -0.47171986
2
Properties=species:S:1:pos:R:3:forces:R:3 energy=-4.599240454521276 pbc="F F F"
Y        0.00000000       0.00000000       0.00000000       0.00000000       0.00000000       0.46543485
Y        0.00000000       0.00000000       5.11818182       0.00000000       0.00000000      -0.46543485
2
Properties=species:S:1:pos:R:3:forces:R:3 energy=-4.57218741003937 pbc="F F F"
Y        0.00000000       0.00000000       0.00000000       0.00000000       0.00000000       0.45395848
Y        0.00000000       0.00000000       5.17696970       0.00000000       0.00000000      -0.45395848
2
Properties=species:S:1:pos:R:3:forces:R:3 energy=-4.545989996046727 pbc="F F F"
Y        0.00000000       0.00000000       0.00000000       0.00000000       0.00000000       0.43624184
Y        0.00000000       0.00000000       5.23575758       0.00000000       0.00000000      -0.43624184
2
Properties=species:S:1:pos:R:3:forces:R:3 energy=-4.521027607251891 pbc="F F F"
Y        0.00000000       0.00000000       0.00000000       0.00000000       0.00000000       0.41187969
Y        0.00000000       0.00000000       5.29454545       0.00000000       0.00000000      -0.41187969
2
Properties=species:S:1:pos:R:3:forces:R:3 energy=-4.4976873944708196 pbc="F F F"
Y        0.00000000       0.00000000       0.00000000       0.00000000       0.00000000       0.38113075
Y        0.00000000       0.00000000       5.35333333       0.00000000       0.00000000      -0.38113075
2
Properties=species:S:1:pos:R:3:forces:R:3 energy=-4.476323511720895 pbc="F F F"
Y        0.00000000       0.00000000       0.00000000       0.00000000       0.00000000       0.34493494
Y        0.00000000       0.00000000       5.41212121       0.00000000       0.00000000      -0.34493494
2
Properties=species:S:1:pos:R:3:forces:R:3 energy=-4.457210482877912 pbc="F F F"
Y        0.00000000       0.00000000       0.00000000       0.00000000       0.00000000       0.30470911
Y        0.00000000       0.00000000       5.47090909       0.00000000       0.00000000      -0.30470911
2
Properties=species:S:1:pos:R:3:forces:R:3 energy=-4.44054004754966 pbc="F F F"
Y        0.00000000       0.00000000       0.00000000       0.00000000       0.00000000       0.26216075
Y        0.00000000       0.00000000       5.52969697       0.00000000       0.00000000      -0.26216075
2
Properties=species:S:1:pos:R:3:forces:R:3 energy=-4.426396264173385 pbc="F F F"
Y        0.00000000       0.00000000       0.00000000       0.00000000       0.00000000       0.21910816
Y        0.00000000       0.00000000       5.58848485       0.00000000       0.00000000      -0.21910816
2
Properties=species:S:1:pos:R:3:forces:R:3 energy=-4.41475867047786 pbc="F F F"
Y        0.00000000       0.00000000       0.00000000       0.00000000       0.00000000       0.17735548
Y        0.00000000       0.00000000       5.64727273       0.00000000       0.00000000      -0.17735548
2
Properties=species:S:1:pos:R:3:forces:R:3 energy=-4.4054894025444655 pbc="F F F"
Y        0.00000000       0.00000000       0.00000000       0.00000000       0.00000000       0.13852826
Y        0.00000000       0.00000000       5.70606061       0.00000000       0.00000000      -0.13852826
2
Properties=species:S:1:pos:R:3:forces:R:3 energy=-4.39837330298146 pbc="F F F"
Y        0.00000000       0.00000000       0.00000000       0.00000000       0.00000000       0.10408661
Y        0.00000000       0.00000000       5.76484848       0.00000000       0.00000000      -0.10408661
2
Properties=species:S:1:pos:R:3:forces:R:3 energy=-4.393132102493654 pbc="F F F"
Y        0.00000000       0.00000000       0.00000000       0.00000000       0.00000000       0.07532643
Y        0.00000000       0.00000000       5.82363636       0.00000000       0.00000000      -0.07532643
2
Properties=species:S:1:pos:R:3:forces:R:3 energy=-4.389392433778955 pbc="F F F"
Y        0.00000000       0.00000000       0.00000000       0.00000000       0.00000000       0.05333970
Y        0.00000000       0.00000000       5.88242424       0.00000000       0.00000000      -0.05333970
2
Properties=species:S:1:pos:R:3:forces:R:3 energy=-4.386712200124057 pbc="F F F"
Y        0.00000000       0.00000000       0.00000000       0.00000000       0.00000000       0.03908961
Y        0.00000000       0.00000000       5.94121212       0.00000000       0.00000000      -0.03908961
2
Properties=species:S:1:pos:R:3:forces:R:3 energy=-4.384625760892877 pbc="F F F"
Y        0.00000000       0.00000000       0.00000000       0.00000000       0.00000000       0.03343363
Y        0.00000000       0.00000000       6.00000000       0.00000000       0.00000000      -0.03343363
