2
Properties=species:S:1:pos:R:3:forces:R:3 energy=14450.165493830382 pbc="F F F"
Yb       0.00000000       0.00000000       0.00000000       0.00000000       0.00000000 -251578.53125000
Yb       0.00000000       0.00000000       0.18000000       0.00000000       0.00000000  251578.53125000
2
Properties=species:S:1:pos:R:3:forces:R:3 energy=5641.055142267882 pbc="F F F"
Yb       0.00000000       0.00000000       0.00000000       0.00000000       0.00000000  -83593.69531250
Yb       0.00000000       0.00000000       0.23878788       0.00000000       0.00000000   83593.69531250
2
Properties=species:S:1:pos:R:3:forces:R:3 energy=2486.3070953928814 pbc="F F F"
Yb       0.00000000       0.00000000       0.00000000       0.00000000       0.00000000  -32687.12500000
Yb       0.00000000       0.00000000       0.29757576       0.00000000       0.00000000   32687.12500000
2
Properties=species:S:1:pos:R:3:forces:R:3 energy=1193.9521149304671 pbc="F F F"
Yb       0.00000000       0.00000000       0.00000000       0.00000000       0.00000000  -14141.57031250
Yb       0.00000000       0.00000000       0.35636364       0.00000000       0.00000000   14141.57031250
2
Properties=species:S:1:pos:R:3:forces:R:3 energy=616.0985382703109 pbc="F F F"
Yb       0.00000000       0.00000000       0.00000000       0.00000000       0.00000000   -6577.12988281
Yb       0.00000000       0.00000000       0.41515152       0.00000000       0.00000000    6577.12988281
2
Properties=species:S:1:pos:R:3:forces:R:3 energy=340.12328803250585 pbc="F F F"
Yb       0.00000000       0.00000000       0.00000000       0.00000000       0.00000000   -3243.38183594
Yb       0.00000000       0.00000000       0.47393939       0.00000000       0.00000000    3243.38183594
2
Properties=species:S:1:pos:R:3:forces:R:3 energy=200.85842598463026 pbc="F F F"
Yb       0.00000000       0.00000000       0.00000000       0.00000000       0.00000000   -1682.73876953
Yb       0.00000000       0.00000000       0.53272727       0.00000000       0.00000000    1682.73876953
2
Properties=species:S:1:pos:R:3:forces:R:3 energy=127.09839336249989 pbc="F F F"
Yb       0.00000000       0.00000000       0.00000000       0.00000000       0.00000000    -913.38702393
Yb       0.00000000       0.00000000       0.59151515       0.00000000       0.00000000     913.38702393
2
Properties=species:S:1:pos:R:3:forces:R:3 energy=86.3069734176036 pbc="F F F"
Yb       0.00000000       0.00000000       0.00000000       0.00000000       0.00000000    -516.39581299
Yb       0.00000000       0.00000000       0.65030303       0.00000000       0.00000000     516.39581299
2
Properties=species:S:1:pos:R:3:forces:R:3 energy=62.83441260472733 pbc="F F F"
Yb       0.00000000       0.00000000       0.00000000       0.00000000       0.00000000    -303.54803467
Yb       0.00000000       0.00000000       0.70909091       0.00000000       0.00000000     303.54803467
2
Properties=species:S:1:pos:R:3:forces:R:3 energy=48.767163401666295 pbc="F F F"
Yb       0.00000000       0.00000000       0.00000000       0.00000000       0.00000000    -186.50201416
Yb       0.00000000       0.00000000       0.76787879       0.00000000       0.00000000     186.50201416
2
Properties=species:S:1:pos:R:3:forces:R:3 energy=39.88705948878035 pbc="F F F"
Yb       0.00000000       0.00000000       0.00000000       0.00000000       0.00000000    -122.12690735
Yb       0.00000000       0.00000000       0.82666667       0.00000000       0.00000000     122.12690735
2
Properties=species:S:1:pos:R:3:forces:R:3 energy=33.81288673689509 pbc="F F F"
Yb       0.00000000       0.00000000       0.00000000       0.00000000       0.00000000     -88.43319702
Yb       0.00000000       0.00000000       0.88545455       0.00000000       0.00000000      88.43319702
2
Properties=species:S:1:pos:R:3:forces:R:3 energy=29.127473674074665 pbc="F F F"
Yb       0.00000000       0.00000000       0.00000000       0.00000000       0.00000000     -73.34639740
Yb       0.00000000       0.00000000       0.94424242       0.00000000       0.00000000      73.34639740
2
Properties=species:S:1:pos:R:3:forces:R:3 energy=24.976385371291936 pbc="F F F"
Yb       0.00000000       0.00000000       0.00000000       0.00000000       0.00000000     -69.16641235
Yb       0.00000000       0.00000000       1.00303030       0.00000000       0.00000000      69.16641235
2
Properties=species:S:1:pos:R:3:forces:R:3 energy=20.89819608531076 pbc="F F F"
Yb       0.00000000       0.00000000       0.00000000       0.00000000       0.00000000     -69.96978760
Yb       0.00000000       0.00000000       1.06181818       0.00000000       0.00000000      69.96978760
2
Properties=species:S:1:pos:R:3:forces:R:3 energy=16.747707013116596 pbc="F F F"
Yb       0.00000000       0.00000000       0.00000000       0.00000000       0.00000000     -70.91791534
Yb       0.00000000       0.00000000       1.12060606       0.00000000       0.00000000      70.91791534
2
Properties=species:S:1:pos:R:3:forces:R:3 energy=12.625827451159136 pbc="F F F"
Yb       0.00000000       0.00000000       0.00000000       0.00000000       0.00000000     -68.56999207
Yb       0.00000000       0.00000000       1.17939394       0.00000000       0.00000000      68.56999207
2
Properties=species:S:1:pos:R:3:forces:R:3 energy=8.7819652247087 pbc="F F F"
Yb       0.00000000       0.00000000       0.00000000       0.00000000       0.00000000     -61.36711502
Yb       0.00000000       0.00000000       1.23818182       0.00000000       0.00000000      61.36711502
2
Properties=species:S:1:pos:R:3:forces:R:3 energy=5.497534416432858 pbc="F F F"
Yb       0.00000000       0.00000000       0.00000000       0.00000000       0.00000000     -49.80923462
Yb       0.00000000       0.00000000       1.29696970       0.00000000       0.00000000      49.80923462
2
Properties=species:S:1:pos:R:3:forces:R:3 energy=2.956729911932905 pbc="F F F"
Yb       0.00000000       0.00000000       0.00000000       0.00000000       0.00000000     -36.69626999
Yb       0.00000000       0.00000000       1.35575758       0.00000000       0.00000000      36.69626999
2
Properties=species:S:1:pos:R:3:forces:R:3 energy=1.144914568081077 pbc="F F F"
Yb       0.00000000       0.00000000       0.00000000       0.00000000       0.00000000     -25.41012764
Yb       0.00000000       0.00000000       1.41454545       0.00000000       0.00000000      25.41012764
2
Properties=species:S:1:pos:R:3:forces:R:3 energy=-0.08121102743238869 pbc="F F F"
Yb       0.00000000       0.00000000       0.00000000       0.00000000       0.00000000     -16.60774422
Yb       0.00000000       0.00000000       1.47333333       0.00000000       0.00000000      16.60774422
2
Properties=species:S:1:pos:R:3:forces:R:3 energy=-0.8256831576829421 pbc="F F F"
Yb       0.00000000       0.00000000       0.00000000       0.00000000       0.00000000      -8.75877857
Yb       0.00000000       0.00000000       1.53212121       0.00000000       0.00000000       8.75877857
2
Properties=species:S:1:pos:R:3:forces:R:3 energy=-1.1142449889695447 pbc="F F F"
Yb       0.00000000       0.00000000       0.00000000       0.00000000       0.00000000      -1.14362204
Yb       0.00000000       0.00000000       1.59090909       0.00000000       0.00000000       1.14362204
2
Properties=species:S:1:pos:R:3:forces:R:3 energy=-0.984815950173165 pbc="F F F"
Yb       0.00000000       0.00000000       0.00000000       0.00000000       0.00000000       5.20287943
Yb       0.00000000       0.00000000       1.64969697       0.00000000       0.00000000      -5.20287943
2
Properties=species:S:1:pos:R:3:forces:R:3 energy=-0.5549710515123151 pbc="F F F"
Yb       0.00000000       0.00000000       0.00000000       0.00000000       0.00000000       8.91352367
Yb       0.00000000       0.00000000       1.70848485       0.00000000       0.00000000      -8.91352367
2
Properties=species:S:1:pos:R:3:forces:R:3 energy=0.004190793856080038 pbc="F F F"
Yb       0.00000000       0.00000000       0.00000000       0.00000000       0.00000000       9.65075874
Yb       0.00000000       0.00000000       1.76727273       0.00000000       0.00000000      -9.65075874
2
Properties=species:S:1:pos:R:3:forces:R:3 energy=0.5357098951234902 pbc="F F F"
Yb       0.00000000       0.00000000       0.00000000       0.00000000       0.00000000       8.15935802
Yb       0.00000000       0.00000000       1.82606061       0.00000000       0.00000000      -8.15935802
2
Properties=species:S:1:pos:R:3:forces:R:3 energy=0.9448728137131871 pbc="F F F"
Yb       0.00000000       0.00000000       0.00000000       0.00000000       0.00000000       5.71224546
Yb       0.00000000       0.00000000       1.88484848       0.00000000       0.00000000      -5.71224546
2
Properties=species:S:1:pos:R:3:forces:R:3 energy=1.2116330917289513 pbc="F F F"
Yb       0.00000000       0.00000000       0.00000000       0.00000000       0.00000000       3.45730162
Yb       0.00000000       0.00000000       1.94363636       0.00000000       0.00000000      -3.45730162
2
Properties=species:S:1:pos:R:3:forces:R:3 energy=1.3643471022329303 pbc="F F F"
Yb       0.00000000       0.00000000       0.00000000       0.00000000       0.00000000       1.84438157
Yb       0.00000000       0.00000000       2.00242424       0.00000000       0.00000000      -1.84438157
2
Properties=species:S:1:pos:R:3:forces:R:3 energy=1.4387902844501952 pbc="F F F"
Yb       0.00000000       0.00000000       0.00000000       0.00000000       0.00000000       0.75593919
Yb       0.00000000       0.00000000       2.06121212       0.00000000       0.00000000      -0.75593919
2
Properties=species:S:1:pos:R:3:forces:R:3 energy=1.459263210805306 pbc="F F F"
Yb       0.00000000       0.00000000       0.00000000       0.00000000       0.00000000      -0.02105099
Yb       0.00000000       0.00000000       2.12000000       0.00000000       0.00000000       0.02105099
2
Properties=species:S:1:pos:R:3:forces:R:3 energy=1.4397963235061066 pbc="F F F"
Yb       0.00000000       0.00000000       0.00000000       0.00000000       0.00000000      -0.61838007
Yb       0.00000000       0.00000000       2.17878788       0.00000000       0.00000000       0.61838007
2
Properties=species:S:1:pos:R:3:forces:R:3 energy=1.3886835818666796 pbc="F F F"
Yb       0.00000000       0.00000000       0.00000000       0.00000000       0.00000000      -1.10627782
Yb       0.00000000       0.00000000       2.23757576       0.00000000       0.00000000       1.10627782
2
Properties=species:S:1:pos:R:3:forces:R:3 energy=1.3110819349075975 pbc="F F F"
Yb       0.00000000       0.00000000       0.00000000       0.00000000       0.00000000      -1.52431107
Yb       0.00000000       0.00000000       2.29636364       0.00000000       0.00000000       1.52431107
2
Properties=species:S:1:pos:R:3:forces:R:3 energy=1.210419690412946 pbc="F F F"
Yb       0.00000000       0.00000000       0.00000000       0.00000000       0.00000000      -1.89292121
Yb       0.00000000       0.00000000       2.35515152       0.00000000       0.00000000       1.89292121
2
Properties=species:S:1:pos:R:3:forces:R:3 energy=1.089390419798107 pbc="F F F"
Yb       0.00000000       0.00000000       0.00000000       0.00000000       0.00000000      -2.21674681
Yb       0.00000000       0.00000000       2.41393939       0.00000000       0.00000000       2.21674681
2
Properties=species:S:1:pos:R:3:forces:R:3 energy=0.9508113842038133 pbc="F F F"
Yb       0.00000000       0.00000000       0.00000000       0.00000000       0.00000000      -2.48789597
Yb       0.00000000       0.00000000       2.47272727       0.00000000       0.00000000       2.48789597
2
Properties=species:S:1:pos:R:3:forces:R:3 energy=0.7981847591600661 pbc="F F F"
Yb       0.00000000       0.00000000       0.00000000       0.00000000       0.00000000      -2.69215941
Yb       0.00000000       0.00000000       2.53151515       0.00000000       0.00000000       2.69215941
2
Properties=species:S:1:pos:R:3:forces:R:3 energy=0.6358424548660058 pbc="F F F"
Yb       0.00000000       0.00000000       0.00000000       0.00000000       0.00000000      -2.81695938
Yb       0.00000000       0.00000000       2.59030303       0.00000000       0.00000000       2.81695938
2
Properties=species:S:1:pos:R:3:forces:R:3 energy=0.4686380108615773 pbc="F F F"
Yb       0.00000000       0.00000000       0.00000000       0.00000000       0.00000000      -2.85746312
Yb       0.00000000       0.00000000       2.64909091       0.00000000       0.00000000       2.85746312
2
Properties=species:S:1:pos:R:3:forces:R:3 energy=0.301445652542314 pbc="F F F"
Yb       0.00000000       0.00000000       0.00000000       0.00000000       0.00000000      -2.81788373
Yb       0.00000000       0.00000000       2.70787879       0.00000000       0.00000000       2.81788373
2
Properties=species:S:1:pos:R:3:forces:R:3 energy=0.13869209621462159 pbc="F F F"
Yb       0.00000000       0.00000000       0.00000000       0.00000000       0.00000000      -2.70846510
Yb       0.00000000       0.00000000       2.76666667       0.00000000       0.00000000       2.70846510
2
Properties=species:S:1:pos:R:3:forces:R:3 energy=-0.015870580632750972 pbc="F F F"
Yb       0.00000000       0.00000000       0.00000000       0.00000000       0.00000000      -2.54117370
Yb       0.00000000       0.00000000       2.82545455       0.00000000       0.00000000       2.54117370
2
Properties=species:S:1:pos:R:3:forces:R:3 energy=-0.15916934531172217 pbc="F F F"
Yb       0.00000000       0.00000000       0.00000000       0.00000000       0.00000000      -2.32693624
Yb       0.00000000       0.00000000       2.88424242       0.00000000       0.00000000       2.32693624
2
Properties=species:S:1:pos:R:3:forces:R:3 energy=-0.28872458405784396 pbc="F F F"
Yb       0.00000000       0.00000000       0.00000000       0.00000000       0.00000000      -2.07507133
Yb       0.00000000       0.00000000       2.94303030       0.00000000       0.00000000       2.07507133
2
Properties=species:S:1:pos:R:3:forces:R:3 energy=-0.40257619942040324 pbc="F F F"
Yb       0.00000000       0.00000000       0.00000000       0.00000000       0.00000000      -1.79406834
Yb       0.00000000       0.00000000       3.00181818       0.00000000       0.00000000       1.79406834
2
Properties=species:S:1:pos:R:3:forces:R:3 energy=-0.49926218122467303 pbc="F F F"
Yb       0.00000000       0.00000000       0.00000000       0.00000000       0.00000000      -1.49259675
Yb       0.00000000       0.00000000       3.06060606       0.00000000       0.00000000       1.49259675
2
Properties=species:S:1:pos:R:3:forces:R:3 energy=-0.5778553044331505 pbc="F F F"
Yb       0.00000000       0.00000000       0.00000000       0.00000000       0.00000000      -1.18026543
Yb       0.00000000       0.00000000       3.11939394       0.00000000       0.00000000       1.18026543
2
Properties=species:S:1:pos:R:3:forces:R:3 energy=-0.6380313738269625 pbc="F F F"
Yb       0.00000000       0.00000000       0.00000000       0.00000000       0.00000000      -0.86790586
Yb       0.00000000       0.00000000       3.17818182       0.00000000       0.00000000       0.86790586
2
Properties=species:S:1:pos:R:3:forces:R:3 energy=-0.6801315634207103 pbc="F F F"
Yb       0.00000000       0.00000000       0.00000000       0.00000000       0.00000000      -0.56734306
Yb       0.00000000       0.00000000       3.23696970       0.00000000       0.00000000       0.56734306
2
Properties=species:S:1:pos:R:3:forces:R:3 energy=-0.7052039235939582 pbc="F F F"
Yb       0.00000000       0.00000000       0.00000000       0.00000000       0.00000000      -0.29056457
Yb       0.00000000       0.00000000       3.29575758       0.00000000       0.00000000       0.29056457
2
Properties=species:S:1:pos:R:3:forces:R:3 energy=-0.714976442835647 pbc="F F F"
Yb       0.00000000       0.00000000       0.00000000       0.00000000       0.00000000      -0.04849309
Yb       0.00000000       0.00000000       3.35454545       0.00000000       0.00000000       0.04849309
2
Properties=species:S:1:pos:R:3:forces:R:3 energy=-0.7117522895370493 pbc="F F F"
Yb       0.00000000       0.00000000       0.00000000       0.00000000       0.00000000       0.15049113
Yb       0.00000000       0.00000000       3.41333333       0.00000000       0.00000000      -0.15049113
2
Properties=species:S:1:pos:R:3:forces:R:3 energy=-0.698219225432154 pbc="F F F"
Yb       0.00000000       0.00000000       0.00000000       0.00000000       0.00000000       0.30183098
Yb       0.00000000       0.00000000       3.47212121       0.00000000       0.00000000      -0.30183098
2
Properties=species:S:1:pos:R:3:forces:R:3 energy=-0.6772008817506624 pbc="F F F"
Yb       0.00000000       0.00000000       0.00000000       0.00000000       0.00000000       0.40552858
Yb       0.00000000       0.00000000       3.53090909       0.00000000       0.00000000      -0.40552858
2
Properties=species:S:1:pos:R:3:forces:R:3 energy=-0.6513889022800122 pbc="F F F"
Yb       0.00000000       0.00000000       0.00000000       0.00000000       0.00000000       0.46595621
Yb       0.00000000       0.00000000       3.58969697       0.00000000       0.00000000      -0.46595621
2
Properties=species:S:1:pos:R:3:forces:R:3 energy=-0.6231153930065096 pbc="F F F"
Yb       0.00000000       0.00000000       0.00000000       0.00000000       0.00000000       0.49071759
Yb       0.00000000       0.00000000       3.64848485       0.00000000       0.00000000      -0.49071759
2
Properties=species:S:1:pos:R:3:forces:R:3 energy=-0.5942132013243797 pbc="F F F"
Yb       0.00000000       0.00000000       0.00000000       0.00000000       0.00000000       0.48889849
Yb       0.00000000       0.00000000       3.70727273       0.00000000       0.00000000      -0.48889849
2
Properties=species:S:1:pos:R:3:forces:R:3 energy=-0.5659792800620617 pbc="F F F"
Yb       0.00000000       0.00000000       0.00000000       0.00000000       0.00000000       0.46933618
Yb       0.00000000       0.00000000       3.76606061       0.00000000       0.00000000      -0.46933618
2
Properties=species:S:1:pos:R:3:forces:R:3 energy=-0.5392318096147353 pbc="F F F"
Yb       0.00000000       0.00000000       0.00000000       0.00000000       0.00000000       0.43944034
Yb       0.00000000       0.00000000       3.82484848       0.00000000       0.00000000      -0.43944034
2
Properties=species:S:1:pos:R:3:forces:R:3 energy=-0.5144045934026595 pbc="F F F"
Yb       0.00000000       0.00000000       0.00000000       0.00000000       0.00000000       0.40476072
Yb       0.00000000       0.00000000       3.88363636       0.00000000       0.00000000      -0.40476072
2
Properties=species:S:1:pos:R:3:forces:R:3 energy=-0.49165896229994527 pbc="F F F"
Yb       0.00000000       0.00000000       0.00000000       0.00000000       0.00000000       0.36915275
Yb       0.00000000       0.00000000       3.94242424       0.00000000       0.00000000      -0.36915275
2
Properties=species:S:1:pos:R:3:forces:R:3 energy=-0.4709690226558193 pbc="F F F"
Yb       0.00000000       0.00000000       0.00000000       0.00000000       0.00000000       0.33517250
Yb       0.00000000       0.00000000       4.00121212       0.00000000       0.00000000      -0.33517250
2
Properties=species:S:1:pos:R:3:forces:R:3 energy=-0.45218691821296175 pbc="F F F"
Yb       0.00000000       0.00000000       0.00000000       0.00000000       0.00000000       0.30443332
Yb       0.00000000       0.00000000       4.06000000       0.00000000       0.00000000      -0.30443332
2
Properties=species:S:1:pos:R:3:forces:R:3 energy=-0.43509341098424176 pbc="F F F"
Yb       0.00000000       0.00000000       0.00000000       0.00000000       0.00000000       0.27783868
Yb       0.00000000       0.00000000       4.11878788       0.00000000       0.00000000      -0.27783868
2
Properties=species:S:1:pos:R:3:forces:R:3 energy=-0.4194319833210728 pbc="F F F"
Yb       0.00000000       0.00000000       0.00000000       0.00000000       0.00000000       0.25570866
Yb       0.00000000       0.00000000       4.17757576       0.00000000       0.00000000      -0.25570866
2
Properties=species:S:1:pos:R:3:forces:R:3 energy=-0.4049432380049911 pbc="F F F"
Yb       0.00000000       0.00000000       0.00000000       0.00000000       0.00000000       0.23789982
Yb       0.00000000       0.00000000       4.23636364       0.00000000       0.00000000      -0.23789982
2
Properties=species:S:1:pos:R:3:forces:R:3 energy=-0.39138481441055445 pbc="F F F"
Yb       0.00000000       0.00000000       0.00000000       0.00000000       0.00000000       0.22394694
Yb       0.00000000       0.00000000       4.29515152       0.00000000       0.00000000      -0.22394694
2
Properties=species:S:1:pos:R:3:forces:R:3 energy=-0.3785493161241835 pbc="F F F"
Yb       0.00000000       0.00000000       0.00000000       0.00000000       0.00000000       0.21322148
Yb       0.00000000       0.00000000       4.35393939       0.00000000       0.00000000      -0.21322148
2
Properties=species:S:1:pos:R:3:forces:R:3 energy=-0.36626520947357893 pbc="F F F"
Yb       0.00000000       0.00000000       0.00000000       0.00000000       0.00000000       0.20506392
Yb       0.00000000       0.00000000       4.41272727       0.00000000       0.00000000      -0.20506392
2
Properties=species:S:1:pos:R:3:forces:R:3 energy=-0.3544000560177799 pbc="F F F"
Yb       0.00000000       0.00000000       0.00000000       0.00000000       0.00000000       0.19887608
Yb       0.00000000       0.00000000       4.47151515       0.00000000       0.00000000      -0.19887608
2
Properties=species:S:1:pos:R:3:forces:R:3 energy=-0.3428536009922162 pbc="F F F"
Yb       0.00000000       0.00000000       0.00000000       0.00000000       0.00000000       0.19414048
Yb       0.00000000       0.00000000       4.53030303       0.00000000       0.00000000      -0.19414048
2
Properties=species:S:1:pos:R:3:forces:R:3 energy=-0.3315545219177482 pbc="F F F"
Yb       0.00000000       0.00000000       0.00000000       0.00000000       0.00000000       0.19039436
Yb       0.00000000       0.00000000       4.58909091       0.00000000       0.00000000      -0.19039436
2
Properties=species:S:1:pos:R:3:forces:R:3 energy=-0.3204574372190655 pbc="F F F"
Yb       0.00000000       0.00000000       0.00000000       0.00000000       0.00000000       0.18719345
Yb       0.00000000       0.00000000       4.64787879       0.00000000       0.00000000      -0.18719345
2
Properties=species:S:1:pos:R:3:forces:R:3 energy=-0.3095431986202132 pbc="F F F"
Yb       0.00000000       0.00000000       0.00000000       0.00000000       0.00000000       0.18408209
Yb       0.00000000       0.00000000       4.70666667       0.00000000       0.00000000      -0.18408209
2
Properties=species:S:1:pos:R:3:forces:R:3 energy=-0.2988208995095598 pbc="F F F"
Yb       0.00000000       0.00000000       0.00000000       0.00000000       0.00000000       0.18061295
Yb       0.00000000       0.00000000       4.76545455       0.00000000       0.00000000      -0.18061295
2
Properties=species:S:1:pos:R:3:forces:R:3 energy=-0.2883218123970644 pbc="F F F"
Yb       0.00000000       0.00000000       0.00000000       0.00000000       0.00000000       0.17639865
Yb       0.00000000       0.00000000       4.82424242       0.00000000       0.00000000      -0.17639865
2
Properties=species:S:1:pos:R:3:forces:R:3 energy=-0.2781007620509786 pbc="F F F"
Yb       0.00000000       0.00000000       0.00000000       0.00000000       0.00000000       0.17117845
Yb       0.00000000       0.00000000       4.88303030       0.00000000       0.00000000      -0.17117845
2
Properties=species:S:1:pos:R:3:forces:R:3 energy=-0.2682173865266829 pbc="F F F"
Yb       0.00000000       0.00000000       0.00000000       0.00000000       0.00000000       0.16486265
Yb       0.00000000       0.00000000       4.94181818       0.00000000       0.00000000      -0.16486265
2
Properties=species:S:1:pos:R:3:forces:R:3 energy=-0.25873594978723524 pbc="F F F"
Yb       0.00000000       0.00000000       0.00000000       0.00000000       0.00000000       0.15755922
Yb       0.00000000       0.00000000       5.00060606       0.00000000       0.00000000      -0.15755922
2
Properties=species:S:1:pos:R:3:forces:R:3 energy=-0.24970624439639108 pbc="F F F"
Yb       0.00000000       0.00000000       0.00000000       0.00000000       0.00000000       0.14952652
Yb       0.00000000       0.00000000       5.05939394       0.00000000       0.00000000      -0.14952652
2
Properties=species:S:1:pos:R:3:forces:R:3 energy=-0.2411629436190497 pbc="F F F"
Yb       0.00000000       0.00000000       0.00000000       0.00000000       0.00000000       0.14110270
Yb       0.00000000       0.00000000       5.11818182       0.00000000       0.00000000      -0.14110270
2
Properties=species:S:1:pos:R:3:forces:R:3 energy=-0.23311772058288133 pbc="F F F"
Yb       0.00000000       0.00000000       0.00000000       0.00000000       0.00000000       0.13260946
Yb       0.00000000       0.00000000       5.17696970       0.00000000       0.00000000      -0.13260946
2
Properties=species:S:1:pos:R:3:forces:R:3 energy=-0.22556854062124154 pbc="F F F"
Yb       0.00000000       0.00000000       0.00000000       0.00000000       0.00000000       0.12426192
Yb       0.00000000       0.00000000       5.23575758       0.00000000       0.00000000      -0.12426192
2
Properties=species:S:1:pos:R:3:forces:R:3 energy=-0.21850355376803585 pbc="F F F"
Yb       0.00000000       0.00000000       0.00000000       0.00000000       0.00000000       0.11612112
Yb       0.00000000       0.00000000       5.29454545       0.00000000       0.00000000      -0.11612112
2
Properties=species:S:1:pos:R:3:forces:R:3 energy=-0.2119129877602516 pbc="F F F"
Yb       0.00000000       0.00000000       0.00000000       0.00000000       0.00000000       0.10809740
Yb       0.00000000       0.00000000       5.35333333       0.00000000       0.00000000      -0.10809740
2
Properties=species:S:1:pos:R:3:forces:R:3 energy=-0.20579535877832458 pbc="F F F"
Yb       0.00000000       0.00000000       0.00000000       0.00000000       0.00000000       0.10001406
Yb       0.00000000       0.00000000       5.41212121       0.00000000       0.00000000      -0.10001406
2
Properties=species:S:1:pos:R:3:forces:R:3 energy=-0.20015833196169006 pbc="F F F"
Yb       0.00000000       0.00000000       0.00000000       0.00000000       0.00000000       0.09169848
Yb       0.00000000       0.00000000       5.47090909       0.00000000       0.00000000      -0.09169848
2
Properties=species:S:1:pos:R:3:forces:R:3 energy=-0.19501974396120797 pbc="F F F"
Yb       0.00000000       0.00000000       0.00000000       0.00000000       0.00000000       0.08305755
Yb       0.00000000       0.00000000       5.52969697       0.00000000       0.00000000      -0.08305755
2
Properties=species:S:1:pos:R:3:forces:R:3 energy=-0.19039819397080515 pbc="F F F"
Yb       0.00000000       0.00000000       0.00000000       0.00000000       0.00000000       0.07414236
Yb       0.00000000       0.00000000       5.58848485       0.00000000       0.00000000      -0.07414236
2
Properties=species:S:1:pos:R:3:forces:R:3 energy=-0.1863052816383876 pbc="F F F"
Yb       0.00000000       0.00000000       0.00000000       0.00000000       0.00000000       0.06515800
Yb       0.00000000       0.00000000       5.64727273       0.00000000       0.00000000      -0.06515800
2
Properties=species:S:1:pos:R:3:forces:R:3 energy=-0.1827328868718755 pbc="F F F"
Yb       0.00000000       0.00000000       0.00000000       0.00000000       0.00000000       0.05643146
Yb       0.00000000       0.00000000       5.70606061       0.00000000       0.00000000      -0.05643146
2
Properties=species:S:1:pos:R:3:forces:R:3 energy=-0.17965456233681212 pbc="F F F"
Yb       0.00000000       0.00000000       0.00000000       0.00000000       0.00000000       0.04836437
Yb       0.00000000       0.00000000       5.76484848       0.00000000       0.00000000      -0.04836437
2
Properties=species:S:1:pos:R:3:forces:R:3 energy=-0.17702360651682209 pbc="F F F"
Yb       0.00000000       0.00000000       0.00000000       0.00000000       0.00000000       0.04136874
Yb       0.00000000       0.00000000       5.82363636       0.00000000       0.00000000      -0.04136874
2
Properties=species:S:1:pos:R:3:forces:R:3 energy=-0.17476419189500378 pbc="F F F"
Yb       0.00000000       0.00000000       0.00000000       0.00000000       0.00000000       0.03581650
Yb       0.00000000       0.00000000       5.88242424       0.00000000       0.00000000      -0.03581650
2
Properties=species:S:1:pos:R:3:forces:R:3 energy=-0.17277861665173844 pbc="F F F"
Yb       0.00000000       0.00000000       0.00000000       0.00000000       0.00000000       0.03201885
Yb       0.00000000       0.00000000       5.94121212       0.00000000       0.00000000      -0.03201885
2
Properties=species:S:1:pos:R:3:forces:R:3 energy=-0.1709597390467147 pbc="F F F"
Yb       0.00000000       0.00000000       0.00000000       0.00000000       0.00000000       0.03022114
Yb       0.00000000       0.00000000       6.00000000       0.00000000       0.00000000      -0.03022114
