2
Properties=species:S:1:pos:R:3:forces:R:3 energy=2320.3500115074817 pbc="F F F"
Ca       0.00000000       0.00000000       0.00000000       0.00000000       0.00000000  -34714.80078125
Ca       0.00000000       0.00000000       0.18000000       0.00000000       0.00000000   34714.80078125
2
Properties=species:S:1:pos:R:3:forces:R:3 energy=1042.9775749840444 pbc="F F F"
Ca       0.00000000       0.00000000       0.00000000       0.00000000       0.00000000  -12966.97558594
Ca       0.00000000       0.00000000       0.23878788       0.00000000       0.00000000   12966.97558594
2
Properties=species:S:1:pos:R:3:forces:R:3 energy=529.3943840660756 pbc="F F F"
Ca       0.00000000       0.00000000       0.00000000       0.00000000       0.00000000   -5681.18798828
Ca       0.00000000       0.00000000       0.29757576       0.00000000       0.00000000    5681.18798828
2
Properties=species:S:1:pos:R:3:forces:R:3 energy=293.04962698599746 pbc="F F F"
Ca       0.00000000       0.00000000       0.00000000       0.00000000       0.00000000   -2763.56933594
Ca       0.00000000       0.00000000       0.35636364       0.00000000       0.00000000    2763.56933594
2
Properties=species:S:1:pos:R:3:forces:R:3 energy=174.15991752601252 pbc="F F F"
Ca       0.00000000       0.00000000       0.00000000       0.00000000       0.00000000   -1442.82531738
Ca       0.00000000       0.00000000       0.41515152       0.00000000       0.00000000    1442.82531738
2
Properties=species:S:1:pos:R:3:forces:R:3 energy=110.6122567110471 pbc="F F F"
Ca       0.00000000       0.00000000       0.00000000       0.00000000       0.00000000    -791.33740234
Ca       0.00000000       0.00000000       0.47393939       0.00000000       0.00000000     791.33740234
2
Properties=species:S:1:pos:R:3:forces:R:3 energy=75.17278073587737 pbc="F F F"
Ca       0.00000000       0.00000000       0.00000000       0.00000000       0.00000000    -449.26785278
Ca       0.00000000       0.00000000       0.53272727       0.00000000       0.00000000     449.26785278
2
Properties=species:S:1:pos:R:3:forces:R:3 energy=54.83055666546877 pbc="F F F"
Ca       0.00000000       0.00000000       0.00000000       0.00000000       0.00000000    -260.69515991
Ca       0.00000000       0.00000000       0.59151515       0.00000000       0.00000000     260.69515991
2
Properties=species:S:1:pos:R:3:forces:R:3 energy=42.969358328874826 pbc="F F F"
Ca       0.00000000       0.00000000       0.00000000       0.00000000       0.00000000    -152.47006226
Ca       0.00000000       0.00000000       0.65030303       0.00000000       0.00000000     152.47006226
2
Properties=species:S:1:pos:R:3:forces:R:3 energy=36.04627802392306 pbc="F F F"
Ca       0.00000000       0.00000000       0.00000000       0.00000000       0.00000000     -88.56732941
Ca       0.00000000       0.00000000       0.70909091       0.00000000       0.00000000      88.56732941
2
Properties=species:S:1:pos:R:3:forces:R:3 energy=32.04806351765528 pbc="F F F"
Ca       0.00000000       0.00000000       0.00000000       0.00000000       0.00000000     -50.84645844
Ca       0.00000000       0.00000000       0.76787879       0.00000000       0.00000000      50.84645844
2
Properties=species:S:1:pos:R:3:forces:R:3 energy=29.751101109071673 pbc="F F F"
Ca       0.00000000       0.00000000       0.00000000       0.00000000       0.00000000     -29.37295532
Ca       0.00000000       0.00000000       0.82666667       0.00000000       0.00000000      29.37295532
2
Properties=species:S:1:pos:R:3:forces:R:3 energy=28.413306294998414 pbc="F F F"
Ca       0.00000000       0.00000000       0.00000000       0.00000000       0.00000000     -17.22398758
Ca       0.00000000       0.00000000       0.88545455       0.00000000       0.00000000      17.22398758
2
Properties=species:S:1:pos:R:3:forces:R:3 energy=27.632817960667335 pbc="F F F"
Ca       0.00000000       0.00000000       0.00000000       0.00000000       0.00000000      -9.94620419
Ca       0.00000000       0.00000000       0.94424242       0.00000000       0.00000000       9.94620419
2
Properties=species:S:1:pos:R:3:forces:R:3 energy=27.176520019532536 pbc="F F F"
Ca       0.00000000       0.00000000       0.00000000       0.00000000       0.00000000      -6.15198803
Ca       0.00000000       0.00000000       1.00303030       0.00000000       0.00000000       6.15198803
2
Properties=species:S:1:pos:R:3:forces:R:3 energy=26.839065448450658 pbc="F F F"
Ca       0.00000000       0.00000000       0.00000000       0.00000000       0.00000000      -5.94973898
Ca       0.00000000       0.00000000       1.06181818       0.00000000       0.00000000       5.94973898
2
Properties=species:S:1:pos:R:3:forces:R:3 energy=26.40341524051564 pbc="F F F"
Ca       0.00000000       0.00000000       0.00000000       0.00000000       0.00000000      -9.47474861
Ca       0.00000000       0.00000000       1.12060606       0.00000000       0.00000000       9.47474861
2
Properties=species:S:1:pos:R:3:forces:R:3 energy=25.66310280962181 pbc="F F F"
Ca       0.00000000       0.00000000       0.00000000       0.00000000       0.00000000     -16.12589455
Ca       0.00000000       0.00000000       1.17939394       0.00000000       0.00000000      16.12589455
2
Properties=species:S:1:pos:R:3:forces:R:3 energy=24.4751744098014 pbc="F F F"
Ca       0.00000000       0.00000000       0.00000000       0.00000000       0.00000000     -24.42195320
Ca       0.00000000       0.00000000       1.23818182       0.00000000       0.00000000      24.42195320
2
Properties=species:S:1:pos:R:3:forces:R:3 energy=22.790763895794633 pbc="F F F"
Ca       0.00000000       0.00000000       0.00000000       0.00000000       0.00000000     -32.77297974
Ca       0.00000000       0.00000000       1.29696970       0.00000000       0.00000000      32.77297974
2
Properties=species:S:1:pos:R:3:forces:R:3 energy=20.64811949446205 pbc="F F F"
Ca       0.00000000       0.00000000       0.00000000       0.00000000       0.00000000     -39.78303528
Ca       0.00000000       0.00000000       1.35575758       0.00000000       0.00000000      39.78303528
2
Properties=species:S:1:pos:R:3:forces:R:3 energy=18.16688746826068 pbc="F F F"
Ca       0.00000000       0.00000000       0.00000000       0.00000000       0.00000000     -44.04907990
Ca       0.00000000       0.00000000       1.41454545       0.00000000       0.00000000      44.04907990
2
Properties=species:S:1:pos:R:3:forces:R:3 energy=15.552625855783576 pbc="F F F"
Ca       0.00000000       0.00000000       0.00000000       0.00000000       0.00000000     -44.06792068
Ca       0.00000000       0.00000000       1.47333333       0.00000000       0.00000000      44.06792068
2
Properties=species:S:1:pos:R:3:forces:R:3 energy=13.081878527705047 pbc="F F F"
Ca       0.00000000       0.00000000       0.00000000       0.00000000       0.00000000     -39.30514526
Ca       0.00000000       0.00000000       1.53212121       0.00000000       0.00000000      39.30514526
2
Properties=species:S:1:pos:R:3:forces:R:3 energy=10.974249301306626 pbc="F F F"
Ca       0.00000000       0.00000000       0.00000000       0.00000000       0.00000000     -32.38345337
Ca       0.00000000       0.00000000       1.59090909       0.00000000       0.00000000      32.38345337
2
Properties=species:S:1:pos:R:3:forces:R:3 energy=9.248194965087226 pbc="F F F"
Ca       0.00000000       0.00000000       0.00000000       0.00000000       0.00000000     -26.66923332
Ca       0.00000000       0.00000000       1.64969697       0.00000000       0.00000000      26.66923332
2
Properties=species:S:1:pos:R:3:forces:R:3 energy=7.8041384722751035 pbc="F F F"
Ca       0.00000000       0.00000000       0.00000000       0.00000000       0.00000000     -22.67023849
Ca       0.00000000       0.00000000       1.70848485       0.00000000       0.00000000      22.67023849
2
Properties=species:S:1:pos:R:3:forces:R:3 energy=6.567685048602959 pbc="F F F"
Ca       0.00000000       0.00000000       0.00000000       0.00000000       0.00000000     -19.45837975
Ca       0.00000000       0.00000000       1.76727273       0.00000000       0.00000000      19.45837975
2
Properties=species:S:1:pos:R:3:forces:R:3 energy=5.512359733373559 pbc="F F F"
Ca       0.00000000       0.00000000       0.00000000       0.00000000       0.00000000     -16.46621704
Ca       0.00000000       0.00000000       1.82606061       0.00000000       0.00000000      16.46621704
2
Properties=species:S:1:pos:R:3:forces:R:3 energy=4.628536218736639 pbc="F F F"
Ca       0.00000000       0.00000000       0.00000000       0.00000000       0.00000000     -13.63825703
Ca       0.00000000       0.00000000       1.88484848       0.00000000       0.00000000      13.63825703
2
Properties=species:S:1:pos:R:3:forces:R:3 energy=3.903317119279236 pbc="F F F"
Ca       0.00000000       0.00000000       0.00000000       0.00000000       0.00000000     -11.09025478
Ca       0.00000000       0.00000000       1.94363636       0.00000000       0.00000000      11.09025478
2
Properties=species:S:1:pos:R:3:forces:R:3 energy=3.3171210607510098 pbc="F F F"
Ca       0.00000000       0.00000000       0.00000000       0.00000000       0.00000000      -8.92212296
Ca       0.00000000       0.00000000       2.00242424       0.00000000       0.00000000       8.92212296
2
Properties=species:S:1:pos:R:3:forces:R:3 energy=2.845595537666946 pbc="F F F"
Ca       0.00000000       0.00000000       0.00000000       0.00000000       0.00000000      -7.19624138
Ca       0.00000000       0.00000000       2.06121212       0.00000000       0.00000000       7.19624138
2
Properties=species:S:1:pos:R:3:forces:R:3 energy=2.462017222862734 pbc="F F F"
Ca       0.00000000       0.00000000       0.00000000       0.00000000       0.00000000      -5.92732286
Ca       0.00000000       0.00000000       2.12000000       0.00000000       0.00000000       5.92732286
2
Properties=species:S:1:pos:R:3:forces:R:3 energy=2.140700827989509 pbc="F F F"
Ca       0.00000000       0.00000000       0.00000000       0.00000000       0.00000000      -5.06439495
Ca       0.00000000       0.00000000       2.17878788       0.00000000       0.00000000       5.06439495
2
Properties=species:S:1:pos:R:3:forces:R:3 energy=1.860505523220796 pbc="F F F"
Ca       0.00000000       0.00000000       0.00000000       0.00000000       0.00000000      -4.51065493
Ca       0.00000000       0.00000000       2.23757576       0.00000000       0.00000000       4.51065493
2
Properties=species:S:1:pos:R:3:forces:R:3 energy=1.606324064019616 pbc="F F F"
Ca       0.00000000       0.00000000       0.00000000       0.00000000       0.00000000      -4.16347742
Ca       0.00000000       0.00000000       2.29636364       0.00000000       0.00000000       4.16347742
2
Properties=species:S:1:pos:R:3:forces:R:3 energy=1.3685857442539047 pbc="F F F"
Ca       0.00000000       0.00000000       0.00000000       0.00000000       0.00000000      -3.93936825
Ca       0.00000000       0.00000000       2.35515152       0.00000000       0.00000000       3.93936825
2
Properties=species:S:1:pos:R:3:forces:R:3 energy=1.1419350804311332 pbc="F F F"
Ca       0.00000000       0.00000000       0.00000000       0.00000000       0.00000000      -3.77776718
Ca       0.00000000       0.00000000       2.41393939       0.00000000       0.00000000       3.77776718
2
Properties=species:S:1:pos:R:3:forces:R:3 energy=0.9240486266533423 pbc="F F F"
Ca       0.00000000       0.00000000       0.00000000       0.00000000       0.00000000      -3.63501573
Ca       0.00000000       0.00000000       2.47272727       0.00000000       0.00000000       3.63501573
2
Properties=species:S:1:pos:R:3:forces:R:3 energy=0.7148122704642991 pbc="F F F"
Ca       0.00000000       0.00000000       0.00000000       0.00000000       0.00000000      -3.47900844
Ca       0.00000000       0.00000000       2.53151515       0.00000000       0.00000000       3.47900844
2
Properties=species:S:1:pos:R:3:forces:R:3 energy=0.5156953869111424 pbc="F F F"
Ca       0.00000000       0.00000000       0.00000000       0.00000000       0.00000000      -3.28806543
Ca       0.00000000       0.00000000       2.59030303       0.00000000       0.00000000       3.28806543
2
Properties=species:S:1:pos:R:3:forces:R:3 energy=0.3291035858311288 pbc="F F F"
Ca       0.00000000       0.00000000       0.00000000       0.00000000       0.00000000      -3.05222011
Ca       0.00000000       0.00000000       2.64909091       0.00000000       0.00000000       3.05222011
2
Properties=species:S:1:pos:R:3:forces:R:3 energy=0.15765913690142214 pbc="F F F"
Ca       0.00000000       0.00000000       0.00000000       0.00000000       0.00000000      -2.77430010
Ca       0.00000000       0.00000000       2.70787879       0.00000000       0.00000000       2.77430010
2
Properties=species:S:1:pos:R:3:forces:R:3 energy=0.0034551277995285984 pbc="F F F"
Ca       0.00000000       0.00000000       0.00000000       0.00000000       0.00000000      -2.46901369
Ca       0.00000000       0.00000000       2.76666667       0.00000000       0.00000000       2.46901369
2
Properties=species:S:1:pos:R:3:forces:R:3 energy=-0.13254260657250658 pbc="F F F"
Ca       0.00000000       0.00000000       0.00000000       0.00000000       0.00000000      -2.15899706
Ca       0.00000000       0.00000000       2.82545455       0.00000000       0.00000000       2.15899706
2
Properties=species:S:1:pos:R:3:forces:R:3 energy=-0.25076937504047025 pbc="F F F"
Ca       0.00000000       0.00000000       0.00000000       0.00000000       0.00000000      -1.86808372
Ca       0.00000000       0.00000000       2.88424242       0.00000000       0.00000000       1.86808372
2
Properties=species:S:1:pos:R:3:forces:R:3 energy=-0.35291578205196106 pbc="F F F"
Ca       0.00000000       0.00000000       0.00000000       0.00000000       0.00000000      -1.61409378
Ca       0.00000000       0.00000000       2.94303030       0.00000000       0.00000000       1.61409378
2
Properties=species:S:1:pos:R:3:forces:R:3 energy=-0.4414237220555633 pbc="F F F"
Ca       0.00000000       0.00000000       0.00000000       0.00000000       0.00000000      -1.40441251
Ca       0.00000000       0.00000000       3.00181818       0.00000000       0.00000000       1.40441251
2
Properties=species:S:1:pos:R:3:forces:R:3 energy=-0.518857119284802 pbc="F F F"
Ca       0.00000000       0.00000000       0.00000000       0.00000000       0.00000000      -1.23622906
Ca       0.00000000       0.00000000       3.06060606       0.00000000       0.00000000       1.23622906
2
Properties=species:S:1:pos:R:3:forces:R:3 energy=-0.5874064297803485 pbc="F F F"
Ca       0.00000000       0.00000000       0.00000000       0.00000000       0.00000000      -1.10030234
Ca       0.00000000       0.00000000       3.11939394       0.00000000       0.00000000       1.10030234
2
Properties=species:S:1:pos:R:3:forces:R:3 energy=-0.6486354128967121 pbc="F F F"
Ca       0.00000000       0.00000000       0.00000000       0.00000000       0.00000000      -0.98524874
Ca       0.00000000       0.00000000       3.17818182       0.00000000       0.00000000       0.98524874
2
Properties=species:S:1:pos:R:3:forces:R:3 energy=-0.7034437033729986 pbc="F F F"
Ca       0.00000000       0.00000000       0.00000000       0.00000000       0.00000000      -0.88023746
Ca       0.00000000       0.00000000       3.23696970       0.00000000       0.00000000       0.88023746
2
Properties=species:S:1:pos:R:3:forces:R:3 energy=-0.7521485959132541 pbc="F F F"
Ca       0.00000000       0.00000000       0.00000000       0.00000000       0.00000000      -0.77629614
Ca       0.00000000       0.00000000       3.29575758       0.00000000       0.00000000       0.77629614
2
Properties=species:S:1:pos:R:3:forces:R:3 energy=-0.7946165295648627 pbc="F F F"
Ca       0.00000000       0.00000000       0.00000000       0.00000000       0.00000000      -0.66733313
Ca       0.00000000       0.00000000       3.35454545       0.00000000       0.00000000       0.66733313
2
Properties=species:S:1:pos:R:3:forces:R:3 energy=-0.8304639912614639 pbc="F F F"
Ca       0.00000000       0.00000000       0.00000000       0.00000000       0.00000000      -0.55102116
Ca       0.00000000       0.00000000       3.41333333       0.00000000       0.00000000       0.55102116
2
Properties=species:S:1:pos:R:3:forces:R:3 energy=-0.8592867039295362 pbc="F F F"
Ca       0.00000000       0.00000000       0.00000000       0.00000000       0.00000000      -0.42884561
Ca       0.00000000       0.00000000       3.47212121       0.00000000       0.00000000       0.42884561
2
Properties=species:S:1:pos:R:3:forces:R:3 energy=-0.880853755736701 pbc="F F F"
Ca       0.00000000       0.00000000       0.00000000       0.00000000       0.00000000      -0.30505854
Ca       0.00000000       0.00000000       3.53090909       0.00000000       0.00000000       0.30505854
2
Properties=species:S:1:pos:R:3:forces:R:3 energy=-0.8952292863702505 pbc="F F F"
Ca       0.00000000       0.00000000       0.00000000       0.00000000       0.00000000      -0.18511236
Ca       0.00000000       0.00000000       3.58969697       0.00000000       0.00000000       0.18511236
2
Properties=species:S:1:pos:R:3:forces:R:3 energy=-0.9027993848679973 pbc="F F F"
Ca       0.00000000       0.00000000       0.00000000       0.00000000       0.00000000      -0.07436419
Ca       0.00000000       0.00000000       3.64848485       0.00000000       0.00000000       0.07436419
2
Properties=species:S:1:pos:R:3:forces:R:3 energy=-0.9042414607521622 pbc="F F F"
Ca       0.00000000       0.00000000       0.00000000       0.00000000       0.00000000       0.02272276
Ca       0.00000000       0.00000000       3.70727273       0.00000000       0.00000000      -0.02272276
2
Properties=species:S:1:pos:R:3:forces:R:3 energy=-0.900458416281407 pbc="F F F"
Ca       0.00000000       0.00000000       0.00000000       0.00000000       0.00000000       0.10298429
Ca       0.00000000       0.00000000       3.76606061       0.00000000       0.00000000      -0.10298429
2
Properties=species:S:1:pos:R:3:forces:R:3 energy=-0.8924961404097833 pbc="F F F"
Ca       0.00000000       0.00000000       0.00000000       0.00000000       0.00000000       0.16476133
Ca       0.00000000       0.00000000       3.82484848       0.00000000       0.00000000      -0.16476133
2
Properties=species:S:1:pos:R:3:forces:R:3 energy=-0.8814483781425039 pbc="F F F"
Ca       0.00000000       0.00000000       0.00000000       0.00000000       0.00000000       0.20815393
Ca       0.00000000       0.00000000       3.88363636       0.00000000       0.00000000      -0.20815393
2
Properties=species:S:1:pos:R:3:forces:R:3 energy=-0.868338025500682 pbc="F F F"
Ca       0.00000000       0.00000000       0.00000000       0.00000000       0.00000000       0.23553857
Ca       0.00000000       0.00000000       3.94242424       0.00000000       0.00000000      -0.23553857
2
Properties=species:S:1:pos:R:3:forces:R:3 energy=-0.8539637652424509 pbc="F F F"
Ca       0.00000000       0.00000000       0.00000000       0.00000000       0.00000000       0.25235629
Ca       0.00000000       0.00000000       4.00121212       0.00000000       0.00000000      -0.25235629
2
Properties=species:S:1:pos:R:3:forces:R:3 energy=-0.8387126993048357 pbc="F F F"
Ca       0.00000000       0.00000000       0.00000000       0.00000000       0.00000000       0.26684323
Ca       0.00000000       0.00000000       4.06000000       0.00000000       0.00000000      -0.26684323
2
Properties=species:S:1:pos:R:3:forces:R:3 energy=-0.8224793746106841 pbc="F F F"
Ca       0.00000000       0.00000000       0.00000000       0.00000000       0.00000000       0.28676671
Ca       0.00000000       0.00000000       4.11878788       0.00000000       0.00000000      -0.28676671
2
Properties=species:S:1:pos:R:3:forces:R:3 energy=-0.8048364668329111 pbc="F F F"
Ca       0.00000000       0.00000000       0.00000000       0.00000000       0.00000000       0.31458342
Ca       0.00000000       0.00000000       4.17757576       0.00000000       0.00000000      -0.31458342
2
Properties=species:S:1:pos:R:3:forces:R:3 energy=-0.7854101315296571 pbc="F F F"
Ca       0.00000000       0.00000000       0.00000000       0.00000000       0.00000000       0.34647301
Ca       0.00000000       0.00000000       4.23636364       0.00000000       0.00000000      -0.34647301
2
Properties=species:S:1:pos:R:3:forces:R:3 energy=-0.7641403411706333 pbc="F F F"
Ca       0.00000000       0.00000000       0.00000000       0.00000000       0.00000000       0.37634662
Ca       0.00000000       0.00000000       4.29515152       0.00000000       0.00000000      -0.37634662
2
Properties=species:S:1:pos:R:3:forces:R:3 energy=-0.7412898274778466 pbc="F F F"
Ca       0.00000000       0.00000000       0.00000000       0.00000000       0.00000000       0.39974633
Ca       0.00000000       0.00000000       4.35393939       0.00000000       0.00000000      -0.39974633
2
Properties=species:S:1:pos:R:3:forces:R:3 energy=-0.7173068675190467 pbc="F F F"
Ca       0.00000000       0.00000000       0.00000000       0.00000000       0.00000000       0.41469741
Ca       0.00000000       0.00000000       4.41272727       0.00000000       0.00000000      -0.41469741
2
Properties=species:S:1:pos:R:3:forces:R:3 energy=-0.692703373455458 pbc="F F F"
Ca       0.00000000       0.00000000       0.00000000       0.00000000       0.00000000       0.42089564
Ca       0.00000000       0.00000000       4.47151515       0.00000000       0.00000000      -0.42089564
2
Properties=species:S:1:pos:R:3:forces:R:3 energy=-0.6679800016768357 pbc="F F F"
Ca       0.00000000       0.00000000       0.00000000       0.00000000       0.00000000       0.41891658
Ca       0.00000000       0.00000000       4.53030303       0.00000000       0.00000000      -0.41891658
2
Properties=species:S:1:pos:R:3:forces:R:3 energy=-0.6435878627710157 pbc="F F F"
Ca       0.00000000       0.00000000       0.00000000       0.00000000       0.00000000       0.40987688
Ca       0.00000000       0.00000000       4.58909091       0.00000000       0.00000000      -0.40987688
2
Properties=species:S:1:pos:R:3:forces:R:3 energy=-0.6198970293136725 pbc="F F F"
Ca       0.00000000       0.00000000       0.00000000       0.00000000       0.00000000       0.39533305
Ca       0.00000000       0.00000000       4.64787879       0.00000000       0.00000000      -0.39533305
2
Properties=species:S:1:pos:R:3:forces:R:3 energy=-0.5971773079842041 pbc="F F F"
Ca       0.00000000       0.00000000       0.00000000       0.00000000       0.00000000       0.37714672
Ca       0.00000000       0.00000000       4.70666667       0.00000000       0.00000000      -0.37714672
2
Properties=species:S:1:pos:R:3:forces:R:3 energy=-0.5755866802938432 pbc="F F F"
Ca       0.00000000       0.00000000       0.00000000       0.00000000       0.00000000       0.35727072
Ca       0.00000000       0.00000000       4.76545455       0.00000000       0.00000000      -0.35727072
2
Properties=species:S:1:pos:R:3:forces:R:3 energy=-0.5551703821784314 pbc="F F F"
Ca       0.00000000       0.00000000       0.00000000       0.00000000       0.00000000       0.33736897
Ca       0.00000000       0.00000000       4.82424242       0.00000000       0.00000000      -0.33736897
2
Properties=species:S:1:pos:R:3:forces:R:3 energy=-0.5359014497367216 pbc="F F F"
Ca       0.00000000       0.00000000       0.00000000       0.00000000       0.00000000       0.31842485
Ca       0.00000000       0.00000000       4.88303030       0.00000000       0.00000000      -0.31842485
2
Properties=species:S:1:pos:R:3:forces:R:3 energy=-0.517713032095865 pbc="F F F"
Ca       0.00000000       0.00000000       0.00000000       0.00000000       0.00000000       0.30042401
Ca       0.00000000       0.00000000       4.94181818       0.00000000       0.00000000      -0.30042401
2
Properties=species:S:1:pos:R:3:forces:R:3 energy=-0.5005764586291788 pbc="F F F"
Ca       0.00000000       0.00000000       0.00000000       0.00000000       0.00000000       0.28251034
Ca       0.00000000       0.00000000       5.00060606       0.00000000       0.00000000      -0.28251034
2
Properties=species:S:1:pos:R:3:forces:R:3 energy=-0.484508676581634 pbc="F F F"
Ca       0.00000000       0.00000000       0.00000000       0.00000000       0.00000000       0.26403579
Ca       0.00000000       0.00000000       5.05939394       0.00000000       0.00000000      -0.26403579
2
Properties=species:S:1:pos:R:3:forces:R:3 energy=-0.46950864654235663 pbc="F F F"
Ca       0.00000000       0.00000000       0.00000000       0.00000000       0.00000000       0.24693212
Ca       0.00000000       0.00000000       5.11818182       0.00000000       0.00000000      -0.24693212
2
Properties=species:S:1:pos:R:3:forces:R:3 energy=-0.45532145377113625 pbc="F F F"
Ca       0.00000000       0.00000000       0.00000000       0.00000000       0.00000000       0.23781818
Ca       0.00000000       0.00000000       5.17696970       0.00000000       0.00000000      -0.23781818
2
Properties=species:S:1:pos:R:3:forces:R:3 energy=-0.44122245581713215 pbc="F F F"
Ca       0.00000000       0.00000000       0.00000000       0.00000000       0.00000000       0.24497531
Ca       0.00000000       0.00000000       5.23575758       0.00000000       0.00000000      -0.24497531
2
Properties=species:S:1:pos:R:3:forces:R:3 energy=-0.42620425361798503 pbc="F F F"
Ca       0.00000000       0.00000000       0.00000000       0.00000000       0.00000000       0.26754481
Ca       0.00000000       0.00000000       5.29454545       0.00000000       0.00000000      -0.26754481
2
Properties=species:S:1:pos:R:3:forces:R:3 energy=-0.40978521417107117 pbc="F F F"
Ca       0.00000000       0.00000000       0.00000000       0.00000000       0.00000000       0.28900203
Ca       0.00000000       0.00000000       5.35333333       0.00000000       0.00000000      -0.28900203
2
Properties=species:S:1:pos:R:3:forces:R:3 energy=-0.39260996527882985 pbc="F F F"
Ca       0.00000000       0.00000000       0.00000000       0.00000000       0.00000000       0.29164720
Ca       0.00000000       0.00000000       5.41212121       0.00000000       0.00000000      -0.29164720
2
Properties=species:S:1:pos:R:3:forces:R:3 energy=-0.3758116441486528 pbc="F F F"
Ca       0.00000000       0.00000000       0.00000000       0.00000000       0.00000000       0.27895263
Ca       0.00000000       0.00000000       5.47090909       0.00000000       0.00000000      -0.27895263
2
Properties=species:S:1:pos:R:3:forces:R:3 energy=-0.35959556923988534 pbc="F F F"
Ca       0.00000000       0.00000000       0.00000000       0.00000000       0.00000000       0.27722064
Ca       0.00000000       0.00000000       5.52969697       0.00000000       0.00000000      -0.27722064
2
Properties=species:S:1:pos:R:3:forces:R:3 energy=-0.3424675438476695 pbc="F F F"
Ca       0.00000000       0.00000000       0.00000000       0.00000000       0.00000000       0.31256247
Ca       0.00000000       0.00000000       5.58848485       0.00000000       0.00000000      -0.31256247
2
Properties=species:S:1:pos:R:3:forces:R:3 energy=-0.32223643298653726 pbc="F F F"
Ca       0.00000000       0.00000000       0.00000000       0.00000000       0.00000000       0.37795395
Ca       0.00000000       0.00000000       5.64727273       0.00000000       0.00000000      -0.37795395
2
Properties=species:S:1:pos:R:3:forces:R:3 energy=-0.29839873707162257 pbc="F F F"
Ca       0.00000000       0.00000000       0.00000000       0.00000000       0.00000000       0.42443320
Ca       0.00000000       0.00000000       5.70606061       0.00000000       0.00000000      -0.42443320
2
Properties=species:S:1:pos:R:3:forces:R:3 energy=-0.27368438498793923 pbc="F F F"
Ca       0.00000000       0.00000000       0.00000000       0.00000000       0.00000000       0.40103731
Ca       0.00000000       0.00000000       5.76484848       0.00000000       0.00000000      -0.40103731
2
Properties=species:S:1:pos:R:3:forces:R:3 energy=-0.2526997548025423 pbc="F F F"
Ca       0.00000000       0.00000000       0.00000000       0.00000000       0.00000000       0.30365369
Ca       0.00000000       0.00000000       5.82363636       0.00000000       0.00000000      -0.30365369
2
Properties=species:S:1:pos:R:3:forces:R:3 energy=-0.23861858486155163 pbc="F F F"
Ca       0.00000000       0.00000000       0.00000000       0.00000000       0.00000000       0.17694369
Ca       0.00000000       0.00000000       5.88242424       0.00000000       0.00000000      -0.17694369
2
Properties=species:S:1:pos:R:3:forces:R:3 energy=-0.2313832383053874 pbc="F F F"
Ca       0.00000000       0.00000000       0.00000000       0.00000000       0.00000000       0.07634131
Ca       0.00000000       0.00000000       5.94121212       0.00000000       0.00000000      -0.07634131
2
Properties=species:S:1:pos:R:3:forces:R:3 energy=-0.2284001592686199 pbc="F F F"
Ca       0.00000000       0.00000000       0.00000000       0.00000000       0.00000000       0.03754949
Ca       0.00000000       0.00000000       6.00000000       0.00000000       0.00000000      -0.03754949
