2
Properties=species:S:1:pos:R:3:forces:R:3 energy=1877.132207468455 pbc="F F F"
Cl       0.00000000       0.00000000       0.00000000       0.00000000       0.00000000  -26744.01562500
Cl       0.00000000       0.00000000       0.18000000       0.00000000       0.00000000   26744.01562500
2
Properties=species:S:1:pos:R:3:forces:R:3 energy=887.1276298317363 pbc="F F F"
Cl       0.00000000       0.00000000       0.00000000       0.00000000       0.00000000  -10124.70410156
Cl       0.00000000       0.00000000       0.23878788       0.00000000       0.00000000   10124.70410156
2
Properties=species:S:1:pos:R:3:forces:R:3 energy=484.40537031658755 pbc="F F F"
Cl       0.00000000       0.00000000       0.00000000       0.00000000       0.00000000   -4475.47119141
Cl       0.00000000       0.00000000       0.29757576       0.00000000       0.00000000    4475.47119141
2
Properties=species:S:1:pos:R:3:forces:R:3 energy=298.01059493229815 pbc="F F F"
Cl       0.00000000       0.00000000       0.00000000       0.00000000       0.00000000   -2176.79418945
Cl       0.00000000       0.00000000       0.35636364       0.00000000       0.00000000    2176.79418945
2
Properties=species:S:1:pos:R:3:forces:R:3 energy=205.15044175306292 pbc="F F F"
Cl       0.00000000       0.00000000       0.00000000       0.00000000       0.00000000   -1106.75048828
Cl       0.00000000       0.00000000       0.41515152       0.00000000       0.00000000    1106.75048828
2
Properties=species:S:1:pos:R:3:forces:R:3 energy=157.96916737384646 pbc="F F F"
Cl       0.00000000       0.00000000       0.00000000       0.00000000       0.00000000    -555.57006836
Cl       0.00000000       0.00000000       0.47393939       0.00000000       0.00000000     555.57006836
2
Properties=species:S:1:pos:R:3:forces:R:3 energy=134.9548089198629 pbc="F F F"
Cl       0.00000000       0.00000000       0.00000000       0.00000000       0.00000000    -257.57550049
Cl       0.00000000       0.00000000       0.53272727       0.00000000       0.00000000     257.57550049
2
Properties=species:S:1:pos:R:3:forces:R:3 energy=124.91621192697092 pbc="F F F"
Cl       0.00000000       0.00000000       0.00000000       0.00000000       0.00000000    -102.86824036
Cl       0.00000000       0.00000000       0.59151515       0.00000000       0.00000000     102.86824036
2
Properties=species:S:1:pos:R:3:forces:R:3 energy=120.96835902866134 pbc="F F F"
Cl       0.00000000       0.00000000       0.00000000       0.00000000       0.00000000     -45.24772644
Cl       0.00000000       0.00000000       0.65030303       0.00000000       0.00000000      45.24772644
2
Properties=species:S:1:pos:R:3:forces:R:3 energy=118.2125686159874 pbc="F F F"
Cl       0.00000000       0.00000000       0.00000000       0.00000000       0.00000000     -58.24278641
Cl       0.00000000       0.00000000       0.70909091       0.00000000       0.00000000      58.24278641
2
Properties=species:S:1:pos:R:3:forces:R:3 energy=113.22816355457566 pbc="F F F"
Cl       0.00000000       0.00000000       0.00000000       0.00000000       0.00000000    -116.58476257
Cl       0.00000000       0.00000000       0.76787879       0.00000000       0.00000000     116.58476257
2
Properties=species:S:1:pos:R:3:forces:R:3 energy=104.21588090095865 pbc="F F F"
Cl       0.00000000       0.00000000       0.00000000       0.00000000       0.00000000    -189.16273499
Cl       0.00000000       0.00000000       0.82666667       0.00000000       0.00000000     189.16273499
2
Properties=species:S:1:pos:R:3:forces:R:3 energy=91.5180592931758 pbc="F F F"
Cl       0.00000000       0.00000000       0.00000000       0.00000000       0.00000000    -235.66871643
Cl       0.00000000       0.00000000       0.88545455       0.00000000       0.00000000     235.66871643
2
Properties=species:S:1:pos:R:3:forces:R:3 energy=77.25923343002755 pbc="F F F"
Cl       0.00000000       0.00000000       0.00000000       0.00000000       0.00000000    -245.29809570
Cl       0.00000000       0.00000000       0.94424242       0.00000000       0.00000000     245.29809570
2
Properties=species:S:1:pos:R:3:forces:R:3 energy=63.01064671802397 pbc="F F F"
Cl       0.00000000       0.00000000       0.00000000       0.00000000       0.00000000    -236.69477844
Cl       0.00000000       0.00000000       1.00303030       0.00000000       0.00000000     236.69477844
2
Properties=species:S:1:pos:R:3:forces:R:3 energy=49.76342631070938 pbc="F F F"
Cl       0.00000000       0.00000000       0.00000000       0.00000000       0.00000000    -211.70335388
Cl       0.00000000       0.00000000       1.06181818       0.00000000       0.00000000     211.70335388
2
Properties=species:S:1:pos:R:3:forces:R:3 energy=38.239843351057985 pbc="F F F"
Cl       0.00000000       0.00000000       0.00000000       0.00000000       0.00000000    -180.37557983
Cl       0.00000000       0.00000000       1.12060606       0.00000000       0.00000000     180.37557983
2
Properties=species:S:1:pos:R:3:forces:R:3 energy=28.530022168891612 pbc="F F F"
Cl       0.00000000       0.00000000       0.00000000       0.00000000       0.00000000    -150.06947327
Cl       0.00000000       0.00000000       1.17939394       0.00000000       0.00000000     150.06947327
2
Properties=species:S:1:pos:R:3:forces:R:3 energy=20.572262187209713 pbc="F F F"
Cl       0.00000000       0.00000000       0.00000000       0.00000000       0.00000000    -121.02282715
Cl       0.00000000       0.00000000       1.23818182       0.00000000       0.00000000     121.02282715
2
Properties=species:S:1:pos:R:3:forces:R:3 energy=14.251089940695044 pbc="F F F"
Cl       0.00000000       0.00000000       0.00000000       0.00000000       0.00000000     -94.46942902
Cl       0.00000000       0.00000000       1.29696970       0.00000000       0.00000000      94.46942902
2
Properties=species:S:1:pos:R:3:forces:R:3 energy=9.401180606677473 pbc="F F F"
Cl       0.00000000       0.00000000       0.00000000       0.00000000       0.00000000     -71.22422028
Cl       0.00000000       0.00000000       1.35575758       0.00000000       0.00000000      71.22422028
2
Properties=species:S:1:pos:R:3:forces:R:3 energy=5.7802850701294455 pbc="F F F"
Cl       0.00000000       0.00000000       0.00000000       0.00000000       0.00000000     -52.82601166
Cl       0.00000000       0.00000000       1.41454545       0.00000000       0.00000000      52.82601166
2
Properties=species:S:1:pos:R:3:forces:R:3 energy=3.0971282891339538 pbc="F F F"
Cl       0.00000000       0.00000000       0.00000000       0.00000000       0.00000000     -39.13373184
Cl       0.00000000       0.00000000       1.47333333       0.00000000       0.00000000      39.13373184
2
Properties=species:S:1:pos:R:3:forces:R:3 energy=1.1125161262947154 pbc="F F F"
Cl       0.00000000       0.00000000       0.00000000       0.00000000       0.00000000     -28.85915565
Cl       0.00000000       0.00000000       1.53212121       0.00000000       0.00000000      28.85915565
2
Properties=species:S:1:pos:R:3:forces:R:3 energy=-0.3440120431372456 pbc="F F F"
Cl       0.00000000       0.00000000       0.00000000       0.00000000       0.00000000     -21.04595947
Cl       0.00000000       0.00000000       1.59090909       0.00000000       0.00000000      21.04595947
2
Properties=species:S:1:pos:R:3:forces:R:3 energy=-1.3984797233994195 pbc="F F F"
Cl       0.00000000       0.00000000       0.00000000       0.00000000       0.00000000     -15.10123730
Cl       0.00000000       0.00000000       1.64969697       0.00000000       0.00000000      15.10123730
2
Properties=species:S:1:pos:R:3:forces:R:3 energy=-2.1479452740877414 pbc="F F F"
Cl       0.00000000       0.00000000       0.00000000       0.00000000       0.00000000     -10.60612774
Cl       0.00000000       0.00000000       1.70848485       0.00000000       0.00000000      10.60612774
2
Properties=species:S:1:pos:R:3:forces:R:3 energy=-2.666603242584489 pbc="F F F"
Cl       0.00000000       0.00000000       0.00000000       0.00000000       0.00000000      -7.19011354
Cl       0.00000000       0.00000000       1.76727273       0.00000000       0.00000000       7.19011354
2
Properties=species:S:1:pos:R:3:forces:R:3 energy=-3.0083045531014894 pbc="F F F"
Cl       0.00000000       0.00000000       0.00000000       0.00000000       0.00000000      -4.54175758
Cl       0.00000000       0.00000000       1.82606061       0.00000000       0.00000000       4.54175758
2
Properties=species:S:1:pos:R:3:forces:R:3 energy=-3.2113727991046233 pbc="F F F"
Cl       0.00000000       0.00000000       0.00000000       0.00000000       0.00000000      -2.44549727
Cl       0.00000000       0.00000000       1.88484848       0.00000000       0.00000000       2.44549727
2
Properties=species:S:1:pos:R:3:forces:R:3 energy=-3.304028033905455 pbc="F F F"
Cl       0.00000000       0.00000000       0.00000000       0.00000000       0.00000000      -0.76953995
Cl       0.00000000       0.00000000       1.94363636       0.00000000       0.00000000       0.76953995
2
Properties=species:S:1:pos:R:3:forces:R:3 energy=-3.308733818600122 pbc="F F F"
Cl       0.00000000       0.00000000       0.00000000       0.00000000       0.00000000       0.55435556
Cl       0.00000000       0.00000000       2.00242424       0.00000000       0.00000000      -0.55435556
2
Properties=species:S:1:pos:R:3:forces:R:3 energy=-3.2448365917677227 pbc="F F F"
Cl       0.00000000       0.00000000       0.00000000       0.00000000       0.00000000       1.57443237
Cl       0.00000000       0.00000000       2.06121212       0.00000000       0.00000000      -1.57443237
2
Properties=species:S:1:pos:R:3:forces:R:3 energy=-3.1278789796129938 pbc="F F F"
Cl       0.00000000       0.00000000       0.00000000       0.00000000       0.00000000       2.37846422
Cl       0.00000000       0.00000000       2.12000000       0.00000000       0.00000000      -2.37846422
2
Properties=species:S:1:pos:R:3:forces:R:3 energy=-2.9671179599281703 pbc="F F F"
Cl       0.00000000       0.00000000       0.00000000       0.00000000       0.00000000       3.08097076
Cl       0.00000000       0.00000000       2.17878788       0.00000000       0.00000000      -3.08097076
2
Properties=species:S:1:pos:R:3:forces:R:3 energy=-2.766944949674381 pbc="F F F"
Cl       0.00000000       0.00000000       0.00000000       0.00000000       0.00000000       3.70970321
Cl       0.00000000       0.00000000       2.23757576       0.00000000       0.00000000      -3.70970321
2
Properties=species:S:1:pos:R:3:forces:R:3 energy=-2.5351668029933094 pbc="F F F"
Cl       0.00000000       0.00000000       0.00000000       0.00000000       0.00000000       4.12075996
Cl       0.00000000       0.00000000       2.29636364       0.00000000       0.00000000      -4.12075996
2
Properties=species:S:1:pos:R:3:forces:R:3 energy=-2.290681374915576 pbc="F F F"
Cl       0.00000000       0.00000000       0.00000000       0.00000000       0.00000000       4.11838484
Cl       0.00000000       0.00000000       2.35515152       0.00000000       0.00000000      -4.11838484
2
Properties=species:S:1:pos:R:3:forces:R:3 energy=-2.059548348171253 pbc="F F F"
Cl       0.00000000       0.00000000       0.00000000       0.00000000       0.00000000       3.68507576
Cl       0.00000000       0.00000000       2.41393939       0.00000000       0.00000000      -3.68507576
2
Properties=species:S:1:pos:R:3:forces:R:3 energy=-1.8619793992428795 pbc="F F F"
Cl       0.00000000       0.00000000       0.00000000       0.00000000       0.00000000       3.01941466
Cl       0.00000000       0.00000000       2.47272727       0.00000000       0.00000000      -3.01941466
2
Properties=species:S:1:pos:R:3:forces:R:3 energy=-1.7043589047305305 pbc="F F F"
Cl       0.00000000       0.00000000       0.00000000       0.00000000       0.00000000       2.35879660
Cl       0.00000000       0.00000000       2.53151515       0.00000000       0.00000000      -2.35879660
2
Properties=species:S:1:pos:R:3:forces:R:3 energy=-1.5818995301362566 pbc="F F F"
Cl       0.00000000       0.00000000       0.00000000       0.00000000       0.00000000       1.83410466
Cl       0.00000000       0.00000000       2.59030303       0.00000000       0.00000000      -1.83410466
2
Properties=species:S:1:pos:R:3:forces:R:3 energy=-1.4856695366855563 pbc="F F F"
Cl       0.00000000       0.00000000       0.00000000       0.00000000       0.00000000       1.46282160
Cl       0.00000000       0.00000000       2.64909091       0.00000000       0.00000000      -1.46282160
2
Properties=species:S:1:pos:R:3:forces:R:3 energy=-1.4076514487124512 pbc="F F F"
Cl       0.00000000       0.00000000       0.00000000       0.00000000       0.00000000       1.20645690
Cl       0.00000000       0.00000000       2.70787879       0.00000000       0.00000000      -1.20645690
2
Properties=species:S:1:pos:R:3:forces:R:3 energy=-1.3424905925317712 pbc="F F F"
Cl       0.00000000       0.00000000       0.00000000       0.00000000       0.00000000       1.01844859
Cl       0.00000000       0.00000000       2.76666667       0.00000000       0.00000000      -1.01844859
2
Properties=species:S:1:pos:R:3:forces:R:3 energy=-1.287235931845302 pbc="F F F"
Cl       0.00000000       0.00000000       0.00000000       0.00000000       0.00000000       0.86523503
Cl       0.00000000       0.00000000       2.82545455       0.00000000       0.00000000      -0.86523503
2
Properties=species:S:1:pos:R:3:forces:R:3 energy=-1.240436395632897 pbc="F F F"
Cl       0.00000000       0.00000000       0.00000000       0.00000000       0.00000000       0.72889811
Cl       0.00000000       0.00000000       2.88424242       0.00000000       0.00000000      -0.72889811
2
Properties=species:S:1:pos:R:3:forces:R:3 energy=-1.201339949220548 pbc="F F F"
Cl       0.00000000       0.00000000       0.00000000       0.00000000       0.00000000       0.60274237
Cl       0.00000000       0.00000000       2.94303030       0.00000000       0.00000000      -0.60274237
2
Properties=species:S:1:pos:R:3:forces:R:3 energy=-1.1693756630032353 pbc="F F F"
Cl       0.00000000       0.00000000       0.00000000       0.00000000       0.00000000       0.48651579
Cl       0.00000000       0.00000000       3.00181818       0.00000000       0.00000000      -0.48651579
2
Properties=species:S:1:pos:R:3:forces:R:3 energy=-1.1438866086167043 pbc="F F F"
Cl       0.00000000       0.00000000       0.00000000       0.00000000       0.00000000       0.38310972
Cl       0.00000000       0.00000000       3.06060606       0.00000000       0.00000000      -0.38310972
2
Properties=species:S:1:pos:R:3:forces:R:3 energy=-1.1240033286201596 pbc="F F F"
Cl       0.00000000       0.00000000       0.00000000       0.00000000       0.00000000       0.29643768
Cl       0.00000000       0.00000000       3.11939394       0.00000000       0.00000000      -0.29643768
2
Properties=species:S:1:pos:R:3:forces:R:3 energy=-1.1086386561479533 pbc="F F F"
Cl       0.00000000       0.00000000       0.00000000       0.00000000       0.00000000       0.22982045
Cl       0.00000000       0.00000000       3.17818182       0.00000000       0.00000000      -0.22982045
2
Properties=species:S:1:pos:R:3:forces:R:3 energy=-1.096559590527663 pbc="F F F"
Cl       0.00000000       0.00000000       0.00000000       0.00000000       0.00000000       0.18466981
Cl       0.00000000       0.00000000       3.23696970       0.00000000       0.00000000      -0.18466981
2
Properties=species:S:1:pos:R:3:forces:R:3 energy=-1.0865284074008288 pbc="F F F"
Cl       0.00000000       0.00000000       0.00000000       0.00000000       0.00000000       0.15970273
Cl       0.00000000       0.00000000       3.29575758       0.00000000       0.00000000      -0.15970273
2
Properties=species:S:1:pos:R:3:forces:R:3 energy=-1.0774623575733036 pbc="F F F"
Cl       0.00000000       0.00000000       0.00000000       0.00000000       0.00000000       0.15100154
Cl       0.00000000       0.00000000       3.35454545       0.00000000       0.00000000      -0.15100154
2
Properties=species:S:1:pos:R:3:forces:R:3 energy=-1.068565760411542 pbc="F F F"
Cl       0.00000000       0.00000000       0.00000000       0.00000000       0.00000000       0.15293379
Cl       0.00000000       0.00000000       3.41333333       0.00000000       0.00000000      -0.15293379
2
Properties=species:S:1:pos:R:3:forces:R:3 energy=-1.059390023552003 pbc="F F F"
Cl       0.00000000       0.00000000       0.00000000       0.00000000       0.00000000       0.15955208
Cl       0.00000000       0.00000000       3.47212121       0.00000000       0.00000000      -0.15955208
2
Properties=species:S:1:pos:R:3:forces:R:3 energy=-1.0498122220749435 pbc="F F F"
Cl       0.00000000       0.00000000       0.00000000       0.00000000       0.00000000       0.16591498
Cl       0.00000000       0.00000000       3.53090909       0.00000000       0.00000000      -0.16591498
2
Properties=species:S:1:pos:R:3:forces:R:3 energy=-1.0399496733771016 pbc="F F F"
Cl       0.00000000       0.00000000       0.00000000       0.00000000       0.00000000       0.16890617
Cl       0.00000000       0.00000000       3.58969697       0.00000000       0.00000000      -0.16890617
2
Properties=species:S:1:pos:R:3:forces:R:3 energy=-1.0300424641683834 pbc="F F F"
Cl       0.00000000       0.00000000       0.00000000       0.00000000       0.00000000       0.16739409
Cl       0.00000000       0.00000000       3.64848485       0.00000000       0.00000000      -0.16739409
2
Properties=species:S:1:pos:R:3:forces:R:3 energy=-1.020347440151319 pbc="F F F"
Cl       0.00000000       0.00000000       0.00000000       0.00000000       0.00000000       0.16187529
Cl       0.00000000       0.00000000       3.70727273       0.00000000       0.00000000      -0.16187529
2
Properties=species:S:1:pos:R:3:forces:R:3 energy=-1.0110593093102316 pbc="F F F"
Cl       0.00000000       0.00000000       0.00000000       0.00000000       0.00000000       0.15384506
Cl       0.00000000       0.00000000       3.76606061       0.00000000       0.00000000      -0.15384506
2
Properties=species:S:1:pos:R:3:forces:R:3 energy=-1.002271736917244 pbc="F F F"
Cl       0.00000000       0.00000000       0.00000000       0.00000000       0.00000000       0.14514866
Cl       0.00000000       0.00000000       3.82484848       0.00000000       0.00000000      -0.14514866
2
Properties=species:S:1:pos:R:3:forces:R:3 energy=-0.993972919365414 pbc="F F F"
Cl       0.00000000       0.00000000       0.00000000       0.00000000       0.00000000       0.13747646
Cl       0.00000000       0.00000000       3.88363636       0.00000000       0.00000000      -0.13747646
2
Properties=species:S:1:pos:R:3:forces:R:3 energy=-0.9860636263691039 pbc="F F F"
Cl       0.00000000       0.00000000       0.00000000       0.00000000       0.00000000       0.13205056
Cl       0.00000000       0.00000000       3.94242424       0.00000000       0.00000000      -0.13205056
2
Properties=species:S:1:pos:R:3:forces:R:3 energy=-0.9783899971898299 pbc="F F F"
Cl       0.00000000       0.00000000       0.00000000       0.00000000       0.00000000       0.12951137
Cl       0.00000000       0.00000000       4.00121212       0.00000000       0.00000000      -0.12951137
2
Properties=species:S:1:pos:R:3:forces:R:3 energy=-0.9707778826230988 pbc="F F F"
Cl       0.00000000       0.00000000       0.00000000       0.00000000       0.00000000       0.12993222
Cl       0.00000000       0.00000000       4.06000000       0.00000000       0.00000000      -0.12993222
2
Properties=species:S:1:pos:R:3:forces:R:3 energy=-0.9630627514829304 pbc="F F F"
Cl       0.00000000       0.00000000       0.00000000       0.00000000       0.00000000       0.13292508
Cl       0.00000000       0.00000000       4.11878788       0.00000000       0.00000000      -0.13292508
2
Properties=species:S:1:pos:R:3:forces:R:3 energy=-0.9551126526452953 pbc="F F F"
Cl       0.00000000       0.00000000       0.00000000       0.00000000       0.00000000       0.13777536
Cl       0.00000000       0.00000000       4.17757576       0.00000000       0.00000000      -0.13777536
2
Properties=species:S:1:pos:R:3:forces:R:3 energy=-0.9468444322632273 pbc="F F F"
Cl       0.00000000       0.00000000       0.00000000       0.00000000       0.00000000       0.14359747
Cl       0.00000000       0.00000000       4.23636364       0.00000000       0.00000000      -0.14359747
2
Properties=species:S:1:pos:R:3:forces:R:3 energy=-0.9382275419204651 pbc="F F F"
Cl       0.00000000       0.00000000       0.00000000       0.00000000       0.00000000       0.14949086
Cl       0.00000000       0.00000000       4.29515152       0.00000000       0.00000000      -0.14949086
2
Properties=species:S:1:pos:R:3:forces:R:3 energy=-0.9292818085009945 pbc="F F F"
Cl       0.00000000       0.00000000       0.00000000       0.00000000       0.00000000       0.15469140
Cl       0.00000000       0.00000000       4.35393939       0.00000000       0.00000000      -0.15469140
2
Properties=species:S:1:pos:R:3:forces:R:3 energy=-0.9200632156054351 pbc="F F F"
Cl       0.00000000       0.00000000       0.00000000       0.00000000       0.00000000       0.15871310
Cl       0.00000000       0.00000000       4.41272727       0.00000000       0.00000000      -0.15871310
2
Properties=species:S:1:pos:R:3:forces:R:3 energy=-0.9106461744210511 pbc="F F F"
Cl       0.00000000       0.00000000       0.00000000       0.00000000       0.00000000       0.16146789
Cl       0.00000000       0.00000000       4.47151515       0.00000000       0.00000000      -0.16146789
2
Properties=species:S:1:pos:R:3:forces:R:3 energy=-0.9010958727102629 pbc="F F F"
Cl       0.00000000       0.00000000       0.00000000       0.00000000       0.00000000       0.16334951
Cl       0.00000000       0.00000000       4.53030303       0.00000000       0.00000000      -0.16334951
2
Properties=species:S:1:pos:R:3:forces:R:3 energy=-0.8914401061563119 pbc="F F F"
Cl       0.00000000       0.00000000       0.00000000       0.00000000       0.00000000       0.16524890
Cl       0.00000000       0.00000000       4.58909091       0.00000000       0.00000000      -0.16524890
2
Properties=species:S:1:pos:R:3:forces:R:3 energy=-0.8816406966441666 pbc="F F F"
Cl       0.00000000       0.00000000       0.00000000       0.00000000       0.00000000       0.16848958
Cl       0.00000000       0.00000000       4.64787879       0.00000000       0.00000000      -0.16848958
2
Properties=species:S:1:pos:R:3:forces:R:3 energy=-0.8715730219208307 pbc="F F F"
Cl       0.00000000       0.00000000       0.00000000       0.00000000       0.00000000       0.17462486
Cl       0.00000000       0.00000000       4.70666667       0.00000000       0.00000000      -0.17462486
2
Properties=species:S:1:pos:R:3:forces:R:3 energy=-0.8610238040758408 pbc="F F F"
Cl       0.00000000       0.00000000       0.00000000       0.00000000       0.00000000       0.18508837
Cl       0.00000000       0.00000000       4.76545455       0.00000000       0.00000000      -0.18508837
2
Properties=species:S:1:pos:R:3:forces:R:3 energy=-0.8497090695462753 pbc="F F F"
Cl       0.00000000       0.00000000       0.00000000       0.00000000       0.00000000       0.20069282
Cl       0.00000000       0.00000000       4.82424242       0.00000000       0.00000000      -0.20069282
2
Properties=species:S:1:pos:R:3:forces:R:3 energy=-0.8373344474264897 pbc="F F F"
Cl       0.00000000       0.00000000       0.00000000       0.00000000       0.00000000       0.22100809
Cl       0.00000000       0.00000000       4.88303030       0.00000000       0.00000000      -0.22100809
2
Properties=species:S:1:pos:R:3:forces:R:3 energy=-0.8236726531304568 pbc="F F F"
Cl       0.00000000       0.00000000       0.00000000       0.00000000       0.00000000       0.24388660
Cl       0.00000000       0.00000000       4.94181818       0.00000000       0.00000000      -0.24388660
2
Properties=species:S:1:pos:R:3:forces:R:3 energy=-0.808683336097387 pbc="F F F"
Cl       0.00000000       0.00000000       0.00000000       0.00000000       0.00000000       0.26548156
Cl       0.00000000       0.00000000       5.00060606       0.00000000       0.00000000      -0.26548156
2
Properties=species:S:1:pos:R:3:forces:R:3 energy=-0.7925679847770553 pbc="F F F"
Cl       0.00000000       0.00000000       0.00000000       0.00000000       0.00000000       0.28152820
Cl       0.00000000       0.00000000       5.05939394       0.00000000       0.00000000      -0.28152820
2
Properties=species:S:1:pos:R:3:forces:R:3 energy=-0.7757250435403291 pbc="F F F"
Cl       0.00000000       0.00000000       0.00000000       0.00000000       0.00000000       0.29054686
Cl       0.00000000       0.00000000       5.11818182       0.00000000       0.00000000      -0.29054686
2
Properties=species:S:1:pos:R:3:forces:R:3 energy=-0.7584423109264833 pbc="F F F"
Cl       0.00000000       0.00000000       0.00000000       0.00000000       0.00000000       0.29809961
Cl       0.00000000       0.00000000       5.17696970       0.00000000       0.00000000      -0.29809961
2
Properties=species:S:1:pos:R:3:forces:R:3 energy=-0.7404602251224404 pbc="F F F"
Cl       0.00000000       0.00000000       0.00000000       0.00000000       0.00000000       0.31654009
Cl       0.00000000       0.00000000       5.23575758       0.00000000       0.00000000      -0.31654009
2
Properties=species:S:1:pos:R:3:forces:R:3 energy=-0.7208656399722598 pbc="F F F"
Cl       0.00000000       0.00000000       0.00000000       0.00000000       0.00000000       0.35247862
Cl       0.00000000       0.00000000       5.29454545       0.00000000       0.00000000      -0.35247862
2
Properties=species:S:1:pos:R:3:forces:R:3 energy=-0.6989596854341223 pbc="F F F"
Cl       0.00000000       0.00000000       0.00000000       0.00000000       0.00000000       0.39083415
Cl       0.00000000       0.00000000       5.35333333       0.00000000       0.00000000      -0.39083415
2
Properties=species:S:1:pos:R:3:forces:R:3 energy=-0.675391502182903 pbc="F F F"
Cl       0.00000000       0.00000000       0.00000000       0.00000000       0.00000000       0.40568423
Cl       0.00000000       0.00000000       5.41212121       0.00000000       0.00000000      -0.40568423
2
Properties=species:S:1:pos:R:3:forces:R:3 energy=-0.6518488285534422 pbc="F F F"
Cl       0.00000000       0.00000000       0.00000000       0.00000000       0.00000000       0.39152873
Cl       0.00000000       0.00000000       5.47090909       0.00000000       0.00000000      -0.39152873
2
Properties=species:S:1:pos:R:3:forces:R:3 energy=-0.6295090035456445 pbc="F F F"
Cl       0.00000000       0.00000000       0.00000000       0.00000000       0.00000000       0.36951569
Cl       0.00000000       0.00000000       5.52969697       0.00000000       0.00000000      -0.36951569
2
Properties=species:S:1:pos:R:3:forces:R:3 energy=-0.6080696735172867 pbc="F F F"
Cl       0.00000000       0.00000000       0.00000000       0.00000000       0.00000000       0.36353818
Cl       0.00000000       0.00000000       5.58848485       0.00000000       0.00000000      -0.36353818
2
Properties=species:S:1:pos:R:3:forces:R:3 energy=-0.5864928294411702 pbc="F F F"
Cl       0.00000000       0.00000000       0.00000000       0.00000000       0.00000000       0.37090641
Cl       0.00000000       0.00000000       5.64727273       0.00000000       0.00000000      -0.37090641
2
Properties=species:S:1:pos:R:3:forces:R:3 energy=-0.5648725802316812 pbc="F F F"
Cl       0.00000000       0.00000000       0.00000000       0.00000000       0.00000000       0.35760829
Cl       0.00000000       0.00000000       5.70606061       0.00000000       0.00000000      -0.35760829
2
Properties=species:S:1:pos:R:3:forces:R:3 energy=-0.5453718399354247 pbc="F F F"
Cl       0.00000000       0.00000000       0.00000000       0.00000000       0.00000000       0.29631832
Cl       0.00000000       0.00000000       5.76484848       0.00000000       0.00000000      -0.29631832
2
Properties=species:S:1:pos:R:3:forces:R:3 energy=-0.5307353661042681 pbc="F F F"
Cl       0.00000000       0.00000000       0.00000000       0.00000000       0.00000000       0.19855700
Cl       0.00000000       0.00000000       5.82363636       0.00000000       0.00000000      -0.19855700
2
Properties=species:S:1:pos:R:3:forces:R:3 energy=-0.5221022622044852 pbc="F F F"
Cl       0.00000000       0.00000000       0.00000000       0.00000000       0.00000000       0.09890007
Cl       0.00000000       0.00000000       5.88242424       0.00000000       0.00000000      -0.09890007
2
Properties=species:S:1:pos:R:3:forces:R:3 energy=-0.5185611557753688 pbc="F F F"
Cl       0.00000000       0.00000000       0.00000000       0.00000000       0.00000000       0.02742095
Cl       0.00000000       0.00000000       5.94121212       0.00000000       0.00000000      -0.02742095
2
Properties=species:S:1:pos:R:3:forces:R:3 energy=-0.5179685592136144 pbc="F F F"
Cl       0.00000000       0.00000000       0.00000000       0.00000000       0.00000000       0.00142215
Cl       0.00000000       0.00000000       6.00000000       0.00000000       0.00000000      -0.00142215
