2
Properties=species:S:1:pos:R:3:forces:R:3 energy=57.80129635184029 pbc="F F F"
He       0.00000000       0.00000000       0.00000000       0.00000000       0.00000000    -726.91375732
He       0.00000000       0.00000000       0.18000000       0.00000000       0.00000000     726.91375732
2
Properties=species:S:1:pos:R:3:forces:R:3 energy=28.22791874278535 pbc="F F F"
He       0.00000000       0.00000000       0.00000000       0.00000000       0.00000000    -340.92611694
He       0.00000000       0.00000000       0.23878788       0.00000000       0.00000000     340.92611694
2
Properties=species:S:1:pos:R:3:forces:R:3 energy=13.57330715644887 pbc="F F F"
He       0.00000000       0.00000000       0.00000000       0.00000000       0.00000000    -177.48573303
He       0.00000000       0.00000000       0.29757576       0.00000000       0.00000000     177.48573303
2
Properties=species:S:1:pos:R:3:forces:R:3 energy=5.873185756381241 pbc="F F F"
He       0.00000000       0.00000000       0.00000000       0.00000000       0.00000000     -92.57484436
He       0.00000000       0.00000000       0.35636364       0.00000000       0.00000000      92.57484436
2
Properties=species:S:1:pos:R:3:forces:R:3 energy=2.010379203909887 pbc="F F F"
He       0.00000000       0.00000000       0.00000000       0.00000000       0.00000000     -43.08602142
He       0.00000000       0.00000000       0.41515152       0.00000000       0.00000000      43.08602142
2
Properties=species:S:1:pos:R:3:forces:R:3 energy=0.4040662560959052 pbc="F F F"
He       0.00000000       0.00000000       0.00000000       0.00000000       0.00000000     -14.44585705
He       0.00000000       0.00000000       0.47393939       0.00000000       0.00000000      14.44585705
2
Properties=species:S:1:pos:R:3:forces:R:3 energy=0.008253324704956232 pbc="F F F"
He       0.00000000       0.00000000       0.00000000       0.00000000       0.00000000      -1.39307344
He       0.00000000       0.00000000       0.53272727       0.00000000       0.00000000       1.39307344
2
Properties=species:S:1:pos:R:3:forces:R:3 energy=-0.0038650201135335153 pbc="F F F"
He       0.00000000       0.00000000       0.00000000       0.00000000       0.00000000       0.01357859
He       0.00000000       0.00000000       0.59151515       0.00000000       0.00000000      -0.01357859
2
Properties=species:S:1:pos:R:3:forces:R:3 energy=-0.0027831865629334073 pbc="F F F"
He       0.00000000       0.00000000       0.00000000       0.00000000       0.00000000       0.02297231
He       0.00000000       0.00000000       0.65030303       0.00000000       0.00000000      -0.02297231
2
Properties=species:S:1:pos:R:3:forces:R:3 energy=-0.0012787060295000533 pbc="F F F"
He       0.00000000       0.00000000       0.00000000       0.00000000       0.00000000       0.02682186
He       0.00000000       0.00000000       0.70909091       0.00000000       0.00000000      -0.02682186
2
Properties=species:S:1:pos:R:3:forces:R:3 energy=0.00022685380721715028 pbc="F F F"
He       0.00000000       0.00000000       0.00000000       0.00000000       0.00000000       0.02352442
He       0.00000000       0.00000000       0.76787879       0.00000000       0.00000000      -0.02352442
2
Properties=species:S:1:pos:R:3:forces:R:3 energy=0.0014255568972878821 pbc="F F F"
He       0.00000000       0.00000000       0.00000000       0.00000000       0.00000000       0.01702642
He       0.00000000       0.00000000       0.82666667       0.00000000       0.00000000      -0.01702642
2
Properties=species:S:1:pos:R:3:forces:R:3 energy=0.0022273057553606106 pbc="F F F"
He       0.00000000       0.00000000       0.00000000       0.00000000       0.00000000       0.01040253
He       0.00000000       0.00000000       0.88545455       0.00000000       0.00000000      -0.01040253
2
Properties=species:S:1:pos:R:3:forces:R:3 energy=0.0026765075838558914 pbc="F F F"
He       0.00000000       0.00000000       0.00000000       0.00000000       0.00000000       0.00515313
He       0.00000000       0.00000000       0.94424242       0.00000000       0.00000000      -0.00515313
2
Properties=species:S:1:pos:R:3:forces:R:3 energy=0.002863955477009429 pbc="F F F"
He       0.00000000       0.00000000       0.00000000       0.00000000       0.00000000       0.00145751
He       0.00000000       0.00000000       1.00303030       0.00000000       0.00000000      -0.00145751
2
Properties=species:S:1:pos:R:3:forces:R:3 energy=0.0028711225196938342 pbc="F F F"
He       0.00000000       0.00000000       0.00000000       0.00000000       0.00000000      -0.00105033
He       0.00000000       0.00000000       1.06181818       0.00000000       0.00000000       0.00105033
2
Properties=species:S:1:pos:R:3:forces:R:3 energy=0.0027562868684876452 pbc="F F F"
He       0.00000000       0.00000000       0.00000000       0.00000000       0.00000000      -0.00274631
He       0.00000000       0.00000000       1.12060606       0.00000000       0.00000000       0.00274631
2
Properties=species:S:1:pos:R:3:forces:R:3 energy=0.0025589479787988794 pbc="F F F"
He       0.00000000       0.00000000       0.00000000       0.00000000       0.00000000      -0.00389184
He       0.00000000       0.00000000       1.17939394       0.00000000       0.00000000       0.00389184
2
Properties=species:S:1:pos:R:3:forces:R:3 energy=0.002306148708423175 pbc="F F F"
He       0.00000000       0.00000000       0.00000000       0.00000000       0.00000000      -0.00465556
He       0.00000000       0.00000000       1.23818182       0.00000000       0.00000000       0.00465556
2
Properties=species:S:1:pos:R:3:forces:R:3 energy=0.0020168669287717956 pbc="F F F"
He       0.00000000       0.00000000       0.00000000       0.00000000       0.00000000      -0.00514756
He       0.00000000       0.00000000       1.29696970       0.00000000       0.00000000       0.00514756
2
Properties=species:S:1:pos:R:3:forces:R:3 energy=0.0017047839509081936 pbc="F F F"
He       0.00000000       0.00000000       0.00000000       0.00000000       0.00000000      -0.00544160
He       0.00000000       0.00000000       1.35575758       0.00000000       0.00000000       0.00544160
2
Properties=species:S:1:pos:R:3:forces:R:3 energy=0.001379954067817625 pbc="F F F"
He       0.00000000       0.00000000       0.00000000       0.00000000       0.00000000      -0.00558801
He       0.00000000       0.00000000       1.41454545       0.00000000       0.00000000       0.00558801
2
Properties=species:S:1:pos:R:3:forces:R:3 energy=0.0010499815188416558 pbc="F F F"
He       0.00000000       0.00000000       0.00000000       0.00000000       0.00000000      -0.00562113
He       0.00000000       0.00000000       1.47333333       0.00000000       0.00000000       0.00562113
2
Properties=species:S:1:pos:R:3:forces:R:3 energy=0.0007207982081806484 pbc="F F F"
He       0.00000000       0.00000000       0.00000000       0.00000000       0.00000000      -0.00556427
He       0.00000000       0.00000000       1.53212121       0.00000000       0.00000000       0.00556427
2
Properties=species:S:1:pos:R:3:forces:R:3 energy=0.00039721095590079043 pbc="F F F"
He       0.00000000       0.00000000       0.00000000       0.00000000       0.00000000      -0.00543329
He       0.00000000       0.00000000       1.59090909       0.00000000       0.00000000       0.00543329
2
Properties=species:S:1:pos:R:3:forces:R:3 energy=8.321403740306943e-05 pbc="F F F"
He       0.00000000       0.00000000       0.00000000       0.00000000       0.00000000      -0.00523923
He       0.00000000       0.00000000       1.64969697       0.00000000       0.00000000       0.00523923
2
Properties=species:S:1:pos:R:3:forces:R:3 energy=-0.00021772642583554771 pbc="F F F"
He       0.00000000       0.00000000       0.00000000       0.00000000       0.00000000      -0.00499019
He       0.00000000       0.00000000       1.70848485       0.00000000       0.00000000       0.00499019
2
Properties=species:S:1:pos:R:3:forces:R:3 energy=-0.0005025524373628465 pbc="F F F"
He       0.00000000       0.00000000       0.00000000       0.00000000       0.00000000      -0.00469265
He       0.00000000       0.00000000       1.76727273       0.00000000       0.00000000       0.00469265
2
Properties=species:S:1:pos:R:3:forces:R:3 energy=-0.0007686186850265385 pbc="F F F"
He       0.00000000       0.00000000       0.00000000       0.00000000       0.00000000      -0.00435237
He       0.00000000       0.00000000       1.82606061       0.00000000       0.00000000       0.00435237
2
Properties=species:S:1:pos:R:3:forces:R:3 energy=-0.0010135665052100615 pbc="F F F"
He       0.00000000       0.00000000       0.00000000       0.00000000       0.00000000      -0.00397474
He       0.00000000       0.00000000       1.88484848       0.00000000       0.00000000       0.00397474
2
Properties=species:S:1:pos:R:3:forces:R:3 energy=-0.001235328541930566 pbc="F F F"
He       0.00000000       0.00000000       0.00000000       0.00000000       0.00000000      -0.00356507
He       0.00000000       0.00000000       1.94363636       0.00000000       0.00000000       0.00356507
2
Properties=species:S:1:pos:R:3:forces:R:3 energy=-0.0014322116140814552 pbc="F F F"
He       0.00000000       0.00000000       0.00000000       0.00000000       0.00000000      -0.00312886
He       0.00000000       0.00000000       2.00242424       0.00000000       0.00000000       0.00312886
2
Properties=species:S:1:pos:R:3:forces:R:3 energy=-0.001602796816150492 pbc="F F F"
He       0.00000000       0.00000000       0.00000000       0.00000000       0.00000000      -0.00267160
He       0.00000000       0.00000000       2.06121212       0.00000000       0.00000000       0.00267160
2
Properties=species:S:1:pos:R:3:forces:R:3 energy=-0.0017460146973486326 pbc="F F F"
He       0.00000000       0.00000000       0.00000000       0.00000000       0.00000000      -0.00219893
He       0.00000000       0.00000000       2.12000000       0.00000000       0.00000000       0.00219893
2
Properties=species:S:1:pos:R:3:forces:R:3 energy=-0.0018611569587183335 pbc="F F F"
He       0.00000000       0.00000000       0.00000000       0.00000000       0.00000000      -0.00171663
He       0.00000000       0.00000000       2.17878788       0.00000000       0.00000000       0.00171663
2
Properties=species:S:1:pos:R:3:forces:R:3 energy=-0.001947780152493336 pbc="F F F"
He       0.00000000       0.00000000       0.00000000       0.00000000       0.00000000      -0.00123050
He       0.00000000       0.00000000       2.23757576       0.00000000       0.00000000       0.00123050
2
Properties=species:S:1:pos:R:3:forces:R:3 energy=-0.002005858526839665 pbc="F F F"
He       0.00000000       0.00000000       0.00000000       0.00000000       0.00000000      -0.00074643
He       0.00000000       0.00000000       2.29636364       0.00000000       0.00000000       0.00074643
2
Properties=species:S:1:pos:R:3:forces:R:3 energy=-0.00203569302169837 pbc="F F F"
He       0.00000000       0.00000000       0.00000000       0.00000000       0.00000000      -0.00027032
He       0.00000000       0.00000000       2.35515152       0.00000000       0.00000000       0.00027032
2
Properties=species:S:1:pos:R:3:forces:R:3 energy=-0.002037916317502075 pbc="F F F"
He       0.00000000       0.00000000       0.00000000       0.00000000       0.00000000       0.00019207
He       0.00000000       0.00000000       2.41393939       0.00000000       0.00000000      -0.00019207
2
Properties=species:S:1:pos:R:3:forces:R:3 energy=-0.0020134955080249135 pbc="F F F"
He       0.00000000       0.00000000       0.00000000       0.00000000       0.00000000       0.00063498
He       0.00000000       0.00000000       2.47272727       0.00000000       0.00000000      -0.00063498
2
Properties=species:S:1:pos:R:3:forces:R:3 energy=-0.001963744464186731 pbc="F F F"
He       0.00000000       0.00000000       0.00000000       0.00000000       0.00000000       0.00105288
He       0.00000000       0.00000000       2.53151515       0.00000000       0.00000000      -0.00105288
2
Properties=species:S:1:pos:R:3:forces:R:3 energy=-0.0018903068999120366 pbc="F F F"
He       0.00000000       0.00000000       0.00000000       0.00000000       0.00000000       0.00144048
He       0.00000000       0.00000000       2.59030303       0.00000000       0.00000000      -0.00144048
2
Properties=species:S:1:pos:R:3:forces:R:3 energy=-0.0017950817988578666 pbc="F F F"
He       0.00000000       0.00000000       0.00000000       0.00000000       0.00000000       0.00179276
He       0.00000000       0.00000000       2.64909091       0.00000000       0.00000000      -0.00179276
2
Properties=species:S:1:pos:R:3:forces:R:3 energy=-0.0016802857107183562 pbc="F F F"
He       0.00000000       0.00000000       0.00000000       0.00000000       0.00000000       0.00210509
He       0.00000000       0.00000000       2.70787879       0.00000000       0.00000000      -0.00210509
2
Properties=species:S:1:pos:R:3:forces:R:3 energy=-0.0015484316266927136 pbc="F F F"
He       0.00000000       0.00000000       0.00000000       0.00000000       0.00000000       0.00237336
He       0.00000000       0.00000000       2.76666667       0.00000000       0.00000000      -0.00237336
2
Properties=species:S:1:pos:R:3:forces:R:3 energy=-0.0014021751304246406 pbc="F F F"
He       0.00000000       0.00000000       0.00000000       0.00000000       0.00000000       0.00259412
He       0.00000000       0.00000000       2.82545455       0.00000000       0.00000000      -0.00259412
2
Properties=species:S:1:pos:R:3:forces:R:3 energy=-0.0012444153757220238 pbc="F F F"
He       0.00000000       0.00000000       0.00000000       0.00000000       0.00000000       0.00276479
He       0.00000000       0.00000000       2.88424242       0.00000000       0.00000000      -0.00276479
2
Properties=species:S:1:pos:R:3:forces:R:3 energy=-0.0010781160386958307 pbc="F F F"
He       0.00000000       0.00000000       0.00000000       0.00000000       0.00000000       0.00288383
He       0.00000000       0.00000000       2.94303030       0.00000000       0.00000000      -0.00288383
2
Properties=species:S:1:pos:R:3:forces:R:3 energy=-0.0009063516682113117 pbc="F F F"
He       0.00000000       0.00000000       0.00000000       0.00000000       0.00000000       0.00295101
He       0.00000000       0.00000000       3.00181818       0.00000000       0.00000000      -0.00295101
2
Properties=species:S:1:pos:R:3:forces:R:3 energy=-0.000732142254745456 pbc="F F F"
He       0.00000000       0.00000000       0.00000000       0.00000000       0.00000000       0.00296747
He       0.00000000       0.00000000       3.06060606       0.00000000       0.00000000      -0.00296747
2
Properties=species:S:1:pos:R:3:forces:R:3 energy=-0.0005583955602882347 pbc="F F F"
He       0.00000000       0.00000000       0.00000000       0.00000000       0.00000000       0.00293588
He       0.00000000       0.00000000       3.11939394       0.00000000       0.00000000      -0.00293588
2
Properties=species:S:1:pos:R:3:forces:R:3 energy=-0.0003878205531836394 pbc="F F F"
He       0.00000000       0.00000000       0.00000000       0.00000000       0.00000000       0.00286035
He       0.00000000       0.00000000       3.17818182       0.00000000       0.00000000      -0.00286035
2
Properties=species:S:1:pos:R:3:forces:R:3 energy=-0.0002228388445523245 pbc="F F F"
He       0.00000000       0.00000000       0.00000000       0.00000000       0.00000000       0.00274642
He       0.00000000       0.00000000       3.23696970       0.00000000       0.00000000      -0.00274642
2
Properties=species:S:1:pos:R:3:forces:R:3 energy=-6.552736522146474e-05 pbc="F F F"
He       0.00000000       0.00000000       0.00000000       0.00000000       0.00000000       0.00260085
He       0.00000000       0.00000000       3.29575758       0.00000000       0.00000000      -0.00260085
2
Properties=species:S:1:pos:R:3:forces:R:3 energy=8.248408003875608e-05 pbc="F F F"
He       0.00000000       0.00000000       0.00000000       0.00000000       0.00000000       0.00243129
He       0.00000000       0.00000000       3.35454545       0.00000000       0.00000000      -0.00243129
2
Properties=species:S:1:pos:R:3:forces:R:3 energy=0.00022002712717756896 pbc="F F F"
He       0.00000000       0.00000000       0.00000000       0.00000000       0.00000000       0.00224597
He       0.00000000       0.00000000       3.41333333       0.00000000       0.00000000      -0.00224597
2
Properties=species:S:1:pos:R:3:forces:R:3 energy=0.0003464148005365513 pbc="F F F"
He       0.00000000       0.00000000       0.00000000       0.00000000       0.00000000       0.00205329
He       0.00000000       0.00000000       3.47212121       0.00000000       0.00000000      -0.00205329
2
Properties=species:S:1:pos:R:3:forces:R:3 energy=0.000461456198881361 pbc="F F F"
He       0.00000000       0.00000000       0.00000000       0.00000000       0.00000000       0.00186136
He       0.00000000       0.00000000       3.53090909       0.00000000       0.00000000      -0.00186136
2
Properties=species:S:1:pos:R:3:forces:R:3 energy=0.0005654222155178888 pbc="F F F"
He       0.00000000       0.00000000       0.00000000       0.00000000       0.00000000       0.00167748
He       0.00000000       0.00000000       3.58969697       0.00000000       0.00000000      -0.00167748
2
Properties=species:S:1:pos:R:3:forces:R:3 energy=0.0006589684486777972 pbc="F F F"
He       0.00000000       0.00000000       0.00000000       0.00000000       0.00000000       0.00150780
He       0.00000000       0.00000000       3.64848485       0.00000000       0.00000000      -0.00150780
2
Properties=species:S:1:pos:R:3:forces:R:3 energy=0.0007430696902520821 pbc="F F F"
He       0.00000000       0.00000000       0.00000000       0.00000000       0.00000000       0.00135675
He       0.00000000       0.00000000       3.70727273       0.00000000       0.00000000      -0.00135675
2
Properties=species:S:1:pos:R:3:forces:R:3 energy=0.000818906586904987 pbc="F F F"
He       0.00000000       0.00000000       0.00000000       0.00000000       0.00000000       0.00122682
He       0.00000000       0.00000000       3.76606061       0.00000000       0.00000000      -0.00122682
2
Properties=species:S:1:pos:R:3:forces:R:3 energy=0.0008877392719366481 pbc="F F F"
He       0.00000000       0.00000000       0.00000000       0.00000000       0.00000000       0.00111850
He       0.00000000       0.00000000       3.82484848       0.00000000       0.00000000      -0.00111850
2
Properties=species:S:1:pos:R:3:forces:R:3 energy=0.0009508100073724408 pbc="F F F"
He       0.00000000       0.00000000       0.00000000       0.00000000       0.00000000       0.00103034
He       0.00000000       0.00000000       3.88363636       0.00000000       0.00000000      -0.00103034
2
Properties=species:S:1:pos:R:3:forces:R:3 energy=0.0010092214255665434 pbc="F F F"
He       0.00000000       0.00000000       0.00000000       0.00000000       0.00000000       0.00095950
He       0.00000000       0.00000000       3.94242424       0.00000000       0.00000000      -0.00095950
2
Properties=species:S:1:pos:R:3:forces:R:3 energy=0.0010638882261081568 pbc="F F F"
He       0.00000000       0.00000000       0.00000000       0.00000000       0.00000000       0.00090225
He       0.00000000       0.00000000       4.00121212       0.00000000       0.00000000      -0.00090225
2
Properties=species:S:1:pos:R:3:forces:R:3 energy=0.0011154928725338941 pbc="F F F"
He       0.00000000       0.00000000       0.00000000       0.00000000       0.00000000       0.00085463
He       0.00000000       0.00000000       4.06000000       0.00000000       0.00000000      -0.00085463
2
Properties=species:S:1:pos:R:3:forces:R:3 energy=0.0011644884536978675 pbc="F F F"
He       0.00000000       0.00000000       0.00000000       0.00000000       0.00000000       0.00081297
He       0.00000000       0.00000000       4.11878788       0.00000000       0.00000000      -0.00081297
2
Properties=species:S:1:pos:R:3:forces:R:3 energy=0.0012111328961893664 pbc="F F F"
He       0.00000000       0.00000000       0.00000000       0.00000000       0.00000000       0.00077410
He       0.00000000       0.00000000       4.17757576       0.00000000       0.00000000      -0.00077410
2
Properties=species:S:1:pos:R:3:forces:R:3 energy=0.0012555105185882752 pbc="F F F"
He       0.00000000       0.00000000       0.00000000       0.00000000       0.00000000       0.00073553
He       0.00000000       0.00000000       4.23636364       0.00000000       0.00000000      -0.00073553
2
Properties=species:S:1:pos:R:3:forces:R:3 energy=0.0012975813397831512 pbc="F F F"
He       0.00000000       0.00000000       0.00000000       0.00000000       0.00000000       0.00069529
He       0.00000000       0.00000000       4.29515152       0.00000000       0.00000000      -0.00069529
2
Properties=species:S:1:pos:R:3:forces:R:3 energy=0.0013371965947696297 pbc="F F F"
He       0.00000000       0.00000000       0.00000000       0.00000000       0.00000000       0.00065184
He       0.00000000       0.00000000       4.35393939       0.00000000       0.00000000      -0.00065184
2
Properties=species:S:1:pos:R:3:forces:R:3 energy=0.0013741347262026433 pbc="F F F"
He       0.00000000       0.00000000       0.00000000       0.00000000       0.00000000       0.00060401
He       0.00000000       0.00000000       4.41272727       0.00000000       0.00000000      -0.00060401
2
Properties=species:S:1:pos:R:3:forces:R:3 energy=0.0014081144655662184 pbc="F F F"
He       0.00000000       0.00000000       0.00000000       0.00000000       0.00000000       0.00055114
He       0.00000000       0.00000000       4.47151515       0.00000000       0.00000000      -0.00055114
2
Properties=species:S:1:pos:R:3:forces:R:3 energy=0.0014388373265628368 pbc="F F F"
He       0.00000000       0.00000000       0.00000000       0.00000000       0.00000000       0.00049328
He       0.00000000       0.00000000       4.53030303       0.00000000       0.00000000      -0.00049328
2
Properties=species:S:1:pos:R:3:forces:R:3 energy=0.0014660385033576845 pbc="F F F"
He       0.00000000       0.00000000       0.00000000       0.00000000       0.00000000       0.00043169
He       0.00000000       0.00000000       4.58909091       0.00000000       0.00000000      -0.00043169
2
Properties=species:S:1:pos:R:3:forces:R:3 energy=0.001489573085975483 pbc="F F F"
He       0.00000000       0.00000000       0.00000000       0.00000000       0.00000000       0.00036916
He       0.00000000       0.00000000       4.64787879       0.00000000       0.00000000      -0.00036916
2
Properties=species:S:1:pos:R:3:forces:R:3 energy=0.0015095128453993117 pbc="F F F"
He       0.00000000       0.00000000       0.00000000       0.00000000       0.00000000       0.00031026
He       0.00000000       0.00000000       4.70666667       0.00000000       0.00000000      -0.00031026
2
Properties=species:S:1:pos:R:3:forces:R:3 energy=0.0015262382995287157 pbc="F F F"
He       0.00000000       0.00000000       0.00000000       0.00000000       0.00000000       0.00026088
He       0.00000000       0.00000000       4.76545455       0.00000000       0.00000000      -0.00026088
2
Properties=species:S:1:pos:R:3:forces:R:3 energy=0.0015404903988171788 pbc="F F F"
He       0.00000000       0.00000000       0.00000000       0.00000000       0.00000000       0.00022697
He       0.00000000       0.00000000       4.82424242       0.00000000       0.00000000      -0.00022697
2
Properties=species:S:1:pos:R:3:forces:R:3 energy=0.001553308283479018 pbc="F F F"
He       0.00000000       0.00000000       0.00000000       0.00000000       0.00000000       0.00021249
He       0.00000000       0.00000000       4.88303030       0.00000000       0.00000000      -0.00021249
2
Properties=species:S:1:pos:R:3:forces:R:3 energy=0.0015658488690514754 pbc="F F F"
He       0.00000000       0.00000000       0.00000000       0.00000000       0.00000000       0.00021692
He       0.00000000       0.00000000       4.94181818       0.00000000       0.00000000      -0.00021692
2
Properties=species:S:1:pos:R:3:forces:R:3 energy=0.0015790589910532687 pbc="F F F"
He       0.00000000       0.00000000       0.00000000       0.00000000       0.00000000       0.00023370
He       0.00000000       0.00000000       5.00060606       0.00000000       0.00000000      -0.00023370
2
Properties=species:S:1:pos:R:3:forces:R:3 energy=0.0015933428013635564 pbc="F F F"
He       0.00000000       0.00000000       0.00000000       0.00000000       0.00000000       0.00025130
He       0.00000000       0.00000000       5.05939394       0.00000000       0.00000000      -0.00025130
2
Properties=species:S:1:pos:R:3:forces:R:3 energy=0.00160840471728138 pbc="F F F"
He       0.00000000       0.00000000       0.00000000       0.00000000       0.00000000       0.00025905
He       0.00000000       0.00000000       5.11818182       0.00000000       0.00000000      -0.00025905
2
Properties=species:S:1:pos:R:3:forces:R:3 energy=0.0016236193925120057 pbc="F F F"
He       0.00000000       0.00000000       0.00000000       0.00000000       0.00000000       0.00025840
He       0.00000000       0.00000000       5.17696970       0.00000000       0.00000000      -0.00025840
2
Properties=species:S:1:pos:R:3:forces:R:3 energy=0.0016390661210327322 pbc="F F F"
He       0.00000000       0.00000000       0.00000000       0.00000000       0.00000000       0.00027251
He       0.00000000       0.00000000       5.23575758       0.00000000       0.00000000      -0.00027251
2
Properties=species:S:1:pos:R:3:forces:R:3 energy=0.0016565811588251118 pbc="F F F"
He       0.00000000       0.00000000       0.00000000       0.00000000       0.00000000       0.00033226
He       0.00000000       0.00000000       5.29454545       0.00000000       0.00000000      -0.00033226
2
Properties=species:S:1:pos:R:3:forces:R:3 energy=0.001678938784255387 pbc="F F F"
He       0.00000000       0.00000000       0.00000000       0.00000000       0.00000000       0.00043122
He       0.00000000       0.00000000       5.35333333       0.00000000       0.00000000      -0.00043122
2
Properties=species:S:1:pos:R:3:forces:R:3 energy=0.001707037842916414 pbc="F F F"
He       0.00000000       0.00000000       0.00000000       0.00000000       0.00000000       0.00051879
He       0.00000000       0.00000000       5.41212121       0.00000000       0.00000000      -0.00051879
2
Properties=species:S:1:pos:R:3:forces:R:3 energy=0.0017390930703054574 pbc="F F F"
He       0.00000000       0.00000000       0.00000000       0.00000000       0.00000000       0.00056510
He       0.00000000       0.00000000       5.47090909       0.00000000       0.00000000      -0.00056510
2
Properties=species:S:1:pos:R:3:forces:R:3 energy=0.0017729523852088017 pbc="F F F"
He       0.00000000       0.00000000       0.00000000       0.00000000       0.00000000       0.00058415
He       0.00000000       0.00000000       5.52969697       0.00000000       0.00000000      -0.00058415
2
Properties=species:S:1:pos:R:3:forces:R:3 energy=0.00180754484914733 pbc="F F F"
He       0.00000000       0.00000000       0.00000000       0.00000000       0.00000000       0.00059003
He       0.00000000       0.00000000       5.58848485       0.00000000       0.00000000      -0.00059003
2
Properties=species:S:1:pos:R:3:forces:R:3 energy=0.0018416026426932078 pbc="F F F"
He       0.00000000       0.00000000       0.00000000       0.00000000       0.00000000       0.00055917
He       0.00000000       0.00000000       5.64727273       0.00000000       0.00000000      -0.00055917
2
Properties=species:S:1:pos:R:3:forces:R:3 energy=0.0018716970689789843 pbc="F F F"
He       0.00000000       0.00000000       0.00000000       0.00000000       0.00000000       0.00044991
He       0.00000000       0.00000000       5.70606061       0.00000000       0.00000000      -0.00044991
2
Properties=species:S:1:pos:R:3:forces:R:3 energy=0.0018933430291658332 pbc="F F F"
He       0.00000000       0.00000000       0.00000000       0.00000000       0.00000000       0.00028175
He       0.00000000       0.00000000       5.76484848       0.00000000       0.00000000      -0.00028175
2
Properties=species:S:1:pos:R:3:forces:R:3 energy=0.00190534855758684 pbc="F F F"
He       0.00000000       0.00000000       0.00000000       0.00000000       0.00000000       0.00013685
He       0.00000000       0.00000000       5.82363636       0.00000000       0.00000000      -0.00013685
2
Properties=species:S:1:pos:R:3:forces:R:3 energy=0.0019107753440529395 pbc="F F F"
He       0.00000000       0.00000000       0.00000000       0.00000000       0.00000000       0.00005909
He       0.00000000       0.00000000       5.88242424       0.00000000       0.00000000      -0.00005909
2
Properties=species:S:1:pos:R:3:forces:R:3 energy=0.0019132240156937061 pbc="F F F"
He       0.00000000       0.00000000       0.00000000       0.00000000       0.00000000       0.00002921
He       0.00000000       0.00000000       5.94121212       0.00000000       0.00000000      -0.00002921
2
Properties=species:S:1:pos:R:3:forces:R:3 energy=0.0019146129817079068 pbc="F F F"
He       0.00000000       0.00000000       0.00000000       0.00000000       0.00000000       0.00002058
He       0.00000000       0.00000000       6.00000000       0.00000000       0.00000000      -0.00002058
