2
Properties=species:S:1:pos:R:3:forces:R:3 energy=15606.682361583009 pbc="F F F"
Ir       0.00000000       0.00000000       0.00000000       0.00000000       0.00000000 -275193.93750000
Ir       0.00000000       0.00000000       0.18000000       0.00000000       0.00000000  275193.93750000
2
Properties=species:S:1:pos:R:3:forces:R:3 energy=6011.272693614259 pbc="F F F"
Ir       0.00000000       0.00000000       0.00000000       0.00000000       0.00000000  -90495.78906250
Ir       0.00000000       0.00000000       0.23878788       0.00000000       0.00000000   90495.78906250
2
Properties=species:S:1:pos:R:3:forces:R:3 energy=2611.6987190080513 pbc="F F F"
Ir       0.00000000       0.00000000       0.00000000       0.00000000       0.00000000  -34999.35937500
Ir       0.00000000       0.00000000       0.29757576       0.00000000       0.00000000   34999.35937500
2
Properties=species:S:1:pos:R:3:forces:R:3 energy=1234.5578498705943 pbc="F F F"
Ir       0.00000000       0.00000000       0.00000000       0.00000000       0.00000000  -14974.58496094
Ir       0.00000000       0.00000000       0.35636364       0.00000000       0.00000000   14974.58496094
2
Properties=species:S:1:pos:R:3:forces:R:3 energy=625.5307502675548 pbc="F F F"
Ir       0.00000000       0.00000000       0.00000000       0.00000000       0.00000000   -6890.65722656
Ir       0.00000000       0.00000000       0.41515152       0.00000000       0.00000000    6890.65722656
2
Properties=species:S:1:pos:R:3:forces:R:3 energy=337.737018590773 pbc="F F F"
Ir       0.00000000       0.00000000       0.00000000       0.00000000       0.00000000   -3362.12548828
Ir       0.00000000       0.00000000       0.47393939       0.00000000       0.00000000    3362.12548828
2
Properties=species:S:1:pos:R:3:forces:R:3 energy=194.12994769009617 pbc="F F F"
Ir       0.00000000       0.00000000       0.00000000       0.00000000       0.00000000   -1722.86486816
Ir       0.00000000       0.00000000       0.53272727       0.00000000       0.00000000    1722.86486816
2
Properties=species:S:1:pos:R:3:forces:R:3 energy=119.15866477229349 pbc="F F F"
Ir       0.00000000       0.00000000       0.00000000       0.00000000       0.00000000    -918.89099121
Ir       0.00000000       0.00000000       0.59151515       0.00000000       0.00000000     918.89099121
2
Properties=species:S:1:pos:R:3:forces:R:3 energy=78.5880242716851 pbc="F F F"
Ir       0.00000000       0.00000000       0.00000000       0.00000000       0.00000000    -505.21774292
Ir       0.00000000       0.00000000       0.65030303       0.00000000       0.00000000     505.21774292
2
Properties=species:S:1:pos:R:3:forces:R:3 energy=56.078994994131136 pbc="F F F"
Ir       0.00000000       0.00000000       0.00000000       0.00000000       0.00000000    -282.48748779
Ir       0.00000000       0.00000000       0.70909091       0.00000000       0.00000000     282.48748779
2
Properties=species:S:1:pos:R:3:forces:R:3 energy=43.494907787031714 pbc="F F F"
Ir       0.00000000       0.00000000       0.00000000       0.00000000       0.00000000    -157.23065186
Ir       0.00000000       0.00000000       0.76787879       0.00000000       0.00000000     157.23065186
2
Properties=species:S:1:pos:R:3:forces:R:3 energy=36.5567061203215 pbc="F F F"
Ir       0.00000000       0.00000000       0.00000000       0.00000000       0.00000000     -85.51422882
Ir       0.00000000       0.00000000       0.82666667       0.00000000       0.00000000      85.51422882
2
Properties=species:S:1:pos:R:3:forces:R:3 energy=32.8199892383252 pbc="F F F"
Ir       0.00000000       0.00000000       0.00000000       0.00000000       0.00000000     -45.76300430
Ir       0.00000000       0.00000000       0.88545455       0.00000000       0.00000000      45.76300430
2
Properties=species:S:1:pos:R:3:forces:R:3 energy=30.7835250350077 pbc="F F F"
Ir       0.00000000       0.00000000       0.00000000       0.00000000       0.00000000     -26.20077896
Ir       0.00000000       0.00000000       0.94424242       0.00000000       0.00000000      26.20077896
2
Properties=species:S:1:pos:R:3:forces:R:3 energy=29.47864364752198 pbc="F F F"
Ir       0.00000000       0.00000000       0.00000000       0.00000000       0.00000000     -20.03657341
Ir       0.00000000       0.00000000       1.00303030       0.00000000       0.00000000      20.03657341
2
Properties=species:S:1:pos:R:3:forces:R:3 energy=28.246138745675804 pbc="F F F"
Ir       0.00000000       0.00000000       0.00000000       0.00000000       0.00000000     -23.14858818
Ir       0.00000000       0.00000000       1.06181818       0.00000000       0.00000000      23.14858818
2
Properties=species:S:1:pos:R:3:forces:R:3 energy=26.64663737013255 pbc="F F F"
Ir       0.00000000       0.00000000       0.00000000       0.00000000       0.00000000     -31.85491180
Ir       0.00000000       0.00000000       1.12060606       0.00000000       0.00000000      31.85491180
2
Properties=species:S:1:pos:R:3:forces:R:3 energy=24.478509961415888 pbc="F F F"
Ir       0.00000000       0.00000000       0.00000000       0.00000000       0.00000000     -41.70192337
Ir       0.00000000       0.00000000       1.17939394       0.00000000       0.00000000      41.70192337
2
Properties=species:S:1:pos:R:3:forces:R:3 energy=21.796394517160394 pbc="F F F"
Ir       0.00000000       0.00000000       0.00000000       0.00000000       0.00000000     -49.03044128
Ir       0.00000000       0.00000000       1.23818182       0.00000000       0.00000000      49.03044128
2
Properties=species:S:1:pos:R:3:forces:R:3 energy=18.759947660226754 pbc="F F F"
Ir       0.00000000       0.00000000       0.00000000       0.00000000       0.00000000     -53.97761536
Ir       0.00000000       0.00000000       1.29696970       0.00000000       0.00000000      53.97761536
2
Properties=species:S:1:pos:R:3:forces:R:3 energy=15.48947839336545 pbc="F F F"
Ir       0.00000000       0.00000000       0.00000000       0.00000000       0.00000000     -56.85879517
Ir       0.00000000       0.00000000       1.35575758       0.00000000       0.00000000      56.85879517
2
Properties=species:S:1:pos:R:3:forces:R:3 energy=12.130336358524136 pbc="F F F"
Ir       0.00000000       0.00000000       0.00000000       0.00000000       0.00000000     -56.95581055
Ir       0.00000000       0.00000000       1.41454545       0.00000000       0.00000000      56.95581055
2
Properties=species:S:1:pos:R:3:forces:R:3 energy=8.841760523065892 pbc="F F F"
Ir       0.00000000       0.00000000       0.00000000       0.00000000       0.00000000     -54.55757523
Ir       0.00000000       0.00000000       1.47333333       0.00000000       0.00000000      54.55757523
2
Properties=species:S:1:pos:R:3:forces:R:3 energy=5.754280474410925 pbc="F F F"
Ir       0.00000000       0.00000000       0.00000000       0.00000000       0.00000000     -50.18376541
Ir       0.00000000       0.00000000       1.53212121       0.00000000       0.00000000      50.18376541
2
Properties=species:S:1:pos:R:3:forces:R:3 energy=2.9722565695921848 pbc="F F F"
Ir       0.00000000       0.00000000       0.00000000       0.00000000       0.00000000     -44.24582672
Ir       0.00000000       0.00000000       1.59090909       0.00000000       0.00000000      44.24582672
2
Properties=species:S:1:pos:R:3:forces:R:3 energy=0.5694892417093007 pbc="F F F"
Ir       0.00000000       0.00000000       0.00000000       0.00000000       0.00000000     -37.42785263
Ir       0.00000000       0.00000000       1.64969697       0.00000000       0.00000000      37.42785263
2
Properties=species:S:1:pos:R:3:forces:R:3 energy=-1.428608197290764 pbc="F F F"
Ir       0.00000000       0.00000000       0.00000000       0.00000000       0.00000000     -30.60618782
Ir       0.00000000       0.00000000       1.70848485       0.00000000       0.00000000      30.60618782
2
Properties=species:S:1:pos:R:3:forces:R:3 energy=-3.038965125950808 pbc="F F F"
Ir       0.00000000       0.00000000       0.00000000       0.00000000       0.00000000     -24.27788544
Ir       0.00000000       0.00000000       1.76727273       0.00000000       0.00000000      24.27788544
2
Properties=species:S:1:pos:R:3:forces:R:3 energy=-4.295941351839651 pbc="F F F"
Ir       0.00000000       0.00000000       0.00000000       0.00000000       0.00000000     -18.60728645
Ir       0.00000000       0.00000000       1.82606061       0.00000000       0.00000000      18.60728645
2
Properties=species:S:1:pos:R:3:forces:R:3 energy=-5.243039734763619 pbc="F F F"
Ir       0.00000000       0.00000000       0.00000000       0.00000000       0.00000000     -13.76730824
Ir       0.00000000       0.00000000       1.88484848       0.00000000       0.00000000      13.76730824
2
Properties=species:S:1:pos:R:3:forces:R:3 energy=-5.933456887670929 pbc="F F F"
Ir       0.00000000       0.00000000       0.00000000       0.00000000       0.00000000      -9.87969875
Ir       0.00000000       0.00000000       1.94363636       0.00000000       0.00000000       9.87969875
2
Properties=species:S:1:pos:R:3:forces:R:3 energy=-6.421829502414024 pbc="F F F"
Ir       0.00000000       0.00000000       0.00000000       0.00000000       0.00000000      -6.86393118
Ir       0.00000000       0.00000000       2.00242424       0.00000000       0.00000000       6.86393118
2
Properties=species:S:1:pos:R:3:forces:R:3 energy=-6.753375835165958 pbc="F F F"
Ir       0.00000000       0.00000000       0.00000000       0.00000000       0.00000000      -4.50702429
Ir       0.00000000       0.00000000       2.06121212       0.00000000       0.00000000       4.50702429
2
Properties=species:S:1:pos:R:3:forces:R:3 energy=-6.960845070016939 pbc="F F F"
Ir       0.00000000       0.00000000       0.00000000       0.00000000       0.00000000      -2.61709809
Ir       0.00000000       0.00000000       2.12000000       0.00000000       0.00000000       2.61709809
2
Properties=species:S:1:pos:R:3:forces:R:3 energy=-7.067827671094517 pbc="F F F"
Ir       0.00000000       0.00000000       0.00000000       0.00000000       0.00000000      -1.07270980
Ir       0.00000000       0.00000000       2.17878788       0.00000000       0.00000000       1.07270980
2
Properties=species:S:1:pos:R:3:forces:R:3 energy=-7.092250745677465 pbc="F F F"
Ir       0.00000000       0.00000000       0.00000000       0.00000000       0.00000000       0.20110731
Ir       0.00000000       0.00000000       2.23757576       0.00000000       0.00000000      -0.20110731
2
Properties=species:S:1:pos:R:3:forces:R:3 energy=-7.048669854323397 pbc="F F F"
Ir       0.00000000       0.00000000       0.00000000       0.00000000       0.00000000       1.24496293
Ir       0.00000000       0.00000000       2.29636364       0.00000000       0.00000000      -1.24496293
2
Properties=species:S:1:pos:R:3:forces:R:3 energy=-6.950079937250511 pbc="F F F"
Ir       0.00000000       0.00000000       0.00000000       0.00000000       0.00000000       2.07403398
Ir       0.00000000       0.00000000       2.35515152       0.00000000       0.00000000      -2.07403398
2
Properties=species:S:1:pos:R:3:forces:R:3 energy=-6.808849194153827 pbc="F F F"
Ir       0.00000000       0.00000000       0.00000000       0.00000000       0.00000000       2.69752884
Ir       0.00000000       0.00000000       2.41393939       0.00000000       0.00000000      -2.69752884
2
Properties=species:S:1:pos:R:3:forces:R:3 energy=-6.636605164059685 pbc="F F F"
Ir       0.00000000       0.00000000       0.00000000       0.00000000       0.00000000       3.13303733
Ir       0.00000000       0.00000000       2.47272727       0.00000000       0.00000000      -3.13303733
2
Properties=species:S:1:pos:R:3:forces:R:3 energy=-6.443650374186836 pbc="F F F"
Ir       0.00000000       0.00000000       0.00000000       0.00000000       0.00000000       3.40678310
Ir       0.00000000       0.00000000       2.53151515       0.00000000       0.00000000      -3.40678310
2
Properties=species:S:1:pos:R:3:forces:R:3 energy=-6.238671273950759 pbc="F F F"
Ir       0.00000000       0.00000000       0.00000000       0.00000000       0.00000000       3.54671431
Ir       0.00000000       0.00000000       2.59030303       0.00000000       0.00000000      -3.54671431
2
Properties=species:S:1:pos:R:3:forces:R:3 energy=-6.028746742609249 pbc="F F F"
Ir       0.00000000       0.00000000       0.00000000       0.00000000       0.00000000       3.57923102
Ir       0.00000000       0.00000000       2.64909091       0.00000000       0.00000000      -3.57923102
2
Properties=species:S:1:pos:R:3:forces:R:3 energy=-5.8194929048227015 pbc="F F F"
Ir       0.00000000       0.00000000       0.00000000       0.00000000       0.00000000       3.52691722
Ir       0.00000000       0.00000000       2.70787879       0.00000000       0.00000000      -3.52691722
2
Properties=species:S:1:pos:R:3:forces:R:3 energy=-5.615465552157898 pbc="F F F"
Ir       0.00000000       0.00000000       0.00000000       0.00000000       0.00000000       3.40312219
Ir       0.00000000       0.00000000       2.76666667       0.00000000       0.00000000      -3.40312219
2
Properties=species:S:1:pos:R:3:forces:R:3 energy=-5.420503298916721 pbc="F F F"
Ir       0.00000000       0.00000000       0.00000000       0.00000000       0.00000000       3.22195983
Ir       0.00000000       0.00000000       2.82545455       0.00000000       0.00000000      -3.22195983
2
Properties=species:S:1:pos:R:3:forces:R:3 energy=-5.237250642307882 pbc="F F F"
Ir       0.00000000       0.00000000       0.00000000       0.00000000       0.00000000       3.00983453
Ir       0.00000000       0.00000000       2.88424242       0.00000000       0.00000000      -3.00983453
2
Properties=species:S:1:pos:R:3:forces:R:3 energy=-5.066664371210754 pbc="F F F"
Ir       0.00000000       0.00000000       0.00000000       0.00000000       0.00000000       2.79507089
Ir       0.00000000       0.00000000       2.94303030       0.00000000       0.00000000      -2.79507089
2
Properties=species:S:1:pos:R:3:forces:R:3 energy=-4.90829590373248 pbc="F F F"
Ir       0.00000000       0.00000000       0.00000000       0.00000000       0.00000000       2.59633851
Ir       0.00000000       0.00000000       3.00181818       0.00000000       0.00000000      -2.59633851
2
Properties=species:S:1:pos:R:3:forces:R:3 energy=-4.760931515307387 pbc="F F F"
Ir       0.00000000       0.00000000       0.00000000       0.00000000       0.00000000       2.42116404
Ir       0.00000000       0.00000000       3.06060606       0.00000000       0.00000000      -2.42116404
2
Properties=species:S:1:pos:R:3:forces:R:3 energy=-4.623163733806162 pbc="F F F"
Ir       0.00000000       0.00000000       0.00000000       0.00000000       0.00000000       2.26947260
Ir       0.00000000       0.00000000       3.11939394       0.00000000       0.00000000      -2.26947260
2
Properties=species:S:1:pos:R:3:forces:R:3 energy=-4.493709521501076 pbc="F F F"
Ir       0.00000000       0.00000000       0.00000000       0.00000000       0.00000000       2.13748574
Ir       0.00000000       0.00000000       3.17818182       0.00000000       0.00000000      -2.13748574
2
Properties=species:S:1:pos:R:3:forces:R:3 energy=-4.371559900628685 pbc="F F F"
Ir       0.00000000       0.00000000       0.00000000       0.00000000       0.00000000       2.02012086
Ir       0.00000000       0.00000000       3.23696970       0.00000000       0.00000000      -2.02012086
2
Properties=species:S:1:pos:R:3:forces:R:3 energy=-4.256015205677788 pbc="F F F"
Ir       0.00000000       0.00000000       0.00000000       0.00000000       0.00000000       1.91180420
Ir       0.00000000       0.00000000       3.29575758       0.00000000       0.00000000      -1.91180420
2
Properties=species:S:1:pos:R:3:forces:R:3 energy=-4.146716728712229 pbc="F F F"
Ir       0.00000000       0.00000000       0.00000000       0.00000000       0.00000000       1.80662811
Ir       0.00000000       0.00000000       3.35454545       0.00000000       0.00000000      -1.80662811
2
Properties=species:S:1:pos:R:3:forces:R:3 energy=-4.043649936853766 pbc="F F F"
Ir       0.00000000       0.00000000       0.00000000       0.00000000       0.00000000       1.69891763
Ir       0.00000000       0.00000000       3.41333333       0.00000000       0.00000000      -1.69891763
2
Properties=species:S:1:pos:R:3:forces:R:3 energy=-3.9470970419920266 pbc="F F F"
Ir       0.00000000       0.00000000       0.00000000       0.00000000       0.00000000       1.58456123
Ir       0.00000000       0.00000000       3.47212121       0.00000000       0.00000000      -1.58456123
2
Properties=species:S:1:pos:R:3:forces:R:3 energy=-3.8574985936316373 pbc="F F F"
Ir       0.00000000       0.00000000       0.00000000       0.00000000       0.00000000       1.46248293
Ir       0.00000000       0.00000000       3.53090909       0.00000000       0.00000000      -1.46248293
2
Properties=species:S:1:pos:R:3:forces:R:3 energy=-3.7752500571591048 pbc="F F F"
Ir       0.00000000       0.00000000       0.00000000       0.00000000       0.00000000       1.33512950
Ir       0.00000000       0.00000000       3.58969697       0.00000000       0.00000000      -1.33512950
2
Properties=species:S:1:pos:R:3:forces:R:3 energy=-3.70052442642022 pbc="F F F"
Ir       0.00000000       0.00000000       0.00000000       0.00000000       0.00000000       1.20752096
Ir       0.00000000       0.00000000       3.64848485       0.00000000       0.00000000      -1.20752096
2
Properties=species:S:1:pos:R:3:forces:R:3 energy=-3.633168617008199 pbc="F F F"
Ir       0.00000000       0.00000000       0.00000000       0.00000000       0.00000000       1.08532465
Ir       0.00000000       0.00000000       3.70727273       0.00000000       0.00000000      -1.08532465
2
Properties=species:S:1:pos:R:3:forces:R:3 energy=-3.5727198814676786 pbc="F F F"
Ir       0.00000000       0.00000000       0.00000000       0.00000000       0.00000000       0.97307312
Ir       0.00000000       0.00000000       3.76606061       0.00000000       0.00000000      -0.97307312
2
Properties=species:S:1:pos:R:3:forces:R:3 energy=-3.518512284197089 pbc="F F F"
Ir       0.00000000       0.00000000       0.00000000       0.00000000       0.00000000       0.87330896
Ir       0.00000000       0.00000000       3.82484848       0.00000000       0.00000000      -0.87330896
2
Properties=species:S:1:pos:R:3:forces:R:3 energy=-3.4697823010403432 pbc="F F F"
Ir       0.00000000       0.00000000       0.00000000       0.00000000       0.00000000       0.78665936
Ir       0.00000000       0.00000000       3.88363636       0.00000000       0.00000000      -0.78665936
2
Properties=species:S:1:pos:R:3:forces:R:3 energy=-3.425775542111257 pbc="F F F"
Ir       0.00000000       0.00000000       0.00000000       0.00000000       0.00000000       0.71246171
Ir       0.00000000       0.00000000       3.94242424       0.00000000       0.00000000      -0.71246171
2
Properties=species:S:1:pos:R:3:forces:R:3 energy=-3.3857964600674197 pbc="F F F"
Ir       0.00000000       0.00000000       0.00000000       0.00000000       0.00000000       0.64939767
Ir       0.00000000       0.00000000       4.00121212       0.00000000       0.00000000      -0.64939767
2
Properties=species:S:1:pos:R:3:forces:R:3 energy=-3.349234490622698 pbc="F F F"
Ir       0.00000000       0.00000000       0.00000000       0.00000000       0.00000000       0.59591657
Ir       0.00000000       0.00000000       4.06000000       0.00000000       0.00000000      -0.59591657
2
Properties=species:S:1:pos:R:3:forces:R:3 energy=-3.315574310881781 pbc="F F F"
Ir       0.00000000       0.00000000       0.00000000       0.00000000       0.00000000       0.55043918
Ir       0.00000000       0.00000000       4.11878788       0.00000000       0.00000000      -0.55043918
2
Properties=species:S:1:pos:R:3:forces:R:3 energy=-3.284389255486808 pbc="F F F"
Ir       0.00000000       0.00000000       0.00000000       0.00000000       0.00000000       0.51143324
Ir       0.00000000       0.00000000       4.17757576       0.00000000       0.00000000      -0.51143324
2
Properties=species:S:1:pos:R:3:forces:R:3 energy=-3.2553430560714287 pbc="F F F"
Ir       0.00000000       0.00000000       0.00000000       0.00000000       0.00000000       0.47744930
Ir       0.00000000       0.00000000       4.23636364       0.00000000       0.00000000      -0.47744930
2
Properties=species:S:1:pos:R:3:forces:R:3 energy=-3.2281800344208356 pbc="F F F"
Ir       0.00000000       0.00000000       0.00000000       0.00000000       0.00000000       0.44715089
Ir       0.00000000       0.00000000       4.29515152       0.00000000       0.00000000      -0.44715089
2
Properties=species:S:1:pos:R:3:forces:R:3 energy=-3.2027208077695213 pbc="F F F"
Ir       0.00000000       0.00000000       0.00000000       0.00000000       0.00000000       0.41934076
Ir       0.00000000       0.00000000       4.35393939       0.00000000       0.00000000      -0.41934076
2
Properties=species:S:1:pos:R:3:forces:R:3 energy=-3.1788484645234285 pbc="F F F"
Ir       0.00000000       0.00000000       0.00000000       0.00000000       0.00000000       0.39296588
Ir       0.00000000       0.00000000       4.41272727       0.00000000       0.00000000      -0.39296588
2
Properties=species:S:1:pos:R:3:forces:R:3 energy=-3.1565065230308704 pbc="F F F"
Ir       0.00000000       0.00000000       0.00000000       0.00000000       0.00000000       0.36714292
Ir       0.00000000       0.00000000       4.47151515       0.00000000       0.00000000      -0.36714292
2
Properties=species:S:1:pos:R:3:forces:R:3 energy=-3.1356840744348116 pbc="F F F"
Ir       0.00000000       0.00000000       0.00000000       0.00000000       0.00000000       0.34116578
Ir       0.00000000       0.00000000       4.53030303       0.00000000       0.00000000      -0.34116578
2
Properties=species:S:1:pos:R:3:forces:R:3 energy=-3.1164064843482846 pbc="F F F"
Ir       0.00000000       0.00000000       0.00000000       0.00000000       0.00000000       0.31454614
Ir       0.00000000       0.00000000       4.58909091       0.00000000       0.00000000      -0.31454614
2
Properties=species:S:1:pos:R:3:forces:R:3 energy=-3.0987188564412316 pbc="F F F"
Ir       0.00000000       0.00000000       0.00000000       0.00000000       0.00000000       0.28706476
Ir       0.00000000       0.00000000       4.64787879       0.00000000       0.00000000      -0.28706476
2
Properties=species:S:1:pos:R:3:forces:R:3 energy=-3.082669849319446 pbc="F F F"
Ir       0.00000000       0.00000000       0.00000000       0.00000000       0.00000000       0.25881484
Ir       0.00000000       0.00000000       4.70666667       0.00000000       0.00000000      -0.25881484
2
Properties=species:S:1:pos:R:3:forces:R:3 energy=-3.068294990391854 pbc="F F F"
Ir       0.00000000       0.00000000       0.00000000       0.00000000       0.00000000       0.23023795
Ir       0.00000000       0.00000000       4.76545455       0.00000000       0.00000000      -0.23023795
2
Properties=species:S:1:pos:R:3:forces:R:3 energy=-3.055591047873135 pbc="F F F"
Ir       0.00000000       0.00000000       0.00000000       0.00000000       0.00000000       0.20207132
Ir       0.00000000       0.00000000       4.82424242       0.00000000       0.00000000      -0.20207132
2
Properties=species:S:1:pos:R:3:forces:R:3 energy=-3.04451050597471 pbc="F F F"
Ir       0.00000000       0.00000000       0.00000000       0.00000000       0.00000000       0.17524008
Ir       0.00000000       0.00000000       4.88303030       0.00000000       0.00000000      -0.17524008
2
Properties=species:S:1:pos:R:3:forces:R:3 energy=-3.034943817391761 pbc="F F F"
Ir       0.00000000       0.00000000       0.00000000       0.00000000       0.00000000       0.15063260
Ir       0.00000000       0.00000000       4.94181818       0.00000000       0.00000000      -0.15063260
2
Properties=species:S:1:pos:R:3:forces:R:3 energy=-3.026741573063264 pbc="F F F"
Ir       0.00000000       0.00000000       0.00000000       0.00000000       0.00000000       0.12894970
Ir       0.00000000       0.00000000       5.00060606       0.00000000       0.00000000      -0.12894970
2
Properties=species:S:1:pos:R:3:forces:R:3 energy=-3.0197164411988417 pbc="F F F"
Ir       0.00000000       0.00000000       0.00000000       0.00000000       0.00000000       0.11063598
Ir       0.00000000       0.00000000       5.05939394       0.00000000       0.00000000      -0.11063598
2
Properties=species:S:1:pos:R:3:forces:R:3 energy=-3.013656436355821 pbc="F F F"
Ir       0.00000000       0.00000000       0.00000000       0.00000000       0.00000000       0.09628601
Ir       0.00000000       0.00000000       5.11818182       0.00000000       0.00000000      -0.09628601
2
Properties=species:S:1:pos:R:3:forces:R:3 energy=-3.0082920556891786 pbc="F F F"
Ir       0.00000000       0.00000000       0.00000000       0.00000000       0.00000000       0.08726326
Ir       0.00000000       0.00000000       5.17696970       0.00000000       0.00000000      -0.08726326
2
Properties=species:S:1:pos:R:3:forces:R:3 energy=-3.0032543933093527 pbc="F F F"
Ir       0.00000000       0.00000000       0.00000000       0.00000000       0.00000000       0.08541753
Ir       0.00000000       0.00000000       5.23575758       0.00000000       0.00000000      -0.08541753
2
Properties=species:S:1:pos:R:3:forces:R:3 energy=-2.9981132048915247 pbc="F F F"
Ir       0.00000000       0.00000000       0.00000000       0.00000000       0.00000000       0.09031078
Ir       0.00000000       0.00000000       5.29454545       0.00000000       0.00000000      -0.09031078
2
Properties=species:S:1:pos:R:3:forces:R:3 energy=-2.992605947902662 pbc="F F F"
Ir       0.00000000       0.00000000       0.00000000       0.00000000       0.00000000       0.09667291
Ir       0.00000000       0.00000000       5.35333333       0.00000000       0.00000000      -0.09667291
2
Properties=species:S:1:pos:R:3:forces:R:3 energy=-2.9868449420041796 pbc="F F F"
Ir       0.00000000       0.00000000       0.00000000       0.00000000       0.00000000       0.09827266
Ir       0.00000000       0.00000000       5.41212121       0.00000000       0.00000000      -0.09827266
2
Properties=species:S:1:pos:R:3:forces:R:3 energy=-2.9811586139564827 pbc="F F F"
Ir       0.00000000       0.00000000       0.00000000       0.00000000       0.00000000       0.09461554
Ir       0.00000000       0.00000000       5.47090909       0.00000000       0.00000000      -0.09461554
2
Properties=species:S:1:pos:R:3:forces:R:3 energy=-2.9757213190968175 pbc="F F F"
Ir       0.00000000       0.00000000       0.00000000       0.00000000       0.00000000       0.09086049
Ir       0.00000000       0.00000000       5.52969697       0.00000000       0.00000000      -0.09086049
2
Properties=species:S:1:pos:R:3:forces:R:3 energy=-2.970378372196523 pbc="F F F"
Ir       0.00000000       0.00000000       0.00000000       0.00000000       0.00000000       0.09180404
Ir       0.00000000       0.00000000       5.58848485       0.00000000       0.00000000      -0.09180404
2
Properties=species:S:1:pos:R:3:forces:R:3 energy=-2.9648751993937665 pbc="F F F"
Ir       0.00000000       0.00000000       0.00000000       0.00000000       0.00000000       0.09530059
Ir       0.00000000       0.00000000       5.64727273       0.00000000       0.00000000      -0.09530059
2
Properties=species:S:1:pos:R:3:forces:R:3 energy=-2.9592996410877346 pbc="F F F"
Ir       0.00000000       0.00000000       0.00000000       0.00000000       0.00000000       0.09252532
Ir       0.00000000       0.00000000       5.70606061       0.00000000       0.00000000      -0.09252532
2
Properties=species:S:1:pos:R:3:forces:R:3 energy=-2.954225308028936 pbc="F F F"
Ir       0.00000000       0.00000000       0.00000000       0.00000000       0.00000000       0.07788407
Ir       0.00000000       0.00000000       5.76484848       0.00000000       0.00000000      -0.07788407
2
Properties=species:S:1:pos:R:3:forces:R:3 energy=-2.9502984106331303 pbc="F F F"
Ir       0.00000000       0.00000000       0.00000000       0.00000000       0.00000000       0.05510108
Ir       0.00000000       0.00000000       5.82363636       0.00000000       0.00000000      -0.05510108
2
Properties=species:S:1:pos:R:3:forces:R:3 energy=-2.947755934831853 pbc="F F F"
Ir       0.00000000       0.00000000       0.00000000       0.00000000       0.00000000       0.03229012
Ir       0.00000000       0.00000000       5.88242424       0.00000000       0.00000000      -0.03229012
2
Properties=species:S:1:pos:R:3:forces:R:3 energy=-2.9463773032894784 pbc="F F F"
Ir       0.00000000       0.00000000       0.00000000       0.00000000       0.00000000       0.01592299
Ir       0.00000000       0.00000000       5.94121212       0.00000000       0.00000000      -0.01592299
2
Properties=species:S:1:pos:R:3:forces:R:3 energy=-2.9456820172776923 pbc="F F F"
Ir       0.00000000       0.00000000       0.00000000       0.00000000       0.00000000       0.00964539
Ir       0.00000000       0.00000000       6.00000000       0.00000000       0.00000000      -0.00964539
