2
Properties=species:S:1:pos:R:3:forces:R:3 energy=498.1144239599453 pbc="F F F"
N        0.00000000       0.00000000       0.00000000       0.00000000       0.00000000   -6160.27441406
N        0.00000000       0.00000000       0.18000000       0.00000000       0.00000000    6160.27441406
2
Properties=species:S:1:pos:R:3:forces:R:3 energy=263.4736463736386 pbc="F F F"
N        0.00000000       0.00000000       0.00000000       0.00000000       0.00000000   -2474.42358398
N        0.00000000       0.00000000       0.23878788       0.00000000       0.00000000    2474.42358398
2
Properties=species:S:1:pos:R:3:forces:R:3 energy=164.37156507639438 pbc="F F F"
N        0.00000000       0.00000000       0.00000000       0.00000000       0.00000000   -1097.08813477
N        0.00000000       0.00000000       0.29757576       0.00000000       0.00000000    1097.08813477
2
Properties=species:S:1:pos:R:3:forces:R:3 energy=119.66000197396238 pbc="F F F"
N        0.00000000       0.00000000       0.00000000       0.00000000       0.00000000    -502.64343262
N        0.00000000       0.00000000       0.35636364       0.00000000       0.00000000     502.64343262
2
Properties=species:S:1:pos:R:3:forces:R:3 energy=98.9026930306325 pbc="F F F"
N        0.00000000       0.00000000       0.00000000       0.00000000       0.00000000    -245.58012390
N        0.00000000       0.00000000       0.41515152       0.00000000       0.00000000     245.58012390
2
Properties=species:S:1:pos:R:3:forces:R:3 energy=86.3022749714904 pbc="F F F"
N        0.00000000       0.00000000       0.00000000       0.00000000       0.00000000    -215.48295593
N        0.00000000       0.00000000       0.47393939       0.00000000       0.00000000     215.48295593
2
Properties=species:S:1:pos:R:3:forces:R:3 energy=71.24472650952177 pbc="F F F"
N        0.00000000       0.00000000       0.00000000       0.00000000       0.00000000    -301.88845825
N        0.00000000       0.00000000       0.53272727       0.00000000       0.00000000     301.88845825
2
Properties=species:S:1:pos:R:3:forces:R:3 energy=51.64732595115257 pbc="F F F"
N        0.00000000       0.00000000       0.00000000       0.00000000       0.00000000    -348.81765747
N        0.00000000       0.00000000       0.59151515       0.00000000       0.00000000     348.81765747
2
Properties=species:S:1:pos:R:3:forces:R:3 energy=32.206160202102474 pbc="F F F"
N        0.00000000       0.00000000       0.00000000       0.00000000       0.00000000    -302.23513794
N        0.00000000       0.00000000       0.65030303       0.00000000       0.00000000     302.23513794
2
Properties=species:S:1:pos:R:3:forces:R:3 energy=16.456723146341634 pbc="F F F"
N        0.00000000       0.00000000       0.00000000       0.00000000       0.00000000    -232.84413147
N        0.00000000       0.00000000       0.70909091       0.00000000       0.00000000     232.84413147
2
Properties=species:S:1:pos:R:3:forces:R:3 energy=4.839088314402605 pbc="F F F"
N        0.00000000       0.00000000       0.00000000       0.00000000       0.00000000    -164.31478882
N        0.00000000       0.00000000       0.76787879       0.00000000       0.00000000     164.31478882
2
Properties=species:S:1:pos:R:3:forces:R:3 energy=-3.3404002059901305 pbc="F F F"
N        0.00000000       0.00000000       0.00000000       0.00000000       0.00000000    -118.53610229
N        0.00000000       0.00000000       0.82666667       0.00000000       0.00000000     118.53610229
2
Properties=species:S:1:pos:R:3:forces:R:3 energy=-9.279128132316396 pbc="F F F"
N        0.00000000       0.00000000       0.00000000       0.00000000       0.00000000     -83.10312653
N        0.00000000       0.00000000       0.88545455       0.00000000       0.00000000      83.10312653
2
Properties=species:S:1:pos:R:3:forces:R:3 energy=-13.142735257948242 pbc="F F F"
N        0.00000000       0.00000000       0.00000000       0.00000000       0.00000000     -49.37470245
N        0.00000000       0.00000000       0.94424242       0.00000000       0.00000000      49.37470245
2
Properties=species:S:1:pos:R:3:forces:R:3 energy=-15.26590346215021 pbc="F F F"
N        0.00000000       0.00000000       0.00000000       0.00000000       0.00000000     -24.64037514
N        0.00000000       0.00000000       1.00303030       0.00000000       0.00000000      24.64037514
2
Properties=species:S:1:pos:R:3:forces:R:3 energy=-16.223462674238185 pbc="F F F"
N        0.00000000       0.00000000       0.00000000       0.00000000       0.00000000      -9.11740303
N        0.00000000       0.00000000       1.06181818       0.00000000       0.00000000       9.11740303
2
Properties=species:S:1:pos:R:3:forces:R:3 energy=-16.439106400662002 pbc="F F F"
N        0.00000000       0.00000000       0.00000000       0.00000000       0.00000000       1.11297977
N        0.00000000       0.00000000       1.12060606       0.00000000       0.00000000      -1.11297977
2
Properties=species:S:1:pos:R:3:forces:R:3 energy=-16.162403402440653 pbc="F F F"
N        0.00000000       0.00000000       0.00000000       0.00000000       0.00000000       7.76589441
N        0.00000000       0.00000000       1.17939394       0.00000000       0.00000000      -7.76589441
2
Properties=species:S:1:pos:R:3:forces:R:3 energy=-15.58103659734942 pbc="F F F"
N        0.00000000       0.00000000       0.00000000       0.00000000       0.00000000      11.61658382
N        0.00000000       0.00000000       1.23818182       0.00000000       0.00000000     -11.61658382
2
Properties=species:S:1:pos:R:3:forces:R:3 energy=-14.834072497029661 pbc="F F F"
N        0.00000000       0.00000000       0.00000000       0.00000000       0.00000000      13.55523682
N        0.00000000       0.00000000       1.29696970       0.00000000       0.00000000     -13.55523682
2
Properties=species:S:1:pos:R:3:forces:R:3 energy=-14.007421767927848 pbc="F F F"
N        0.00000000       0.00000000       0.00000000       0.00000000       0.00000000      14.44909191
N        0.00000000       0.00000000       1.35575758       0.00000000       0.00000000     -14.44909191
2
Properties=species:S:1:pos:R:3:forces:R:3 energy=-13.146820732413662 pbc="F F F"
N        0.00000000       0.00000000       0.00000000       0.00000000       0.00000000      14.73132896
N        0.00000000       0.00000000       1.41454545       0.00000000       0.00000000     -14.73132896
2
Properties=species:S:1:pos:R:3:forces:R:3 energy=-12.287984787452018 pbc="F F F"
N        0.00000000       0.00000000       0.00000000       0.00000000       0.00000000      14.37285900
N        0.00000000       0.00000000       1.47333333       0.00000000       0.00000000     -14.37285900
2
Properties=species:S:1:pos:R:3:forces:R:3 energy=-11.47004018888614 pbc="F F F"
N        0.00000000       0.00000000       0.00000000       0.00000000       0.00000000      13.35568333
N        0.00000000       0.00000000       1.53212121       0.00000000       0.00000000     -13.35568333
2
Properties=species:S:1:pos:R:3:forces:R:3 energy=-10.726224267750784 pbc="F F F"
N        0.00000000       0.00000000       0.00000000       0.00000000       0.00000000      11.90697765
N        0.00000000       0.00000000       1.59090909       0.00000000       0.00000000     -11.90697765
2
Properties=species:S:1:pos:R:3:forces:R:3 energy=-10.071469777022036 pbc="F F F"
N        0.00000000       0.00000000       0.00000000       0.00000000       0.00000000      10.38481712
N        0.00000000       0.00000000       1.64969697       0.00000000       0.00000000     -10.38481712
2
Properties=species:S:1:pos:R:3:forces:R:3 energy=-9.50069263122737 pbc="F F F"
N        0.00000000       0.00000000       0.00000000       0.00000000       0.00000000       9.08748817
N        0.00000000       0.00000000       1.70848485       0.00000000       0.00000000      -9.08748817
2
Properties=species:S:1:pos:R:3:forces:R:3 energy=-8.995968313893965 pbc="F F F"
N        0.00000000       0.00000000       0.00000000       0.00000000       0.00000000       8.14300251
N        0.00000000       0.00000000       1.76727273       0.00000000       0.00000000      -8.14300251
2
Properties=species:S:1:pos:R:3:forces:R:3 energy=-8.5370245698233 pbc="F F F"
N        0.00000000       0.00000000       0.00000000       0.00000000       0.00000000       7.51451921
N        0.00000000       0.00000000       1.82606061       0.00000000       0.00000000      -7.51451921
2
Properties=species:S:1:pos:R:3:forces:R:3 energy=-8.108669116998577 pbc="F F F"
N        0.00000000       0.00000000       0.00000000       0.00000000       0.00000000       7.07766628
N        0.00000000       0.00000000       1.88484848       0.00000000       0.00000000      -7.07766628
2
Properties=species:S:1:pos:R:3:forces:R:3 energy=-7.704245504116192 pbc="F F F"
N        0.00000000       0.00000000       0.00000000       0.00000000       0.00000000       6.67254496
N        0.00000000       0.00000000       1.94363636       0.00000000       0.00000000      -6.67254496
2
Properties=species:S:1:pos:R:3:forces:R:3 energy=-7.326505724647795 pbc="F F F"
N        0.00000000       0.00000000       0.00000000       0.00000000       0.00000000       6.14927769
N        0.00000000       0.00000000       2.00242424       0.00000000       0.00000000      -6.14927769
2
Properties=species:S:1:pos:R:3:forces:R:3 energy=-6.985152524822691 pbc="F F F"
N        0.00000000       0.00000000       0.00000000       0.00000000       0.00000000       5.42993641
N        0.00000000       0.00000000       2.06121212       0.00000000       0.00000000      -5.42993641
2
Properties=species:S:1:pos:R:3:forces:R:3 energy=-6.69160435785761 pbc="F F F"
N        0.00000000       0.00000000       0.00000000       0.00000000       0.00000000       4.53320551
N        0.00000000       0.00000000       2.12000000       0.00000000       0.00000000      -4.53320551
2
Properties=species:S:1:pos:R:3:forces:R:3 energy=-6.453908688715056 pbc="F F F"
N        0.00000000       0.00000000       0.00000000       0.00000000       0.00000000       3.54780030
N        0.00000000       0.00000000       2.17878788       0.00000000       0.00000000      -3.54780030
2
Properties=species:S:1:pos:R:3:forces:R:3 energy=-6.2740305751814365 pbc="F F F"
N        0.00000000       0.00000000       0.00000000       0.00000000       0.00000000       2.58398747
N        0.00000000       0.00000000       2.23757576       0.00000000       0.00000000      -2.58398747
2
Properties=species:S:1:pos:R:3:forces:R:3 energy=-6.147883371380298 pbc="F F F"
N        0.00000000       0.00000000       0.00000000       0.00000000       0.00000000       1.73150766
N        0.00000000       0.00000000       2.29636364       0.00000000       0.00000000      -1.73150766
2
Properties=species:S:1:pos:R:3:forces:R:3 energy=-6.0672822305278284 pbc="F F F"
N        0.00000000       0.00000000       0.00000000       0.00000000       0.00000000       1.03906715
N        0.00000000       0.00000000       2.35515152       0.00000000       0.00000000      -1.03906715
2
Properties=species:S:1:pos:R:3:forces:R:3 energy=-6.022390977027488 pbc="F F F"
N        0.00000000       0.00000000       0.00000000       0.00000000       0.00000000       0.51532400
N        0.00000000       0.00000000       2.41393939       0.00000000       0.00000000      -0.51532400
2
Properties=species:S:1:pos:R:3:forces:R:3 energy=-6.003723311083674 pbc="F F F"
N        0.00000000       0.00000000       0.00000000       0.00000000       0.00000000       0.14272445
N        0.00000000       0.00000000       2.47272727       0.00000000       0.00000000      -0.14272445
2
Properties=species:S:1:pos:R:3:forces:R:3 energy=-6.003207527391357 pbc="F F F"
N        0.00000000       0.00000000       0.00000000       0.00000000       0.00000000      -0.10726115
N        0.00000000       0.00000000       2.53151515       0.00000000       0.00000000       0.10726115
2
Properties=species:S:1:pos:R:3:forces:R:3 energy=-6.014503352796895 pbc="F F F"
N        0.00000000       0.00000000       0.00000000       0.00000000       0.00000000      -0.26365548
N        0.00000000       0.00000000       2.59030303       0.00000000       0.00000000       0.26365548
2
Properties=species:S:1:pos:R:3:forces:R:3 energy=-6.032864236977893 pbc="F F F"
N        0.00000000       0.00000000       0.00000000       0.00000000       0.00000000      -0.35134068
N        0.00000000       0.00000000       2.64909091       0.00000000       0.00000000       0.35134068
2
Properties=species:S:1:pos:R:3:forces:R:3 energy=-6.054857563864888 pbc="F F F"
N        0.00000000       0.00000000       0.00000000       0.00000000       0.00000000      -0.39014453
N        0.00000000       0.00000000       2.70787879       0.00000000       0.00000000       0.39014453
2
Properties=species:S:1:pos:R:3:forces:R:3 energy=-6.078080503420438 pbc="F F F"
N        0.00000000       0.00000000       0.00000000       0.00000000       0.00000000      -0.39539286
N        0.00000000       0.00000000       2.76666667       0.00000000       0.00000000       0.39539286
2
Properties=species:S:1:pos:R:3:forces:R:3 energy=-6.100918766883111 pbc="F F F"
N        0.00000000       0.00000000       0.00000000       0.00000000       0.00000000      -0.37873763
N        0.00000000       0.00000000       2.82545455       0.00000000       0.00000000       0.37873763
2
Properties=species:S:1:pos:R:3:forces:R:3 energy=-6.122353519396642 pbc="F F F"
N        0.00000000       0.00000000       0.00000000       0.00000000       0.00000000      -0.34886432
N        0.00000000       0.00000000       2.88424242       0.00000000       0.00000000       0.34886432
2
Properties=species:S:1:pos:R:3:forces:R:3 energy=-6.141803081160779 pbc="F F F"
N        0.00000000       0.00000000       0.00000000       0.00000000       0.00000000      -0.31206962
N        0.00000000       0.00000000       2.94303030       0.00000000       0.00000000       0.31206962
2
Properties=species:S:1:pos:R:3:forces:R:3 energy=-6.1589975026276145 pbc="F F F"
N        0.00000000       0.00000000       0.00000000       0.00000000       0.00000000      -0.27277088
N        0.00000000       0.00000000       3.00181818       0.00000000       0.00000000       0.27277088
2
Properties=species:S:1:pos:R:3:forces:R:3 energy=-6.173883163807811 pbc="F F F"
N        0.00000000       0.00000000       0.00000000       0.00000000       0.00000000      -0.23394039
N        0.00000000       0.00000000       3.06060606       0.00000000       0.00000000       0.23394039
2
Properties=species:S:1:pos:R:3:forces:R:3 energy=-6.186550249881086 pbc="F F F"
N        0.00000000       0.00000000       0.00000000       0.00000000       0.00000000      -0.19747524
N        0.00000000       0.00000000       3.11939394       0.00000000       0.00000000       0.19747524
2
Properties=species:S:1:pos:R:3:forces:R:3 energy=-6.197170697425295 pbc="F F F"
N        0.00000000       0.00000000       0.00000000       0.00000000       0.00000000      -0.16449127
N        0.00000000       0.00000000       3.17818182       0.00000000       0.00000000       0.16449127
2
Properties=species:S:1:pos:R:3:forces:R:3 energy=-6.20596951291094 pbc="F F F"
N        0.00000000       0.00000000       0.00000000       0.00000000       0.00000000      -0.13554667
N        0.00000000       0.00000000       3.23696970       0.00000000       0.00000000       0.13554667
2
Properties=species:S:1:pos:R:3:forces:R:3 energy=-6.213190337471557 pbc="F F F"
N        0.00000000       0.00000000       0.00000000       0.00000000       0.00000000      -0.11080971
N        0.00000000       0.00000000       3.29575758       0.00000000       0.00000000       0.11080971
2
Properties=species:S:1:pos:R:3:forces:R:3 energy=-6.219078213449805 pbc="F F F"
N        0.00000000       0.00000000       0.00000000       0.00000000       0.00000000      -0.09017592
N        0.00000000       0.00000000       3.35454545       0.00000000       0.00000000       0.09017592
2
Properties=species:S:1:pos:R:3:forces:R:3 energy=-6.223867569225795 pbc="F F F"
N        0.00000000       0.00000000       0.00000000       0.00000000       0.00000000      -0.07335465
N        0.00000000       0.00000000       3.41333333       0.00000000       0.00000000       0.07335465
2
Properties=species:S:1:pos:R:3:forces:R:3 energy=-6.227770229783985 pbc="F F F"
N        0.00000000       0.00000000       0.00000000       0.00000000       0.00000000      -0.05993333
N        0.00000000       0.00000000       3.47212121       0.00000000       0.00000000       0.05993333
2
Properties=species:S:1:pos:R:3:forces:R:3 energy=-6.230972021040323 pbc="F F F"
N        0.00000000       0.00000000       0.00000000       0.00000000       0.00000000      -0.04941836
N        0.00000000       0.00000000       3.53090909       0.00000000       0.00000000       0.04941836
2
Properties=species:S:1:pos:R:3:forces:R:3 energy=-6.233627004238783 pbc="F F F"
N        0.00000000       0.00000000       0.00000000       0.00000000       0.00000000      -0.04127424
N        0.00000000       0.00000000       3.58969697       0.00000000       0.00000000       0.04127424
2
Properties=species:S:1:pos:R:3:forces:R:3 energy=-6.2358603041081695 pbc="F F F"
N        0.00000000       0.00000000       0.00000000       0.00000000       0.00000000      -0.03495297
N        0.00000000       0.00000000       3.64848485       0.00000000       0.00000000       0.03495297
2
Properties=species:S:1:pos:R:3:forces:R:3 energy=-6.237761919482521 pbc="F F F"
N        0.00000000       0.00000000       0.00000000       0.00000000       0.00000000      -0.02993554
N        0.00000000       0.00000000       3.70727273       0.00000000       0.00000000       0.02993554
2
Properties=species:S:1:pos:R:3:forces:R:3 energy=-6.239396241829302 pbc="F F F"
N        0.00000000       0.00000000       0.00000000       0.00000000       0.00000000      -0.02576264
N        0.00000000       0.00000000       3.76606061       0.00000000       0.00000000       0.02576264
2
Properties=species:S:1:pos:R:3:forces:R:3 energy=-6.240800665523631 pbc="F F F"
N        0.00000000       0.00000000       0.00000000       0.00000000       0.00000000      -0.02207423
N        0.00000000       0.00000000       3.82484848       0.00000000       0.00000000       0.02207423
2
Properties=species:S:1:pos:R:3:forces:R:3 energy=-6.241996563814439 pbc="F F F"
N        0.00000000       0.00000000       0.00000000       0.00000000       0.00000000      -0.01863781
N        0.00000000       0.00000000       3.88363636       0.00000000       0.00000000       0.01863781
2
Properties=species:S:1:pos:R:3:forces:R:3 energy=-6.242994573235004 pbc="F F F"
N        0.00000000       0.00000000       0.00000000       0.00000000       0.00000000      -0.01535324
N        0.00000000       0.00000000       3.94242424       0.00000000       0.00000000       0.01535324
2
Properties=species:S:1:pos:R:3:forces:R:3 energy=-6.2438046416333375 pbc="F F F"
N        0.00000000       0.00000000       0.00000000       0.00000000       0.00000000      -0.01224177
N        0.00000000       0.00000000       4.00121212       0.00000000       0.00000000       0.01224177
2
Properties=species:S:1:pos:R:3:forces:R:3 energy=-6.2444389254271035 pbc="F F F"
N        0.00000000       0.00000000       0.00000000       0.00000000       0.00000000      -0.00939711
N        0.00000000       0.00000000       4.06000000       0.00000000       0.00000000       0.00939711
2
Properties=species:S:1:pos:R:3:forces:R:3 energy=-6.244917062530799 pbc="F F F"
N        0.00000000       0.00000000       0.00000000       0.00000000       0.00000000      -0.00692536
N        0.00000000       0.00000000       4.11878788       0.00000000       0.00000000       0.00692536
2
Properties=species:S:1:pos:R:3:forces:R:3 energy=-6.245261922596989 pbc="F F F"
N        0.00000000       0.00000000       0.00000000       0.00000000       0.00000000      -0.00488364
N        0.00000000       0.00000000       4.17757576       0.00000000       0.00000000       0.00488364
2
Properties=species:S:1:pos:R:3:forces:R:3 energy=-6.245499147404177 pbc="F F F"
N        0.00000000       0.00000000       0.00000000       0.00000000       0.00000000      -0.00323343
N        0.00000000       0.00000000       4.23636364       0.00000000       0.00000000       0.00323343
2
Properties=species:S:1:pos:R:3:forces:R:3 energy=-6.245647649355663 pbc="F F F"
N        0.00000000       0.00000000       0.00000000       0.00000000       0.00000000      -0.00184144
N        0.00000000       0.00000000       4.29515152       0.00000000       0.00000000       0.00184144
2
Properties=species:S:1:pos:R:3:forces:R:3 energy=-6.245716765899731 pbc="F F F"
N        0.00000000       0.00000000       0.00000000       0.00000000       0.00000000      -0.00050297
N        0.00000000       0.00000000       4.35393939       0.00000000       0.00000000       0.00050297
2
Properties=species:S:1:pos:R:3:forces:R:3 energy=-6.245703413949828 pbc="F F F"
N        0.00000000       0.00000000       0.00000000       0.00000000       0.00000000       0.00098680
N        0.00000000       0.00000000       4.41272727       0.00000000       0.00000000      -0.00098680
2
Properties=species:S:1:pos:R:3:forces:R:3 energy=-6.245594496641091 pbc="F F F"
N        0.00000000       0.00000000       0.00000000       0.00000000       0.00000000       0.00277251
N        0.00000000       0.00000000       4.47151515       0.00000000       0.00000000      -0.00277251
2
Properties=species:S:1:pos:R:3:forces:R:3 energy=-6.245371197240634 pbc="F F F"
N        0.00000000       0.00000000       0.00000000       0.00000000       0.00000000       0.00487520
N        0.00000000       0.00000000       4.53030303       0.00000000       0.00000000      -0.00487520
2
Properties=species:S:1:pos:R:3:forces:R:3 energy=-6.2450175752836685 pbc="F F F"
N        0.00000000       0.00000000       0.00000000       0.00000000       0.00000000       0.00716511
N        0.00000000       0.00000000       4.58909091       0.00000000       0.00000000      -0.00716511
2
Properties=species:S:1:pos:R:3:forces:R:3 energy=-6.244530590449239 pbc="F F F"
N        0.00000000       0.00000000       0.00000000       0.00000000       0.00000000       0.00936397
N        0.00000000       0.00000000       4.64787879       0.00000000       0.00000000      -0.00936397
2
Properties=species:S:1:pos:R:3:forces:R:3 energy=-6.243925344205171 pbc="F F F"
N        0.00000000       0.00000000       0.00000000       0.00000000       0.00000000       0.01110341
N        0.00000000       0.00000000       4.70666667       0.00000000       0.00000000      -0.01110341
2
Properties=species:S:1:pos:R:3:forces:R:3 energy=-6.243241764239793 pbc="F F F"
N        0.00000000       0.00000000       0.00000000       0.00000000       0.00000000       0.01199956
N        0.00000000       0.00000000       4.76545455       0.00000000       0.00000000      -0.01199956
2
Properties=species:S:1:pos:R:3:forces:R:3 energy=-6.242536500606112 pbc="F F F"
N        0.00000000       0.00000000       0.00000000       0.00000000       0.00000000       0.01177749
N        0.00000000       0.00000000       4.82424242       0.00000000       0.00000000      -0.01177749
2
Properties=species:S:1:pos:R:3:forces:R:3 energy=-6.24188006489686 pbc="F F F"
N        0.00000000       0.00000000       0.00000000       0.00000000       0.00000000       0.01038991
N        0.00000000       0.00000000       4.88303030       0.00000000       0.00000000      -0.01038991
2
Properties=species:S:1:pos:R:3:forces:R:3 energy=-6.241333461560939 pbc="F F F"
N        0.00000000       0.00000000       0.00000000       0.00000000       0.00000000       0.00809253
N        0.00000000       0.00000000       4.94181818       0.00000000       0.00000000      -0.00809253
2
Properties=species:S:1:pos:R:3:forces:R:3 energy=-6.240935318051887 pbc="F F F"
N        0.00000000       0.00000000       0.00000000       0.00000000       0.00000000       0.00543752
N        0.00000000       0.00000000       5.00060606       0.00000000       0.00000000      -0.00543752
2
Properties=species:S:1:pos:R:3:forces:R:3 energy=-6.240688054966382 pbc="F F F"
N        0.00000000       0.00000000       0.00000000       0.00000000       0.00000000       0.00306653
N        0.00000000       0.00000000       5.05939394       0.00000000       0.00000000      -0.00306653
2
Properties=species:S:1:pos:R:3:forces:R:3 energy=-6.240562650456042 pbc="F F F"
N        0.00000000       0.00000000       0.00000000       0.00000000       0.00000000       0.00128034
N        0.00000000       0.00000000       5.11818182       0.00000000       0.00000000      -0.00128034
2
Properties=species:S:1:pos:R:3:forces:R:3 energy=-6.240536788388013 pbc="F F F"
N        0.00000000       0.00000000       0.00000000       0.00000000       0.00000000      -0.00049945
N        0.00000000       0.00000000       5.17696970       0.00000000       0.00000000       0.00049945
2
Properties=species:S:1:pos:R:3:forces:R:3 energy=-6.240648739755919 pbc="F F F"
N        0.00000000       0.00000000       0.00000000       0.00000000       0.00000000      -0.00363868
N        0.00000000       0.00000000       5.23575758       0.00000000       0.00000000       0.00363868
2
Properties=species:S:1:pos:R:3:forces:R:3 energy=-6.241005464258809 pbc="F F F"
N        0.00000000       0.00000000       0.00000000       0.00000000       0.00000000      -0.00874483
N        0.00000000       0.00000000       5.29454545       0.00000000       0.00000000       0.00874483
2
Properties=species:S:1:pos:R:3:forces:R:3 energy=-6.241675801252577 pbc="F F F"
N        0.00000000       0.00000000       0.00000000       0.00000000       0.00000000      -0.01374635
N        0.00000000       0.00000000       5.35333333       0.00000000       0.00000000       0.01374635
2
Properties=species:S:1:pos:R:3:forces:R:3 energy=-6.2425483685150365 pbc="F F F"
N        0.00000000       0.00000000       0.00000000       0.00000000       0.00000000      -0.01511689
N        0.00000000       0.00000000       5.41212121       0.00000000       0.00000000       0.01511689
2
Properties=species:S:1:pos:R:3:forces:R:3 energy=-6.243362554235834 pbc="F F F"
N        0.00000000       0.00000000       0.00000000       0.00000000       0.00000000      -0.01200676
N        0.00000000       0.00000000       5.47090909       0.00000000       0.00000000       0.01200676
2
Properties=species:S:1:pos:R:3:forces:R:3 energy=-6.2439383528236885 pbc="F F F"
N        0.00000000       0.00000000       0.00000000       0.00000000       0.00000000      -0.00782995
N        0.00000000       0.00000000       5.52969697       0.00000000       0.00000000       0.00782995
2
Properties=species:S:1:pos:R:3:forces:R:3 energy=-6.244357561195109 pbc="F F F"
N        0.00000000       0.00000000       0.00000000       0.00000000       0.00000000      -0.00733823
N        0.00000000       0.00000000       5.58848485       0.00000000       0.00000000       0.00733823
2
Properties=species:S:1:pos:R:3:forces:R:3 energy=-6.244907033271679 pbc="F F F"
N        0.00000000       0.00000000       0.00000000       0.00000000       0.00000000      -0.01207056
N        0.00000000       0.00000000       5.64727273       0.00000000       0.00000000       0.01207056
2
Properties=species:S:1:pos:R:3:forces:R:3 energy=-6.245807834642794 pbc="F F F"
N        0.00000000       0.00000000       0.00000000       0.00000000       0.00000000      -0.01830304
N        0.00000000       0.00000000       5.70606061       0.00000000       0.00000000       0.01830304
2
Properties=species:S:1:pos:R:3:forces:R:3 energy=-6.246976824481537 pbc="F F F"
N        0.00000000       0.00000000       0.00000000       0.00000000       0.00000000      -0.02036029
N        0.00000000       0.00000000       5.76484848       0.00000000       0.00000000       0.02036029
2
Properties=species:S:1:pos:R:3:forces:R:3 energy=-6.24807624428276 pbc="F F F"
N        0.00000000       0.00000000       0.00000000       0.00000000       0.00000000      -0.01615287
N        0.00000000       0.00000000       5.82363636       0.00000000       0.00000000       0.01615287
2
Properties=species:S:1:pos:R:3:forces:R:3 energy=-6.24880506385708 pbc="F F F"
N        0.00000000       0.00000000       0.00000000       0.00000000       0.00000000      -0.00856458
N        0.00000000       0.00000000       5.88242424       0.00000000       0.00000000       0.00856458
2
Properties=species:S:1:pos:R:3:forces:R:3 energy=-6.249104975453446 pbc="F F F"
N        0.00000000       0.00000000       0.00000000       0.00000000       0.00000000      -0.00207731
N        0.00000000       0.00000000       5.94121212       0.00000000       0.00000000       0.00207731
2
Properties=species:S:1:pos:R:3:forces:R:3 energy=-6.249131304390874 pbc="F F F"
N        0.00000000       0.00000000       0.00000000       0.00000000       0.00000000       0.00035882
N        0.00000000       0.00000000       6.00000000       0.00000000       0.00000000      -0.00035882
