2
Properties=species:S:1:pos:R:3:forces:R:3 energy=15895.357334536711 pbc="F F F"
Pt       0.00000000       0.00000000       0.00000000       0.00000000       0.00000000 -280467.96875000
Pt       0.00000000       0.00000000       0.18000000       0.00000000       0.00000000  280467.96875000
2
Properties=species:S:1:pos:R:3:forces:R:3 energy=6121.753330630461 pbc="F F F"
Pt       0.00000000       0.00000000       0.00000000       0.00000000       0.00000000  -92097.35937500
Pt       0.00000000       0.00000000       0.23878788       0.00000000       0.00000000   92097.35937500
2
Properties=species:S:1:pos:R:3:forces:R:3 energy=2664.2650493836295 pbc="F F F"
Pt       0.00000000       0.00000000       0.00000000       0.00000000       0.00000000  -35562.84375000
Pt       0.00000000       0.00000000       0.29757576       0.00000000       0.00000000   35562.84375000
2
Properties=species:S:1:pos:R:3:forces:R:3 energy=1265.9802593477348 pbc="F F F"
Pt       0.00000000       0.00000000       0.00000000       0.00000000       0.00000000  -15188.89746094
Pt       0.00000000       0.00000000       0.35636364       0.00000000       0.00000000   15188.89746094
2
Properties=species:S:1:pos:R:3:forces:R:3 energy=648.8104595493829 pbc="F F F"
Pt       0.00000000       0.00000000       0.00000000       0.00000000       0.00000000   -6973.18017578
Pt       0.00000000       0.00000000       0.41515152       0.00000000       0.00000000    6973.18017578
2
Properties=species:S:1:pos:R:3:forces:R:3 energy=358.02814144681986 pbc="F F F"
Pt       0.00000000       0.00000000       0.00000000       0.00000000       0.00000000   -3388.41772461
Pt       0.00000000       0.00000000       0.47393939       0.00000000       0.00000000    3388.41772461
2
Properties=species:S:1:pos:R:3:forces:R:3 energy=213.79108092528745 pbc="F F F"
Pt       0.00000000       0.00000000       0.00000000       0.00000000       0.00000000   -1720.75402832
Pt       0.00000000       0.00000000       0.53272727       0.00000000       0.00000000    1720.75402832
2
Properties=species:S:1:pos:R:3:forces:R:3 energy=139.479038730141 pbc="F F F"
Pt       0.00000000       0.00000000       0.00000000       0.00000000       0.00000000    -899.87579346
Pt       0.00000000       0.00000000       0.59151515       0.00000000       0.00000000     899.87579346
2
Properties=species:S:1:pos:R:3:forces:R:3 energy=100.37180002713403 pbc="F F F"
Pt       0.00000000       0.00000000       0.00000000       0.00000000       0.00000000    -475.05377197
Pt       0.00000000       0.00000000       0.65030303       0.00000000       0.00000000     475.05377197
2
Properties=species:S:1:pos:R:3:forces:R:3 energy=79.91523428107422 pbc="F F F"
Pt       0.00000000       0.00000000       0.00000000       0.00000000       0.00000000    -242.85548401
Pt       0.00000000       0.00000000       0.70909091       0.00000000       0.00000000     242.85548401
2
Properties=species:S:1:pos:R:3:forces:R:3 energy=69.9325073918519 pbc="F F F"
Pt       0.00000000       0.00000000       0.00000000       0.00000000       0.00000000    -108.57623291
Pt       0.00000000       0.00000000       0.76787879       0.00000000       0.00000000     108.57623291
2
Properties=species:S:1:pos:R:3:forces:R:3 energy=66.05103791237953 pbc="F F F"
Pt       0.00000000       0.00000000       0.00000000       0.00000000       0.00000000     -31.11124039
Pt       0.00000000       0.00000000       0.82666667       0.00000000       0.00000000      31.11124039
2
Properties=species:S:1:pos:R:3:forces:R:3 energy=65.49235295176994 pbc="F F F"
Pt       0.00000000       0.00000000       0.00000000       0.00000000       0.00000000       6.21927881
Pt       0.00000000       0.00000000       0.88545455       0.00000000       0.00000000      -6.21927881
2
Properties=species:S:1:pos:R:3:forces:R:3 energy=66.1739330294583 pbc="F F F"
Pt       0.00000000       0.00000000       0.00000000       0.00000000       0.00000000      12.52361298
Pt       0.00000000       0.00000000       0.94424242       0.00000000       0.00000000     -12.52361298
2
Properties=species:S:1:pos:R:3:forces:R:3 energy=66.52116270177503 pbc="F F F"
Pt       0.00000000       0.00000000       0.00000000       0.00000000       0.00000000      -3.87574863
Pt       0.00000000       0.00000000       1.00303030       0.00000000       0.00000000       3.87574863
2
Properties=species:S:1:pos:R:3:forces:R:3 energy=65.40975918565903 pbc="F F F"
Pt       0.00000000       0.00000000       0.00000000       0.00000000       0.00000000     -36.03760529
Pt       0.00000000       0.00000000       1.06181818       0.00000000       0.00000000      36.03760529
2
Properties=species:S:1:pos:R:3:forces:R:3 energy=62.1054162058497 pbc="F F F"
Pt       0.00000000       0.00000000       0.00000000       0.00000000       0.00000000     -77.20011902
Pt       0.00000000       0.00000000       1.12060606       0.00000000       0.00000000      77.20011902
2
Properties=species:S:1:pos:R:3:forces:R:3 energy=56.349775839833626 pbc="F F F"
Pt       0.00000000       0.00000000       0.00000000       0.00000000       0.00000000    -117.30823517
Pt       0.00000000       0.00000000       1.17939394       0.00000000       0.00000000     117.30823517
2
Properties=species:S:1:pos:R:3:forces:R:3 energy=48.62324207645631 pbc="F F F"
Pt       0.00000000       0.00000000       0.00000000       0.00000000       0.00000000    -141.65383911
Pt       0.00000000       0.00000000       1.23818182       0.00000000       0.00000000     141.65383911
2
Properties=species:S:1:pos:R:3:forces:R:3 energy=40.195971874271784 pbc="F F F"
Pt       0.00000000       0.00000000       0.00000000       0.00000000       0.00000000    -141.42155457
Pt       0.00000000       0.00000000       1.29696970       0.00000000       0.00000000     141.42155457
2
Properties=species:S:1:pos:R:3:forces:R:3 energy=32.25457272400062 pbc="F F F"
Pt       0.00000000       0.00000000       0.00000000       0.00000000       0.00000000    -127.67192841
Pt       0.00000000       0.00000000       1.35575758       0.00000000       0.00000000     127.67192841
2
Properties=species:S:1:pos:R:3:forces:R:3 energy=25.275420348028785 pbc="F F F"
Pt       0.00000000       0.00000000       0.00000000       0.00000000       0.00000000    -109.02825928
Pt       0.00000000       0.00000000       1.41454545       0.00000000       0.00000000     109.02825928
2
Properties=species:S:1:pos:R:3:forces:R:3 energy=19.50340321357928 pbc="F F F"
Pt       0.00000000       0.00000000       0.00000000       0.00000000       0.00000000     -87.14087677
Pt       0.00000000       0.00000000       1.47333333       0.00000000       0.00000000      87.14087677
2
Properties=species:S:1:pos:R:3:forces:R:3 energy=14.986021157895207 pbc="F F F"
Pt       0.00000000       0.00000000       0.00000000       0.00000000       0.00000000     -67.41741180
Pt       0.00000000       0.00000000       1.53212121       0.00000000       0.00000000      67.41741180
2
Properties=species:S:1:pos:R:3:forces:R:3 energy=11.444390484542236 pbc="F F F"
Pt       0.00000000       0.00000000       0.00000000       0.00000000       0.00000000     -54.33970261
Pt       0.00000000       0.00000000       1.59090909       0.00000000       0.00000000      54.33970261
2
Properties=species:S:1:pos:R:3:forces:R:3 energy=8.460107786611811 pbc="F F F"
Pt       0.00000000       0.00000000       0.00000000       0.00000000       0.00000000     -48.00192642
Pt       0.00000000       0.00000000       1.64969697       0.00000000       0.00000000      48.00192642
2
Properties=species:S:1:pos:R:3:forces:R:3 energy=5.7609627290412275 pbc="F F F"
Pt       0.00000000       0.00000000       0.00000000       0.00000000       0.00000000     -43.78867340
Pt       0.00000000       0.00000000       1.70848485       0.00000000       0.00000000      43.78867340
2
Properties=species:S:1:pos:R:3:forces:R:3 energy=3.3339836935401443 pbc="F F F"
Pt       0.00000000       0.00000000       0.00000000       0.00000000       0.00000000     -38.54484177
Pt       0.00000000       0.00000000       1.76727273       0.00000000       0.00000000      38.54484177
2
Properties=species:S:1:pos:R:3:forces:R:3 energy=1.2505937235146323 pbc="F F F"
Pt       0.00000000       0.00000000       0.00000000       0.00000000       0.00000000     -32.22705841
Pt       0.00000000       0.00000000       1.82606061       0.00000000       0.00000000      32.22705841
2
Properties=species:S:1:pos:R:3:forces:R:3 energy=-0.45254681557594073 pbc="F F F"
Pt       0.00000000       0.00000000       0.00000000       0.00000000       0.00000000     -25.76665306
Pt       0.00000000       0.00000000       1.88484848       0.00000000       0.00000000      25.76665306
2
Properties=species:S:1:pos:R:3:forces:R:3 energy=-1.7908279939000913 pbc="F F F"
Pt       0.00000000       0.00000000       0.00000000       0.00000000       0.00000000     -19.89505768
Pt       0.00000000       0.00000000       1.94363636       0.00000000       0.00000000      19.89505768
2
Properties=species:S:1:pos:R:3:forces:R:3 energy=-2.8084473236332106 pbc="F F F"
Pt       0.00000000       0.00000000       0.00000000       0.00000000       0.00000000     -14.86743546
Pt       0.00000000       0.00000000       2.00242424       0.00000000       0.00000000      14.86743546
2
Properties=species:S:1:pos:R:3:forces:R:3 energy=-3.5547901760233 pbc="F F F"
Pt       0.00000000       0.00000000       0.00000000       0.00000000       0.00000000     -10.65083218
Pt       0.00000000       0.00000000       2.06121212       0.00000000       0.00000000      10.65083218
2
Properties=species:S:1:pos:R:3:forces:R:3 energy=-4.074807050651311 pbc="F F F"
Pt       0.00000000       0.00000000       0.00000000       0.00000000       0.00000000      -7.15433836
Pt       0.00000000       0.00000000       2.12000000       0.00000000       0.00000000       7.15433836
2
Properties=species:S:1:pos:R:3:forces:R:3 energy=-4.408832307123056 pbc="F F F"
Pt       0.00000000       0.00000000       0.00000000       0.00000000       0.00000000      -4.31456280
Pt       0.00000000       0.00000000       2.17878788       0.00000000       0.00000000       4.31456280
2
Properties=species:S:1:pos:R:3:forces:R:3 energy=-4.593942854202908 pbc="F F F"
Pt       0.00000000       0.00000000       0.00000000       0.00000000       0.00000000      -2.07838917
Pt       0.00000000       0.00000000       2.23757576       0.00000000       0.00000000       2.07838917
2
Properties=species:S:1:pos:R:3:forces:R:3 energy=-4.663650957986196 pbc="F F F"
Pt       0.00000000       0.00000000       0.00000000       0.00000000       0.00000000      -0.37498564
Pt       0.00000000       0.00000000       2.29636364       0.00000000       0.00000000       0.37498564
2
Properties=species:S:1:pos:R:3:forces:R:3 energy=-4.646766299875691 pbc="F F F"
Pt       0.00000000       0.00000000       0.00000000       0.00000000       0.00000000       0.88252288
Pt       0.00000000       0.00000000       2.35515152       0.00000000       0.00000000      -0.88252288
2
Properties=species:S:1:pos:R:3:forces:R:3 energy=-4.566983865412154 pbc="F F F"
Pt       0.00000000       0.00000000       0.00000000       0.00000000       0.00000000       1.77728868
Pt       0.00000000       0.00000000       2.41393939       0.00000000       0.00000000      -1.77728868
2
Properties=species:S:1:pos:R:3:forces:R:3 energy=-4.443620114162485 pbc="F F F"
Pt       0.00000000       0.00000000       0.00000000       0.00000000       0.00000000       2.37450981
Pt       0.00000000       0.00000000       2.47272727       0.00000000       0.00000000      -2.37450981
2
Properties=species:S:1:pos:R:3:forces:R:3 energy=-4.292643553834724 pbc="F F F"
Pt       0.00000000       0.00000000       0.00000000       0.00000000       0.00000000       2.72445893
Pt       0.00000000       0.00000000       2.53151515       0.00000000       0.00000000      -2.72445893
2
Properties=species:S:1:pos:R:3:forces:R:3 energy=-4.127167523831743 pbc="F F F"
Pt       0.00000000       0.00000000       0.00000000       0.00000000       0.00000000       2.87695026
Pt       0.00000000       0.00000000       2.59030303       0.00000000       0.00000000      -2.87695026
2
Properties=species:S:1:pos:R:3:forces:R:3 energy=-3.9570852928098352 pbc="F F F"
Pt       0.00000000       0.00000000       0.00000000       0.00000000       0.00000000       2.89184570
Pt       0.00000000       0.00000000       2.64909091       0.00000000       0.00000000      -2.89184570
2
Properties=species:S:1:pos:R:3:forces:R:3 energy=-3.7885770548744544 pbc="F F F"
Pt       0.00000000       0.00000000       0.00000000       0.00000000       0.00000000       2.83373713
Pt       0.00000000       0.00000000       2.70787879       0.00000000       0.00000000      -2.83373713
2
Properties=species:S:1:pos:R:3:forces:R:3 energy=-3.624291640930677 pbc="F F F"
Pt       0.00000000       0.00000000       0.00000000       0.00000000       0.00000000       2.75510168
Pt       0.00000000       0.00000000       2.76666667       0.00000000       0.00000000      -2.75510168
2
Properties=species:S:1:pos:R:3:forces:R:3 energy=-3.464462819191199 pbc="F F F"
Pt       0.00000000       0.00000000       0.00000000       0.00000000       0.00000000       2.68493509
Pt       0.00000000       0.00000000       2.82545455       0.00000000       0.00000000      -2.68493509
2
Properties=species:S:1:pos:R:3:forces:R:3 energy=-3.308299141833741 pbc="F F F"
Pt       0.00000000       0.00000000       0.00000000       0.00000000       0.00000000       2.63005590
Pt       0.00000000       0.00000000       2.88424242       0.00000000       0.00000000      -2.63005590
2
Properties=species:S:1:pos:R:3:forces:R:3 energy=-3.155081796851493 pbc="F F F"
Pt       0.00000000       0.00000000       0.00000000       0.00000000       0.00000000       2.58266640
Pt       0.00000000       0.00000000       2.94303030       0.00000000       0.00000000      -2.58266640
2
Properties=species:S:1:pos:R:3:forces:R:3 energy=-3.004757353561357 pbc="F F F"
Pt       0.00000000       0.00000000       0.00000000       0.00000000       0.00000000       2.52942491
Pt       0.00000000       0.00000000       3.00181818       0.00000000       0.00000000      -2.52942491
2
Properties=species:S:1:pos:R:3:forces:R:3 energy=-2.85802476929185 pbc="F F F"
Pt       0.00000000       0.00000000       0.00000000       0.00000000       0.00000000       2.45894575
Pt       0.00000000       0.00000000       3.06060606       0.00000000       0.00000000      -2.45894575
2
Properties=species:S:1:pos:R:3:forces:R:3 energy=-2.7160949256731826 pbc="F F F"
Pt       0.00000000       0.00000000       0.00000000       0.00000000       0.00000000       2.36569095
Pt       0.00000000       0.00000000       3.11939394       0.00000000       0.00000000      -2.36569095
2
Properties=species:S:1:pos:R:3:forces:R:3 energy=-2.5803127697483967 pbc="F F F"
Pt       0.00000000       0.00000000       0.00000000       0.00000000       0.00000000       2.25032902
Pt       0.00000000       0.00000000       3.17818182       0.00000000       0.00000000      -2.25032902
2
Properties=species:S:1:pos:R:3:forces:R:3 energy=-2.4518469741951368 pbc="F F F"
Pt       0.00000000       0.00000000       0.00000000       0.00000000       0.00000000       2.11793184
Pt       0.00000000       0.00000000       3.23696970       0.00000000       0.00000000      -2.11793184
2
Properties=species:S:1:pos:R:3:forces:R:3 energy=-2.331492133772353 pbc="F F F"
Pt       0.00000000       0.00000000       0.00000000       0.00000000       0.00000000       1.97548938
Pt       0.00000000       0.00000000       3.29575758       0.00000000       0.00000000      -1.97548938
2
Properties=species:S:1:pos:R:3:forces:R:3 energy=-2.219639559380398 pbc="F F F"
Pt       0.00000000       0.00000000       0.00000000       0.00000000       0.00000000       1.82975101
Pt       0.00000000       0.00000000       3.35454545       0.00000000       0.00000000      -1.82975101
2
Properties=species:S:1:pos:R:3:forces:R:3 energy=-2.1163203557961117 pbc="F F F"
Pt       0.00000000       0.00000000       0.00000000       0.00000000       0.00000000       1.68590188
Pt       0.00000000       0.00000000       3.41333333       0.00000000       0.00000000      -1.68590188
2
Properties=species:S:1:pos:R:3:forces:R:3 energy=-2.0213171504554825 pbc="F F F"
Pt       0.00000000       0.00000000       0.00000000       0.00000000       0.00000000       1.54718530
Pt       0.00000000       0.00000000       3.47212121       0.00000000       0.00000000      -1.54718530
2
Properties=species:S:1:pos:R:3:forces:R:3 energy=-1.934275821068355 pbc="F F F"
Pt       0.00000000       0.00000000       0.00000000       0.00000000       0.00000000       1.41524422
Pt       0.00000000       0.00000000       3.53090909       0.00000000       0.00000000      -1.41524422
2
Properties=species:S:1:pos:R:3:forces:R:3 energy=-1.8547727613359588 pbc="F F F"
Pt       0.00000000       0.00000000       0.00000000       0.00000000       0.00000000       1.29073131
Pt       0.00000000       0.00000000       3.58969697       0.00000000       0.00000000      -1.29073131
2
Properties=species:S:1:pos:R:3:forces:R:3 energy=-1.7823653698368307 pbc="F F F"
Pt       0.00000000       0.00000000       0.00000000       0.00000000       0.00000000       1.17392445
Pt       0.00000000       0.00000000       3.64848485       0.00000000       0.00000000      -1.17392445
2
Properties=species:S:1:pos:R:3:forces:R:3 energy=-1.716592542703084 pbc="F F F"
Pt       0.00000000       0.00000000       0.00000000       0.00000000       0.00000000       1.06507266
Pt       0.00000000       0.00000000       3.70727273       0.00000000       0.00000000      -1.06507266
2
Properties=species:S:1:pos:R:3:forces:R:3 energy=-1.6569760704537917 pbc="F F F"
Pt       0.00000000       0.00000000       0.00000000       0.00000000       0.00000000       0.96450096
Pt       0.00000000       0.00000000       3.76606061       0.00000000       0.00000000      -0.96450096
2
Properties=species:S:1:pos:R:3:forces:R:3 energy=-1.6030211275034332 pbc="F F F"
Pt       0.00000000       0.00000000       0.00000000       0.00000000       0.00000000       0.87255138
Pt       0.00000000       0.00000000       3.82484848       0.00000000       0.00000000      -0.87255138
2
Properties=species:S:1:pos:R:3:forces:R:3 energy=-1.5542122158782274 pbc="F F F"
Pt       0.00000000       0.00000000       0.00000000       0.00000000       0.00000000       0.78941578
Pt       0.00000000       0.00000000       3.88363636       0.00000000       0.00000000      -0.78941578
2
Properties=species:S:1:pos:R:3:forces:R:3 energy=-1.5100330426572184 pbc="F F F"
Pt       0.00000000       0.00000000       0.00000000       0.00000000       0.00000000       0.71503216
Pt       0.00000000       0.00000000       3.94242424       0.00000000       0.00000000      -0.71503216
2
Properties=species:S:1:pos:R:3:forces:R:3 energy=-1.4699781359583857 pbc="F F F"
Pt       0.00000000       0.00000000       0.00000000       0.00000000       0.00000000       0.64902174
Pt       0.00000000       0.00000000       4.00121212       0.00000000       0.00000000      -0.64902174
2
Properties=species:S:1:pos:R:3:forces:R:3 energy=-1.433572725547553 pbc="F F F"
Pt       0.00000000       0.00000000       0.00000000       0.00000000       0.00000000       0.59073657
Pt       0.00000000       0.00000000       4.06000000       0.00000000       0.00000000      -0.59073657
2
Properties=species:S:1:pos:R:3:forces:R:3 energy=-1.4003860677682876 pbc="F F F"
Pt       0.00000000       0.00000000       0.00000000       0.00000000       0.00000000       0.53937805
Pt       0.00000000       0.00000000       4.11878788       0.00000000       0.00000000      -0.53937805
2
Properties=species:S:1:pos:R:3:forces:R:3 energy=-1.3700355841889442 pbc="F F F"
Pt       0.00000000       0.00000000       0.00000000       0.00000000       0.00000000       0.49410391
Pt       0.00000000       0.00000000       4.17757576       0.00000000       0.00000000      -0.49410391
2
Properties=species:S:1:pos:R:3:forces:R:3 energy=-1.342186631519599 pbc="F F F"
Pt       0.00000000       0.00000000       0.00000000       0.00000000       0.00000000       0.45414495
Pt       0.00000000       0.00000000       4.23636364       0.00000000       0.00000000      -0.45414495
2
Properties=species:S:1:pos:R:3:forces:R:3 energy=-1.3165474441367349 pbc="F F F"
Pt       0.00000000       0.00000000       0.00000000       0.00000000       0.00000000       0.41884041
Pt       0.00000000       0.00000000       4.29515152       0.00000000       0.00000000      -0.41884041
2
Properties=species:S:1:pos:R:3:forces:R:3 energy=-1.2928608864675077 pbc="F F F"
Pt       0.00000000       0.00000000       0.00000000       0.00000000       0.00000000       0.38766110
Pt       0.00000000       0.00000000       4.35393939       0.00000000       0.00000000      -0.38766110
2
Properties=species:S:1:pos:R:3:forces:R:3 energy=-1.2708964046107727 pbc="F F F"
Pt       0.00000000       0.00000000       0.00000000       0.00000000       0.00000000       0.36016846
Pt       0.00000000       0.00000000       4.41272727       0.00000000       0.00000000      -0.36016846
2
Properties=species:S:1:pos:R:3:forces:R:3 energy=-1.2504483827496082 pbc="F F F"
Pt       0.00000000       0.00000000       0.00000000       0.00000000       0.00000000       0.33600667
Pt       0.00000000       0.00000000       4.47151515       0.00000000       0.00000000      -0.33600667
2
Properties=species:S:1:pos:R:3:forces:R:3 energy=-1.231330968466581 pbc="F F F"
Pt       0.00000000       0.00000000       0.00000000       0.00000000       0.00000000       0.31484932
Pt       0.00000000       0.00000000       4.53030303       0.00000000       0.00000000      -0.31484932
2
Properties=species:S:1:pos:R:3:forces:R:3 energy=-1.2133773099706766 pbc="F F F"
Pt       0.00000000       0.00000000       0.00000000       0.00000000       0.00000000       0.29637134
Pt       0.00000000       0.00000000       4.58909091       0.00000000       0.00000000      -0.29637134
2
Properties=species:S:1:pos:R:3:forces:R:3 energy=-1.1964397279916132 pbc="F F F"
Pt       0.00000000       0.00000000       0.00000000       0.00000000       0.00000000       0.28021857
Pt       0.00000000       0.00000000       4.64787879       0.00000000       0.00000000      -0.28021857
2
Properties=species:S:1:pos:R:3:forces:R:3 energy=-1.1803926916763063 pbc="F F F"
Pt       0.00000000       0.00000000       0.00000000       0.00000000       0.00000000       0.26596799
Pt       0.00000000       0.00000000       4.70666667       0.00000000       0.00000000      -0.26596799
2
Properties=species:S:1:pos:R:3:forces:R:3 energy=-1.165140667395046 pbc="F F F"
Pt       0.00000000       0.00000000       0.00000000       0.00000000       0.00000000       0.25312978
Pt       0.00000000       0.00000000       4.76545455       0.00000000       0.00000000      -0.25312978
2
Properties=species:S:1:pos:R:3:forces:R:3 energy=-1.1506130517627153 pbc="F F F"
Pt       0.00000000       0.00000000       0.00000000       0.00000000       0.00000000       0.24117401
Pt       0.00000000       0.00000000       4.82424242       0.00000000       0.00000000      -0.24117401
2
Properties=species:S:1:pos:R:3:forces:R:3 energy=-1.1367772593180632 pbc="F F F"
Pt       0.00000000       0.00000000       0.00000000       0.00000000       0.00000000       0.22961104
Pt       0.00000000       0.00000000       4.88303030       0.00000000       0.00000000      -0.22961104
2
Properties=species:S:1:pos:R:3:forces:R:3 energy=-1.1236157630641135 pbc="F F F"
Pt       0.00000000       0.00000000       0.00000000       0.00000000       0.00000000       0.21811636
Pt       0.00000000       0.00000000       4.94181818       0.00000000       0.00000000      -0.21811636
2
Properties=species:S:1:pos:R:3:forces:R:3 energy=-1.1111307737247658 pbc="F F F"
Pt       0.00000000       0.00000000       0.00000000       0.00000000       0.00000000       0.20666671
Pt       0.00000000       0.00000000       5.00060606       0.00000000       0.00000000      -0.20666671
2
Properties=species:S:1:pos:R:3:forces:R:3 energy=-1.0993083767555758 pbc="F F F"
Pt       0.00000000       0.00000000       0.00000000       0.00000000       0.00000000       0.19562946
Pt       0.00000000       0.00000000       5.05939394       0.00000000       0.00000000      -0.19562946
2
Properties=species:S:1:pos:R:3:forces:R:3 energy=-1.0881076336132507 pbc="F F F"
Pt       0.00000000       0.00000000       0.00000000       0.00000000       0.00000000       0.18570974
Pt       0.00000000       0.00000000       5.11818182       0.00000000       0.00000000      -0.18570974
2
Properties=species:S:1:pos:R:3:forces:R:3 energy=-1.077438705851081 pbc="F F F"
Pt       0.00000000       0.00000000       0.00000000       0.00000000       0.00000000       0.17757408
Pt       0.00000000       0.00000000       5.17696970       0.00000000       0.00000000      -0.17757408
2
Properties=species:S:1:pos:R:3:forces:R:3 energy=-1.0671986543357619 pbc="F F F"
Pt       0.00000000       0.00000000       0.00000000       0.00000000       0.00000000       0.17094183
Pt       0.00000000       0.00000000       5.23575758       0.00000000       0.00000000      -0.17094183
2
Properties=species:S:1:pos:R:3:forces:R:3 energy=-1.0573565340892874 pbc="F F F"
Pt       0.00000000       0.00000000       0.00000000       0.00000000       0.00000000       0.16341288
Pt       0.00000000       0.00000000       5.29454545       0.00000000       0.00000000      -0.16341288
2
Properties=species:S:1:pos:R:3:forces:R:3 energy=-1.0480840242876293 pbc="F F F"
Pt       0.00000000       0.00000000       0.00000000       0.00000000       0.00000000       0.15087283
Pt       0.00000000       0.00000000       5.35333333       0.00000000       0.00000000      -0.15087283
2
Properties=species:S:1:pos:R:3:forces:R:3 energy=-1.0397682989042298 pbc="F F F"
Pt       0.00000000       0.00000000       0.00000000       0.00000000       0.00000000       0.13082050
Pt       0.00000000       0.00000000       5.41212121       0.00000000       0.00000000      -0.13082050
2
Properties=species:S:1:pos:R:3:forces:R:3 energy=-1.0328119012393355 pbc="F F F"
Pt       0.00000000       0.00000000       0.00000000       0.00000000       0.00000000       0.10531506
Pt       0.00000000       0.00000000       5.47090909       0.00000000       0.00000000      -0.10531506
2
Properties=species:S:1:pos:R:3:forces:R:3 energy=-1.0273833038173201 pbc="F F F"
Pt       0.00000000       0.00000000       0.00000000       0.00000000       0.00000000       0.07987978
Pt       0.00000000       0.00000000       5.52969697       0.00000000       0.00000000      -0.07987978
2
Properties=species:S:1:pos:R:3:forces:R:3 energy=-1.0233122624293485 pbc="F F F"
Pt       0.00000000       0.00000000       0.00000000       0.00000000       0.00000000       0.05979687
Pt       0.00000000       0.00000000       5.58848485       0.00000000       0.00000000      -0.05979687
2
Properties=species:S:1:pos:R:3:forces:R:3 energy=-1.0202164393655895 pbc="F F F"
Pt       0.00000000       0.00000000       0.00000000       0.00000000       0.00000000       0.04658045
Pt       0.00000000       0.00000000       5.64727273       0.00000000       0.00000000      -0.04658045
2
Properties=species:S:1:pos:R:3:forces:R:3 energy=-1.0177574950634822 pbc="F F F"
Pt       0.00000000       0.00000000       0.00000000       0.00000000       0.00000000       0.03737781
Pt       0.00000000       0.00000000       5.70606061       0.00000000       0.00000000      -0.03737781
2
Properties=species:S:1:pos:R:3:forces:R:3 energy=-1.0158079007096372 pbc="F F F"
Pt       0.00000000       0.00000000       0.00000000       0.00000000       0.00000000       0.02882550
Pt       0.00000000       0.00000000       5.76484848       0.00000000       0.00000000      -0.02882550
2
Properties=species:S:1:pos:R:3:forces:R:3 energy=-1.014364644177448 pbc="F F F"
Pt       0.00000000       0.00000000       0.00000000       0.00000000       0.00000000       0.02040640
Pt       0.00000000       0.00000000       5.82363636       0.00000000       0.00000000      -0.02040640
2
Properties=species:S:1:pos:R:3:forces:R:3 energy=-1.013384488332619 pbc="F F F"
Pt       0.00000000       0.00000000       0.00000000       0.00000000       0.00000000       0.01334213
Pt       0.00000000       0.00000000       5.88242424       0.00000000       0.00000000      -0.01334213
2
Properties=species:S:1:pos:R:3:forces:R:3 energy=-1.0127514767903179 pbc="F F F"
Pt       0.00000000       0.00000000       0.00000000       0.00000000       0.00000000       0.00859390
Pt       0.00000000       0.00000000       5.94121212       0.00000000       0.00000000      -0.00859390
2
Properties=species:S:1:pos:R:3:forces:R:3 energy=-1.012317802110647 pbc="F F F"
Pt       0.00000000       0.00000000       0.00000000       0.00000000       0.00000000       0.00667370
Pt       0.00000000       0.00000000       6.00000000       0.00000000       0.00000000      -0.00667370
