2
Properties=species:S:1:pos:R:3:forces:R:3 energy=11644.704766620429 pbc="F F F"
Sm       0.00000000       0.00000000       0.00000000       0.00000000       0.00000000 -199582.75000000
Sm       0.00000000       0.00000000       0.18000000       0.00000000       0.00000000  199582.75000000
2
Properties=species:S:1:pos:R:3:forces:R:3 energy=4619.624688495429 pbc="F F F"
Sm       0.00000000       0.00000000       0.00000000       0.00000000       0.00000000  -67168.76562500
Sm       0.00000000       0.00000000       0.23878788       0.00000000       0.00000000   67168.76562500
2
Properties=species:S:1:pos:R:3:forces:R:3 energy=2070.4918759954294 pbc="F F F"
Sm       0.00000000       0.00000000       0.00000000       0.00000000       0.00000000  -26618.03320312
Sm       0.00000000       0.00000000       0.29757576       0.00000000       0.00000000   26618.03320312
2
Properties=species:S:1:pos:R:3:forces:R:3 energy=1011.9410947454293 pbc="F F F"
Sm       0.00000000       0.00000000       0.00000000       0.00000000       0.00000000  -11671.05566406
Sm       0.00000000       0.00000000       0.35636364       0.00000000       0.00000000   11671.05566406
2
Properties=species:S:1:pos:R:3:forces:R:3 energy=532.446893085273 pbc="F F F"
Sm       0.00000000       0.00000000       0.00000000       0.00000000       0.00000000   -5493.64404297
Sm       0.00000000       0.00000000       0.41515152       0.00000000       0.00000000    5493.64404297
2
Properties=species:S:1:pos:R:3:forces:R:3 energy=300.9313596633499 pbc="F F F"
Sm       0.00000000       0.00000000       0.00000000       0.00000000       0.00000000   -2733.97558594
Sm       0.00000000       0.00000000       0.47393939       0.00000000       0.00000000    2733.97558594
2
Properties=species:S:1:pos:R:3:forces:R:3 energy=183.25361002956086 pbc="F F F"
Sm       0.00000000       0.00000000       0.00000000       0.00000000       0.00000000   -1424.56884766
Sm       0.00000000       0.00000000       0.53272727       0.00000000       0.00000000    1424.56884766
2
Properties=species:S:1:pos:R:3:forces:R:3 energy=120.87208692257921 pbc="F F F"
Sm       0.00000000       0.00000000       0.00000000       0.00000000       0.00000000    -769.91387939
Sm       0.00000000       0.00000000       0.59151515       0.00000000       0.00000000     769.91387939
2
Properties=species:S:1:pos:R:3:forces:R:3 energy=86.74630877502219 pbc="F F F"
Sm       0.00000000       0.00000000       0.00000000       0.00000000       0.00000000    -426.35360718
Sm       0.00000000       0.00000000       0.65030303       0.00000000       0.00000000     426.35360718
2
Properties=species:S:1:pos:R:3:forces:R:3 energy=67.75241236667492 pbc="F F F"
Sm       0.00000000       0.00000000       0.00000000       0.00000000       0.00000000    -237.96380615
Sm       0.00000000       0.00000000       0.70909091       0.00000000       0.00000000     237.96380615
2
Properties=species:S:1:pos:R:3:forces:R:3 energy=57.18692558542882 pbc="F F F"
Sm       0.00000000       0.00000000       0.00000000       0.00000000       0.00000000    -131.41319275
Sm       0.00000000       0.00000000       0.76787879       0.00000000       0.00000000     131.41319275
2
Properties=species:S:1:pos:R:3:forces:R:3 energy=51.40278419695694 pbc="F F F"
Sm       0.00000000       0.00000000       0.00000000       0.00000000       0.00000000     -71.25811005
Sm       0.00000000       0.00000000       0.82666667       0.00000000       0.00000000      71.25811005
2
Properties=species:S:1:pos:R:3:forces:R:3 energy=48.261045546109855 pbc="F F F"
Sm       0.00000000       0.00000000       0.00000000       0.00000000       0.00000000     -39.25336456
Sm       0.00000000       0.00000000       0.88545455       0.00000000       0.00000000      39.25336456
2
Properties=species:S:1:pos:R:3:forces:R:3 energy=46.46086354570535 pbc="F F F"
Sm       0.00000000       0.00000000       0.00000000       0.00000000       0.00000000     -23.99810600
Sm       0.00000000       0.00000000       0.94424242       0.00000000       0.00000000      23.99810600
2
Properties=species:S:1:pos:R:3:forces:R:3 energy=45.27731220087038 pbc="F F F"
Sm       0.00000000       0.00000000       0.00000000       0.00000000       0.00000000     -17.14757919
Sm       0.00000000       0.00000000       1.00303030       0.00000000       0.00000000      17.14757919
2
Properties=species:S:1:pos:R:3:forces:R:3 energy=44.37350804271078 pbc="F F F"
Sm       0.00000000       0.00000000       0.00000000       0.00000000       0.00000000     -14.07188225
Sm       0.00000000       0.00000000       1.06181818       0.00000000       0.00000000      14.07188225
2
Properties=species:S:1:pos:R:3:forces:R:3 energy=43.56629222205743 pbc="F F F"
Sm       0.00000000       0.00000000       0.00000000       0.00000000       0.00000000     -13.92247486
Sm       0.00000000       0.00000000       1.12060606       0.00000000       0.00000000      13.92247486
2
Properties=species:S:1:pos:R:3:forces:R:3 energy=42.66677242509352 pbc="F F F"
Sm       0.00000000       0.00000000       0.00000000       0.00000000       0.00000000     -17.31642151
Sm       0.00000000       0.00000000       1.17939394       0.00000000       0.00000000      17.31642151
2
Properties=species:S:1:pos:R:3:forces:R:3 energy=41.45476058697765 pbc="F F F"
Sm       0.00000000       0.00000000       0.00000000       0.00000000       0.00000000     -24.53243256
Sm       0.00000000       0.00000000       1.23818182       0.00000000       0.00000000      24.53243256
2
Properties=species:S:1:pos:R:3:forces:R:3 energy=39.72032633847309 pbc="F F F"
Sm       0.00000000       0.00000000       0.00000000       0.00000000       0.00000000     -34.87023544
Sm       0.00000000       0.00000000       1.29696970       0.00000000       0.00000000      34.87023544
2
Properties=species:S:1:pos:R:3:forces:R:3 energy=37.32940983693043 pbc="F F F"
Sm       0.00000000       0.00000000       0.00000000       0.00000000       0.00000000     -46.50078964
Sm       0.00000000       0.00000000       1.35575758       0.00000000       0.00000000      46.50078964
2
Properties=species:S:1:pos:R:3:forces:R:3 energy=34.26820967236939 pbc="F F F"
Sm       0.00000000       0.00000000       0.00000000       0.00000000       0.00000000     -57.38041687
Sm       0.00000000       0.00000000       1.41454545       0.00000000       0.00000000      57.38041687
2
Properties=species:S:1:pos:R:3:forces:R:3 energy=30.62628735787746 pbc="F F F"
Sm       0.00000000       0.00000000       0.00000000       0.00000000       0.00000000     -66.05007935
Sm       0.00000000       0.00000000       1.47333333       0.00000000       0.00000000      66.05007935
2
Properties=species:S:1:pos:R:3:forces:R:3 energy=26.569490823830424 pbc="F F F"
Sm       0.00000000       0.00000000       0.00000000       0.00000000       0.00000000     -71.29188538
Sm       0.00000000       0.00000000       1.53212121       0.00000000       0.00000000      71.29188538
2
Properties=species:S:1:pos:R:3:forces:R:3 energy=22.332815110589408 pbc="F F F"
Sm       0.00000000       0.00000000       0.00000000       0.00000000       0.00000000     -72.04261017
Sm       0.00000000       0.00000000       1.59090909       0.00000000       0.00000000      72.04261017
2
Properties=species:S:1:pos:R:3:forces:R:3 energy=18.188749943281945 pbc="F F F"
Sm       0.00000000       0.00000000       0.00000000       0.00000000       0.00000000     -68.27378082
Sm       0.00000000       0.00000000       1.64969697       0.00000000       0.00000000      68.27378082
2
Properties=species:S:1:pos:R:3:forces:R:3 energy=14.366166844826092 pbc="F F F"
Sm       0.00000000       0.00000000       0.00000000       0.00000000       0.00000000     -61.40980530
Sm       0.00000000       0.00000000       1.70848485       0.00000000       0.00000000      61.40980530
2
Properties=species:S:1:pos:R:3:forces:R:3 energy=10.996301165985708 pbc="F F F"
Sm       0.00000000       0.00000000       0.00000000       0.00000000       0.00000000     -53.10340500
Sm       0.00000000       0.00000000       1.76727273       0.00000000       0.00000000      53.10340500
2
Properties=species:S:1:pos:R:3:forces:R:3 energy=8.127021888824261 pbc="F F F"
Sm       0.00000000       0.00000000       0.00000000       0.00000000       0.00000000     -44.56617737
Sm       0.00000000       0.00000000       1.82606061       0.00000000       0.00000000      44.56617737
2
Properties=species:S:1:pos:R:3:forces:R:3 energy=5.740370625715277 pbc="F F F"
Sm       0.00000000       0.00000000       0.00000000       0.00000000       0.00000000     -36.82627106
Sm       0.00000000       0.00000000       1.88484848       0.00000000       0.00000000      36.82627106
2
Properties=species:S:1:pos:R:3:forces:R:3 energy=3.771759397777909 pbc="F F F"
Sm       0.00000000       0.00000000       0.00000000       0.00000000       0.00000000     -30.35556793
Sm       0.00000000       0.00000000       1.94363636       0.00000000       0.00000000      30.35556793
2
Properties=species:S:1:pos:R:3:forces:R:3 energy=2.150480761804087 pbc="F F F"
Sm       0.00000000       0.00000000       0.00000000       0.00000000       0.00000000     -24.94180489
Sm       0.00000000       0.00000000       2.00242424       0.00000000       0.00000000      24.94180489
2
Properties=species:S:1:pos:R:3:forces:R:3 energy=0.8263341930160688 pbc="F F F"
Sm       0.00000000       0.00000000       0.00000000       0.00000000       0.00000000     -20.19385147
Sm       0.00000000       0.00000000       2.06121212       0.00000000       0.00000000      20.19385147
2
Properties=species:S:1:pos:R:3:forces:R:3 energy=-0.23313942660721626 pbc="F F F"
Sm       0.00000000       0.00000000       0.00000000       0.00000000       0.00000000     -15.92899323
Sm       0.00000000       0.00000000       2.12000000       0.00000000       0.00000000      15.92899323
2
Properties=species:S:1:pos:R:3:forces:R:3 energy=-1.0565333770359977 pbc="F F F"
Sm       0.00000000       0.00000000       0.00000000       0.00000000       0.00000000     -12.17640781
Sm       0.00000000       0.00000000       2.17878788       0.00000000       0.00000000      12.17640781
2
Properties=species:S:1:pos:R:3:forces:R:3 energy=-1.6765812049953834 pbc="F F F"
Sm       0.00000000       0.00000000       0.00000000       0.00000000       0.00000000      -9.02328682
Sm       0.00000000       0.00000000       2.23757576       0.00000000       0.00000000       9.02328682
2
Properties=species:S:1:pos:R:3:forces:R:3 energy=-2.1300378723036775 pbc="F F F"
Sm       0.00000000       0.00000000       0.00000000       0.00000000       0.00000000      -6.51023006
Sm       0.00000000       0.00000000       2.29636364       0.00000000       0.00000000       6.51023006
2
Properties=species:S:1:pos:R:3:forces:R:3 energy=-2.454129993041239 pbc="F F F"
Sm       0.00000000       0.00000000       0.00000000       0.00000000       0.00000000      -4.61328983
Sm       0.00000000       0.00000000       2.35515152       0.00000000       0.00000000       4.61328983
2
Properties=species:S:1:pos:R:3:forces:R:3 energy=-2.6830739768328256 pbc="F F F"
Sm       0.00000000       0.00000000       0.00000000       0.00000000       0.00000000      -3.25734949
Sm       0.00000000       0.00000000       2.41393939       0.00000000       0.00000000       3.25734949
2
Properties=species:S:1:pos:R:3:forces:R:3 energy=-2.845640225434203 pbc="F F F"
Sm       0.00000000       0.00000000       0.00000000       0.00000000       0.00000000      -2.33605170
Sm       0.00000000       0.00000000       2.47272727       0.00000000       0.00000000       2.33605170
2
Properties=species:S:1:pos:R:3:forces:R:3 energy=-2.9639777037945962 pbc="F F F"
Sm       0.00000000       0.00000000       0.00000000       0.00000000       0.00000000      -1.73350036
Sm       0.00000000       0.00000000       2.53151515       0.00000000       0.00000000       1.73350036
2
Properties=species:S:1:pos:R:3:forces:R:3 energy=-3.05353694352693 pbc="F F F"
Sm       0.00000000       0.00000000       0.00000000       0.00000000       0.00000000      -1.33965981
Sm       0.00000000       0.00000000       2.59030303       0.00000000       0.00000000       1.33965981
2
Properties=species:S:1:pos:R:3:forces:R:3 energy=-3.123699090153901 pbc="F F F"
Sm       0.00000000       0.00000000       0.00000000       0.00000000       0.00000000      -1.05933797
Sm       0.00000000       0.00000000       2.64909091       0.00000000       0.00000000       1.05933797
2
Properties=species:S:1:pos:R:3:forces:R:3 energy=-3.1788760954807445 pbc="F F F"
Sm       0.00000000       0.00000000       0.00000000       0.00000000       0.00000000      -0.82009184
Sm       0.00000000       0.00000000       2.70787879       0.00000000       0.00000000       0.82009184
2
Properties=species:S:1:pos:R:3:forces:R:3 energy=-3.2200573595886337 pbc="F F F"
Sm       0.00000000       0.00000000       0.00000000       0.00000000       0.00000000      -0.57850957
Sm       0.00000000       0.00000000       2.76666667       0.00000000       0.00000000       0.57850957
2
Properties=species:S:1:pos:R:3:forces:R:3 energy=-3.246543475063946 pbc="F F F"
Sm       0.00000000       0.00000000       0.00000000       0.00000000       0.00000000      -0.31973329
Sm       0.00000000       0.00000000       2.82545455       0.00000000       0.00000000       0.31973329
2
Properties=species:S:1:pos:R:3:forces:R:3 energy=-3.2574161915800204 pbc="F F F"
Sm       0.00000000       0.00000000       0.00000000       0.00000000       0.00000000      -0.04932112
Sm       0.00000000       0.00000000       2.88424242       0.00000000       0.00000000       0.04932112
2
Properties=species:S:1:pos:R:3:forces:R:3 energy=-3.252411012889477 pbc="F F F"
Sm       0.00000000       0.00000000       0.00000000       0.00000000       0.00000000       0.21759456
Sm       0.00000000       0.00000000       2.94303030       0.00000000       0.00000000      -0.21759456
2
Properties=species:S:1:pos:R:3:forces:R:3 energy=-3.2322225880173727 pbc="F F F"
Sm       0.00000000       0.00000000       0.00000000       0.00000000       0.00000000       0.46469814
Sm       0.00000000       0.00000000       3.00181818       0.00000000       0.00000000      -0.46469814
2
Properties=species:S:1:pos:R:3:forces:R:3 energy=-3.1984244885770257 pbc="F F F"
Sm       0.00000000       0.00000000       0.00000000       0.00000000       0.00000000       0.67876041
Sm       0.00000000       0.00000000       3.06060606       0.00000000       0.00000000      -0.67876041
2
Properties=species:S:1:pos:R:3:forces:R:3 energy=-3.153239987145191 pbc="F F F"
Sm       0.00000000       0.00000000       0.00000000       0.00000000       0.00000000       0.85097748
Sm       0.00000000       0.00000000       3.11939394       0.00000000       0.00000000      -0.85097748
2
Properties=species:S:1:pos:R:3:forces:R:3 energy=-3.0992743662187867 pbc="F F F"
Sm       0.00000000       0.00000000       0.00000000       0.00000000       0.00000000       0.97718221
Sm       0.00000000       0.00000000       3.17818182       0.00000000       0.00000000      -0.97718221
2
Properties=species:S:1:pos:R:3:forces:R:3 energy=-3.039244711601137 pbc="F F F"
Sm       0.00000000       0.00000000       0.00000000       0.00000000       0.00000000       1.05772913
Sm       0.00000000       0.00000000       3.23696970       0.00000000       0.00000000      -1.05772913
2
Properties=species:S:1:pos:R:3:forces:R:3 energy=-2.975720715728528 pbc="F F F"
Sm       0.00000000       0.00000000       0.00000000       0.00000000       0.00000000       1.09709096
Sm       0.00000000       0.00000000       3.29575758       0.00000000       0.00000000      -1.09709096
2
Properties=species:S:1:pos:R:3:forces:R:3 energy=-2.910908343319939 pbc="F F F"
Sm       0.00000000       0.00000000       0.00000000       0.00000000       0.00000000       1.10307610
Sm       0.00000000       0.00000000       3.35454545       0.00000000       0.00000000      -1.10307610
2
Properties=species:S:1:pos:R:3:forces:R:3 energy=-2.846482649267943 pbc="F F F"
Sm       0.00000000       0.00000000       0.00000000       0.00000000       0.00000000       1.08575547
Sm       0.00000000       0.00000000       3.41333333       0.00000000       0.00000000      -1.08575547
2
Properties=species:S:1:pos:R:3:forces:R:3 energy=-2.783490430166601 pbc="F F F"
Sm       0.00000000       0.00000000       0.00000000       0.00000000       0.00000000       1.05616117
Sm       0.00000000       0.00000000       3.47212121       0.00000000       0.00000000      -1.05616117
2
Properties=species:S:1:pos:R:3:forces:R:3 energy=-2.7223336213740446 pbc="F F F"
Sm       0.00000000       0.00000000       0.00000000       0.00000000       0.00000000       1.02502084
Sm       0.00000000       0.00000000       3.53090909       0.00000000       0.00000000      -1.02502084
2
Properties=species:S:1:pos:R:3:forces:R:3 energy=-2.6628168183374465 pbc="F F F"
Sm       0.00000000       0.00000000       0.00000000       0.00000000       0.00000000       1.00176942
Sm       0.00000000       0.00000000       3.58969697       0.00000000       0.00000000      -1.00176942
2
Properties=species:S:1:pos:R:3:forces:R:3 energy=-2.6042508009415064 pbc="F F F"
Sm       0.00000000       0.00000000       0.00000000       0.00000000       0.00000000       0.99367583
Sm       0.00000000       0.00000000       3.64848485       0.00000000       0.00000000      -0.99367583
2
Properties=species:S:1:pos:R:3:forces:R:3 energy=-2.54560815748416 pbc="F F F"
Sm       0.00000000       0.00000000       0.00000000       0.00000000       0.00000000       1.00466514
Sm       0.00000000       0.00000000       3.70727273       0.00000000       0.00000000      -1.00466514
2
Properties=species:S:1:pos:R:3:forces:R:3 energy=-2.4857601230246473 pbc="F F F"
Sm       0.00000000       0.00000000       0.00000000       0.00000000       0.00000000       1.03414965
Sm       0.00000000       0.00000000       3.76606061       0.00000000       0.00000000      -1.03414965
2
Properties=species:S:1:pos:R:3:forces:R:3 energy=-2.423755039612616 pbc="F F F"
Sm       0.00000000       0.00000000       0.00000000       0.00000000       0.00000000       1.07690704
Sm       0.00000000       0.00000000       3.82484848       0.00000000       0.00000000      -1.07690704
2
Properties=species:S:1:pos:R:3:forces:R:3 energy=-2.3590441006686635 pbc="F F F"
Sm       0.00000000       0.00000000       0.00000000       0.00000000       0.00000000       1.12464750
Sm       0.00000000       0.00000000       3.88363636       0.00000000       0.00000000      -1.12464750
2
Properties=species:S:1:pos:R:3:forces:R:3 energy=-2.2915961443624817 pbc="F F F"
Sm       0.00000000       0.00000000       0.00000000       0.00000000       0.00000000       1.16875124
Sm       0.00000000       0.00000000       3.94242424       0.00000000       0.00000000      -1.16875124
2
Properties=species:S:1:pos:R:3:forces:R:3 energy=-2.2218274951941606 pbc="F F F"
Sm       0.00000000       0.00000000       0.00000000       0.00000000       0.00000000       1.20280027
Sm       0.00000000       0.00000000       4.00121212       0.00000000       0.00000000      -1.20280027
2
Properties=species:S:1:pos:R:3:forces:R:3 energy=-2.1504355985111263 pbc="F F F"
Sm       0.00000000       0.00000000       0.00000000       0.00000000       0.00000000       1.22373033
Sm       0.00000000       0.00000000       4.06000000       0.00000000       0.00000000      -1.22373033
2
Properties=species:S:1:pos:R:3:forces:R:3 energy=-2.0782071569084106 pbc="F F F"
Sm       0.00000000       0.00000000       0.00000000       0.00000000       0.00000000       1.23145652
Sm       0.00000000       0.00000000       4.11878788       0.00000000       0.00000000      -1.23145652
2
Properties=species:S:1:pos:R:3:forces:R:3 energy=-2.005873448164999 pbc="F F F"
Sm       0.00000000       0.00000000       0.00000000       0.00000000       0.00000000       1.22758591
Sm       0.00000000       0.00000000       4.17757576       0.00000000       0.00000000      -1.22758591
2
Properties=species:S:1:pos:R:3:forces:R:3 energy=-1.9340602953560881 pbc="F F F"
Sm       0.00000000       0.00000000       0.00000000       0.00000000       0.00000000       1.21404541
Sm       0.00000000       0.00000000       4.23636364       0.00000000       0.00000000      -1.21404541
2
Properties=species:S:1:pos:R:3:forces:R:3 energy=-1.8632920946263514 pbc="F F F"
Sm       0.00000000       0.00000000       0.00000000       0.00000000       0.00000000       1.19217527
Sm       0.00000000       0.00000000       4.29515152       0.00000000       0.00000000      -1.19217527
2
Properties=species:S:1:pos:R:3:forces:R:3 energy=-1.7940432525824859 pbc="F F F"
Sm       0.00000000       0.00000000       0.00000000       0.00000000       0.00000000       1.16248131
Sm       0.00000000       0.00000000       4.35393939       0.00000000       0.00000000      -1.16248131
2
Properties=species:S:1:pos:R:3:forces:R:3 energy=-1.7267679252591586 pbc="F F F"
Sm       0.00000000       0.00000000       0.00000000       0.00000000       0.00000000       1.12493086
Sm       0.00000000       0.00000000       4.41272727       0.00000000       0.00000000      -1.12493086
2
Properties=species:S:1:pos:R:3:forces:R:3 energy=-1.6619308754860183 pbc="F F F"
Sm       0.00000000       0.00000000       0.00000000       0.00000000       0.00000000       1.07959151
Sm       0.00000000       0.00000000       4.47151515       0.00000000       0.00000000      -1.07959151
2
Properties=species:S:1:pos:R:3:forces:R:3 energy=-1.5999698407660632 pbc="F F F"
Sm       0.00000000       0.00000000       0.00000000       0.00000000       0.00000000       1.02731824
Sm       0.00000000       0.00000000       4.53030303       0.00000000       0.00000000      -1.02731824
2
Properties=species:S:1:pos:R:3:forces:R:3 energy=-1.541239279162262 pbc="F F F"
Sm       0.00000000       0.00000000       0.00000000       0.00000000       0.00000000       0.97020084
Sm       0.00000000       0.00000000       4.58909091       0.00000000       0.00000000      -0.97020084
2
Properties=species:S:1:pos:R:3:forces:R:3 energy=-1.4859297227972785 pbc="F F F"
Sm       0.00000000       0.00000000       0.00000000       0.00000000       0.00000000       0.91155624
Sm       0.00000000       0.00000000       4.64787879       0.00000000       0.00000000      -0.91155624
2
Properties=species:S:1:pos:R:3:forces:R:3 energy=-1.4340144584548689 pbc="F F F"
Sm       0.00000000       0.00000000       0.00000000       0.00000000       0.00000000       0.85530061
Sm       0.00000000       0.00000000       4.70666667       0.00000000       0.00000000      -0.85530061
2
Properties=species:S:1:pos:R:3:forces:R:3 energy=-1.3852517568784215 pbc="F F F"
Sm       0.00000000       0.00000000       0.00000000       0.00000000       0.00000000       0.80487370
Sm       0.00000000       0.00000000       4.76545455       0.00000000       0.00000000      -0.80487370
2
Properties=species:S:1:pos:R:3:forces:R:3 energy=-1.339231194499438 pbc="F F F"
Sm       0.00000000       0.00000000       0.00000000       0.00000000       0.00000000       0.76191610
Sm       0.00000000       0.00000000       4.82424242       0.00000000       0.00000000      -0.76191610
2
Properties=species:S:1:pos:R:3:forces:R:3 energy=-1.2955430319990036 pbc="F F F"
Sm       0.00000000       0.00000000       0.00000000       0.00000000       0.00000000       0.72534758
Sm       0.00000000       0.00000000       4.88303030       0.00000000       0.00000000      -0.72534758
2
Properties=species:S:1:pos:R:3:forces:R:3 energy=-1.2539009111770052 pbc="F F F"
Sm       0.00000000       0.00000000       0.00000000       0.00000000       0.00000000       0.69122344
Sm       0.00000000       0.00000000       4.94181818       0.00000000       0.00000000      -0.69122344
2
Properties=species:S:1:pos:R:3:forces:R:3 energy=-1.2143243833813653 pbc="F F F"
Sm       0.00000000       0.00000000       0.00000000       0.00000000       0.00000000       0.65442163
Sm       0.00000000       0.00000000       5.00060606       0.00000000       0.00000000      -0.65442163
2
Properties=species:S:1:pos:R:3:forces:R:3 energy=-1.1770574095358084 pbc="F F F"
Sm       0.00000000       0.00000000       0.00000000       0.00000000       0.00000000       0.61270940
Sm       0.00000000       0.00000000       5.05939394       0.00000000       0.00000000      -0.61270940
2
Properties=species:S:1:pos:R:3:forces:R:3 energy=-1.1422550567840835 pbc="F F F"
Sm       0.00000000       0.00000000       0.00000000       0.00000000       0.00000000       0.57291859
Sm       0.00000000       0.00000000       5.11818182       0.00000000       0.00000000      -0.57291859
2
Properties=species:S:1:pos:R:3:forces:R:3 energy=-1.1093024506510687 pbc="F F F"
Sm       0.00000000       0.00000000       0.00000000       0.00000000       0.00000000       0.55337912
Sm       0.00000000       0.00000000       5.17696970       0.00000000       0.00000000      -0.55337912
2
Properties=species:S:1:pos:R:3:forces:R:3 energy=-1.0764344530595942 pbc="F F F"
Sm       0.00000000       0.00000000       0.00000000       0.00000000       0.00000000       0.57154214
Sm       0.00000000       0.00000000       5.23575758       0.00000000       0.00000000      -0.57154214
2
Properties=species:S:1:pos:R:3:forces:R:3 energy=-1.041523232589042 pbc="F F F"
Sm       0.00000000       0.00000000       0.00000000       0.00000000       0.00000000       0.61799788
Sm       0.00000000       0.00000000       5.29454545       0.00000000       0.00000000      -0.61799788
2
Properties=species:S:1:pos:R:3:forces:R:3 energy=-1.004038134887648 pbc="F F F"
Sm       0.00000000       0.00000000       0.00000000       0.00000000       0.00000000       0.65112299
Sm       0.00000000       0.00000000       5.35333333       0.00000000       0.00000000      -0.65112299
2
Properties=species:S:1:pos:R:3:forces:R:3 energy=-0.9659026707514861 pbc="F F F"
Sm       0.00000000       0.00000000       0.00000000       0.00000000       0.00000000       0.63866729
Sm       0.00000000       0.00000000       5.41212121       0.00000000       0.00000000      -0.63866729
2
Properties=species:S:1:pos:R:3:forces:R:3 energy=-0.9294379784816773 pbc="F F F"
Sm       0.00000000       0.00000000       0.00000000       0.00000000       0.00000000       0.60291690
Sm       0.00000000       0.00000000       5.47090909       0.00000000       0.00000000      -0.60291690
2
Properties=species:S:1:pos:R:3:forces:R:3 energy=-0.8940788653827777 pbc="F F F"
Sm       0.00000000       0.00000000       0.00000000       0.00000000       0.00000000       0.61441827
Sm       0.00000000       0.00000000       5.52969697       0.00000000       0.00000000      -0.61441827
2
Properties=species:S:1:pos:R:3:forces:R:3 energy=-0.855022839394568 pbc="F F F"
Sm       0.00000000       0.00000000       0.00000000       0.00000000       0.00000000       0.73387355
Sm       0.00000000       0.00000000       5.58848485       0.00000000       0.00000000      -0.73387355
2
Properties=species:S:1:pos:R:3:forces:R:3 energy=-0.8061369630933555 pbc="F F F"
Sm       0.00000000       0.00000000       0.00000000       0.00000000       0.00000000       0.93535286
Sm       0.00000000       0.00000000       5.64727273       0.00000000       0.00000000      -0.93535286
2
Properties=species:S:1:pos:R:3:forces:R:3 energy=-0.7460203169718578 pbc="F F F"
Sm       0.00000000       0.00000000       0.00000000       0.00000000       0.00000000       1.08685052
Sm       0.00000000       0.00000000       5.70606061       0.00000000       0.00000000      -1.08685052
2
Properties=species:S:1:pos:R:3:forces:R:3 energy=-0.6820614157378435 pbc="F F F"
Sm       0.00000000       0.00000000       0.00000000       0.00000000       0.00000000       1.04595149
Sm       0.00000000       0.00000000       5.76484848       0.00000000       0.00000000      -1.04595149
2
Properties=species:S:1:pos:R:3:forces:R:3 energy=-0.6273005653762039 pbc="F F F"
Sm       0.00000000       0.00000000       0.00000000       0.00000000       0.00000000       0.78892720
Sm       0.00000000       0.00000000       5.82363636       0.00000000       0.00000000      -0.78892720
2
Properties=species:S:1:pos:R:3:forces:R:3 energy=-0.5913931485176026 pbc="F F F"
Sm       0.00000000       0.00000000       0.00000000       0.00000000       0.00000000       0.43527612
Sm       0.00000000       0.00000000       5.88242424       0.00000000       0.00000000      -0.43527612
2
Properties=species:S:1:pos:R:3:forces:R:3 energy=-0.5748029246893226 pbc="F F F"
Sm       0.00000000       0.00000000       0.00000000       0.00000000       0.00000000       0.14890893
Sm       0.00000000       0.00000000       5.94121212       0.00000000       0.00000000      -0.14890893
2
Properties=species:S:1:pos:R:3:forces:R:3 energy=-0.5702848101435936 pbc="F F F"
Sm       0.00000000       0.00000000       0.00000000       0.00000000       0.00000000       0.04060670
Sm       0.00000000       0.00000000       6.00000000       0.00000000       0.00000000      -0.04060670
