2
Properties=species:S:1:pos:R:3:forces:R:3 energy=12424.781183711915 pbc="F F F"
Tb       0.00000000       0.00000000       0.00000000       0.00000000       0.00000000 -214151.06250000
Tb       0.00000000       0.00000000       0.18000000       0.00000000       0.00000000  214151.06250000
2
Properties=species:S:1:pos:R:3:forces:R:3 energy=4902.092707149416 pbc="F F F"
Tb       0.00000000       0.00000000       0.00000000       0.00000000       0.00000000  -71718.53125000
Tb       0.00000000       0.00000000       0.23878788       0.00000000       0.00000000   71718.53125000
2
Properties=species:S:1:pos:R:3:forces:R:3 energy=2186.138117305666 pbc="F F F"
Tb       0.00000000       0.00000000       0.00000000       0.00000000       0.00000000  -28275.76562500
Tb       0.00000000       0.00000000       0.29757576       0.00000000       0.00000000   28275.76562500
2
Properties=species:S:1:pos:R:3:forces:R:3 energy=1064.1721749228534 pbc="F F F"
Tb       0.00000000       0.00000000       0.00000000       0.00000000       0.00000000  -12334.52343750
Tb       0.00000000       0.00000000       0.35636364       0.00000000       0.00000000   12334.52343750
2
Properties=species:S:1:pos:R:3:forces:R:3 energy=558.460871211916 pbc="F F F"
Tb       0.00000000       0.00000000       0.00000000       0.00000000       0.00000000   -5779.73730469
Tb       0.00000000       0.00000000       0.41515152       0.00000000       0.00000000    5779.73730469
2
Properties=species:S:1:pos:R:3:forces:R:3 energy=315.2647042197285 pbc="F F F"
Tb       0.00000000       0.00000000       0.00000000       0.00000000       0.00000000   -2867.31127930
Tb       0.00000000       0.00000000       0.47393939       0.00000000       0.00000000    2867.31127930
2
Properties=species:S:1:pos:R:3:forces:R:3 energy=191.910685080032 pbc="F F F"
Tb       0.00000000       0.00000000       0.00000000       0.00000000       0.00000000   -1493.35009766
Tb       0.00000000       0.00000000       0.53272727       0.00000000       0.00000000    1493.35009766
2
Properties=species:S:1:pos:R:3:forces:R:3 energy=126.41145567422225 pbc="F F F"
Tb       0.00000000       0.00000000       0.00000000       0.00000000       0.00000000    -811.13159180
Tb       0.00000000       0.00000000       0.59151515       0.00000000       0.00000000     811.13159180
2
Properties=species:S:1:pos:R:3:forces:R:3 energy=90.23896273127909 pbc="F F F"
Tb       0.00000000       0.00000000       0.00000000       0.00000000       0.00000000    -456.59310913
Tb       0.00000000       0.00000000       0.65030303       0.00000000       0.00000000     456.59310913
2
Properties=species:S:1:pos:R:3:forces:R:3 energy=69.58828223997206 pbc="F F F"
Tb       0.00000000       0.00000000       0.00000000       0.00000000       0.00000000    -264.89309692
Tb       0.00000000       0.00000000       0.70909091       0.00000000       0.00000000     264.89309692
2
Properties=species:S:1:pos:R:3:forces:R:3 energy=57.46207688433514 pbc="F F F"
Tb       0.00000000       0.00000000       0.00000000       0.00000000       0.00000000    -157.66421509
Tb       0.00000000       0.00000000       0.76787879       0.00000000       0.00000000     157.66421509
2
Properties=species:S:1:pos:R:3:forces:R:3 energy=50.18262374613142 pbc="F F F"
Tb       0.00000000       0.00000000       0.00000000       0.00000000       0.00000000     -95.30809021
Tb       0.00000000       0.00000000       0.82666667       0.00000000       0.00000000      95.30809021
2
Properties=species:S:1:pos:R:3:forces:R:3 energy=45.79558476430173 pbc="F F F"
Tb       0.00000000       0.00000000       0.00000000       0.00000000       0.00000000     -56.82328033
Tb       0.00000000       0.00000000       0.88545455       0.00000000       0.00000000      56.82328033
2
Properties=species:S:1:pos:R:3:forces:R:3 energy=43.22912918933434 pbc="F F F"
Tb       0.00000000       0.00000000       0.00000000       0.00000000       0.00000000     -32.47581863
Tb       0.00000000       0.00000000       0.94424242       0.00000000       0.00000000      32.47581863
2
Properties=species:S:1:pos:R:3:forces:R:3 energy=41.76197411293003 pbc="F F F"
Tb       0.00000000       0.00000000       0.00000000       0.00000000       0.00000000     -19.12597275
Tb       0.00000000       0.00000000       1.00303030       0.00000000       0.00000000      19.12597275
2
Properties=species:S:1:pos:R:3:forces:R:3 energy=40.80443600237395 pbc="F F F"
Tb       0.00000000       0.00000000       0.00000000       0.00000000       0.00000000     -14.72857857
Tb       0.00000000       0.00000000       1.06181818       0.00000000       0.00000000      14.72857857
2
Properties=species:S:1:pos:R:3:forces:R:3 energy=39.90497303305908 pbc="F F F"
Tb       0.00000000       0.00000000       0.00000000       0.00000000       0.00000000     -16.74313736
Tb       0.00000000       0.00000000       1.12060606       0.00000000       0.00000000      16.74313736
2
Properties=species:S:1:pos:R:3:forces:R:3 energy=38.752305908110415 pbc="F F F"
Tb       0.00000000       0.00000000       0.00000000       0.00000000       0.00000000     -23.03712845
Tb       0.00000000       0.00000000       1.17939394       0.00000000       0.00000000      23.03712845
2
Properties=species:S:1:pos:R:3:forces:R:3 energy=37.14496528216897 pbc="F F F"
Tb       0.00000000       0.00000000       0.00000000       0.00000000       0.00000000     -31.95930481
Tb       0.00000000       0.00000000       1.23818182       0.00000000       0.00000000      31.95930481
2
Properties=species:S:1:pos:R:3:forces:R:3 energy=34.97140564317575 pbc="F F F"
Tb       0.00000000       0.00000000       0.00000000       0.00000000       0.00000000     -42.06758881
Tb       0.00000000       0.00000000       1.29696970       0.00000000       0.00000000      42.06758881
2
Properties=species:S:1:pos:R:3:forces:R:3 energy=32.203848428998924 pbc="F F F"
Tb       0.00000000       0.00000000       0.00000000       0.00000000       0.00000000     -51.91756058
Tb       0.00000000       0.00000000       1.35575758       0.00000000       0.00000000      51.91756058
2
Properties=species:S:1:pos:R:3:forces:R:3 energy=28.902201641545517 pbc="F F F"
Tb       0.00000000       0.00000000       0.00000000       0.00000000       0.00000000     -59.98217010
Tb       0.00000000       0.00000000       1.41454545       0.00000000       0.00000000      59.98217010
2
Properties=species:S:1:pos:R:3:forces:R:3 energy=25.215593329719628 pbc="F F F"
Tb       0.00000000       0.00000000       0.00000000       0.00000000       0.00000000     -64.77523041
Tb       0.00000000       0.00000000       1.47333333       0.00000000       0.00000000      64.77523041
2
Properties=species:S:1:pos:R:3:forces:R:3 energy=21.376004885028678 pbc="F F F"
Tb       0.00000000       0.00000000       0.00000000       0.00000000       0.00000000     -65.01065063
Tb       0.00000000       0.00000000       1.53212121       0.00000000       0.00000000      65.01065063
2
Properties=species:S:1:pos:R:3:forces:R:3 energy=17.67006321196758 pbc="F F F"
Tb       0.00000000       0.00000000       0.00000000       0.00000000       0.00000000     -60.32550430
Tb       0.00000000       0.00000000       1.59090909       0.00000000       0.00000000      60.32550430
2
Properties=species:S:1:pos:R:3:forces:R:3 energy=14.342355445185746 pbc="F F F"
Tb       0.00000000       0.00000000       0.00000000       0.00000000       0.00000000     -52.68423080
Tb       0.00000000       0.00000000       1.64969697       0.00000000       0.00000000      52.68423080
2
Properties=species:S:1:pos:R:3:forces:R:3 energy=11.467016525384924 pbc="F F F"
Tb       0.00000000       0.00000000       0.00000000       0.00000000       0.00000000     -45.38639450
Tb       0.00000000       0.00000000       1.70848485       0.00000000       0.00000000      45.38639450
2
Properties=species:S:1:pos:R:3:forces:R:3 energy=8.975985793038062 pbc="F F F"
Tb       0.00000000       0.00000000       0.00000000       0.00000000       0.00000000     -39.54724121
Tb       0.00000000       0.00000000       1.76727273       0.00000000       0.00000000      39.54724121
2
Properties=species:S:1:pos:R:3:forces:R:3 energy=6.803951504149981 pbc="F F F"
Tb       0.00000000       0.00000000       0.00000000       0.00000000       0.00000000     -34.42378616
Tb       0.00000000       0.00000000       1.82606061       0.00000000       0.00000000      34.42378616
2
Properties=species:S:1:pos:R:3:forces:R:3 energy=4.9184613415047576 pbc="F F F"
Tb       0.00000000       0.00000000       0.00000000       0.00000000       0.00000000     -29.82139778
Tb       0.00000000       0.00000000       1.88484848       0.00000000       0.00000000      29.82139778
2
Properties=species:S:1:pos:R:3:forces:R:3 energy=3.286943489493179 pbc="F F F"
Tb       0.00000000       0.00000000       0.00000000       0.00000000       0.00000000     -25.74957657
Tb       0.00000000       0.00000000       1.94363636       0.00000000       0.00000000      25.74957657
2
Properties=species:S:1:pos:R:3:forces:R:3 energy=1.8873872105849347 pbc="F F F"
Tb       0.00000000       0.00000000       0.00000000       0.00000000       0.00000000     -21.86326599
Tb       0.00000000       0.00000000       2.00242424       0.00000000       0.00000000      21.86326599
2
Properties=species:S:1:pos:R:3:forces:R:3 energy=0.7182064566128322 pbc="F F F"
Tb       0.00000000       0.00000000       0.00000000       0.00000000       0.00000000     -17.89431000
Tb       0.00000000       0.00000000       2.06121212       0.00000000       0.00000000      17.89431000
2
Properties=species:S:1:pos:R:3:forces:R:3 energy=-0.21571653721058562 pbc="F F F"
Tb       0.00000000       0.00000000       0.00000000       0.00000000       0.00000000     -13.89027691
Tb       0.00000000       0.00000000       2.12000000       0.00000000       0.00000000      13.89027691
2
Properties=species:S:1:pos:R:3:forces:R:3 energy=-0.9194749145854324 pbc="F F F"
Tb       0.00000000       0.00000000       0.00000000       0.00000000       0.00000000     -10.11902332
Tb       0.00000000       0.00000000       2.17878788       0.00000000       0.00000000      10.11902332
2
Properties=species:S:1:pos:R:3:forces:R:3 energy=-1.4165622752337204 pbc="F F F"
Tb       0.00000000       0.00000000       0.00000000       0.00000000       0.00000000      -6.90988541
Tb       0.00000000       0.00000000       2.23757576       0.00000000       0.00000000       6.90988541
2
Properties=species:S:1:pos:R:3:forces:R:3 energy=-1.7473941995246873 pbc="F F F"
Tb       0.00000000       0.00000000       0.00000000       0.00000000       0.00000000      -4.48395014
Tb       0.00000000       0.00000000       2.29636364       0.00000000       0.00000000       4.48395014
2
Properties=species:S:1:pos:R:3:forces:R:3 energy=-1.959753589655234 pbc="F F F"
Tb       0.00000000       0.00000000       0.00000000       0.00000000       0.00000000      -2.86871529
Tb       0.00000000       0.00000000       2.35515152       0.00000000       0.00000000       2.86871529
2
Properties=species:S:1:pos:R:3:forces:R:3 energy=-2.0982117646145415 pbc="F F F"
Tb       0.00000000       0.00000000       0.00000000       0.00000000       0.00000000      -1.94164777
Tb       0.00000000       0.00000000       2.41393939       0.00000000       0.00000000       1.94164777
2
Properties=species:S:1:pos:R:3:forces:R:3 energy=-2.197873068172385 pbc="F F F"
Tb       0.00000000       0.00000000       0.00000000       0.00000000       0.00000000      -1.51608503
Tb       0.00000000       0.00000000       2.47272727       0.00000000       0.00000000       1.51608503
2
Properties=species:S:1:pos:R:3:forces:R:3 energy=-2.2825362228109674 pbc="F F F"
Tb       0.00000000       0.00000000       0.00000000       0.00000000       0.00000000      -1.40118611
Tb       0.00000000       0.00000000       2.53151515       0.00000000       0.00000000       1.40118611
2
Properties=species:S:1:pos:R:3:forces:R:3 energy=-2.365432511659686 pbc="F F F"
Tb       0.00000000       0.00000000       0.00000000       0.00000000       0.00000000      -1.43127334
Tb       0.00000000       0.00000000       2.59030303       0.00000000       0.00000000       1.43127334
2
Properties=species:S:1:pos:R:3:forces:R:3 energy=-2.451149451297014 pbc="F F F"
Tb       0.00000000       0.00000000       0.00000000       0.00000000       0.00000000      -1.47977817
Tb       0.00000000       0.00000000       2.64909091       0.00000000       0.00000000       1.47977817
2
Properties=species:S:1:pos:R:3:forces:R:3 energy=-2.5381681816534765 pbc="F F F"
Tb       0.00000000       0.00000000       0.00000000       0.00000000       0.00000000      -1.46599662
Tb       0.00000000       0.00000000       2.70787879       0.00000000       0.00000000       1.46599662
2
Properties=species:S:1:pos:R:3:forces:R:3 energy=-2.621558849068931 pbc="F F F"
Tb       0.00000000       0.00000000       0.00000000       0.00000000       0.00000000      -1.35355461
Tb       0.00000000       0.00000000       2.76666667       0.00000000       0.00000000       1.35355461
2
Properties=species:S:1:pos:R:3:forces:R:3 energy=-2.695320222816484 pbc="F F F"
Tb       0.00000000       0.00000000       0.00000000       0.00000000       0.00000000      -1.14009500
Tb       0.00000000       0.00000000       2.82545455       0.00000000       0.00000000       1.14009500
2
Properties=species:S:1:pos:R:3:forces:R:3 energy=-2.753978464401599 pbc="F F F"
Tb       0.00000000       0.00000000       0.00000000       0.00000000       0.00000000      -0.84388059
Tb       0.00000000       0.00000000       2.88424242       0.00000000       0.00000000       0.84388059
2
Properties=species:S:1:pos:R:3:forces:R:3 energy=-2.793477861709525 pbc="F F F"
Tb       0.00000000       0.00000000       0.00000000       0.00000000       0.00000000      -0.49359131
Tb       0.00000000       0.00000000       2.94303030       0.00000000       0.00000000       0.49359131
2
Properties=species:S:1:pos:R:3:forces:R:3 energy=-2.811606292127393 pbc="F F F"
Tb       0.00000000       0.00000000       0.00000000       0.00000000       0.00000000      -0.12252706
Tb       0.00000000       0.00000000       3.00181818       0.00000000       0.00000000       0.12252706
2
Properties=species:S:1:pos:R:3:forces:R:3 energy=-2.8081437446477113 pbc="F F F"
Tb       0.00000000       0.00000000       0.00000000       0.00000000       0.00000000       0.23543698
Tb       0.00000000       0.00000000       3.06060606       0.00000000       0.00000000      -0.23543698
2
Properties=species:S:1:pos:R:3:forces:R:3 energy=-2.784770102563404 pbc="F F F"
Tb       0.00000000       0.00000000       0.00000000       0.00000000       0.00000000       0.55050480
Tb       0.00000000       0.00000000       3.11939394       0.00000000       0.00000000      -0.55050480
2
Properties=species:S:1:pos:R:3:forces:R:3 energy=-2.744669969840645 pbc="F F F"
Tb       0.00000000       0.00000000       0.00000000       0.00000000       0.00000000       0.80208176
Tb       0.00000000       0.00000000       3.17818182       0.00000000       0.00000000      -0.80208176
2
Properties=species:S:1:pos:R:3:forces:R:3 energy=-2.691874361743996 pbc="F F F"
Tb       0.00000000       0.00000000       0.00000000       0.00000000       0.00000000       0.98219210
Tb       0.00000000       0.00000000       3.23696970       0.00000000       0.00000000      -0.98219210
2
Properties=species:S:1:pos:R:3:forces:R:3 energy=-2.6305075508804077 pbc="F F F"
Tb       0.00000000       0.00000000       0.00000000       0.00000000       0.00000000       1.09524536
Tb       0.00000000       0.00000000       3.29575758       0.00000000       0.00000000      -1.09524536
2
Properties=species:S:1:pos:R:3:forces:R:3 energy=-2.56416610084226 pbc="F F F"
Tb       0.00000000       0.00000000       0.00000000       0.00000000       0.00000000       1.15397477
Tb       0.00000000       0.00000000       3.35454545       0.00000000       0.00000000      -1.15397477
2
Properties=species:S:1:pos:R:3:forces:R:3 energy=-2.495593901684046 pbc="F F F"
Tb       0.00000000       0.00000000       0.00000000       0.00000000       0.00000000       1.17353904
Tb       0.00000000       0.00000000       3.41333333       0.00000000       0.00000000      -1.17353904
2
Properties=species:S:1:pos:R:3:forces:R:3 energy=-2.426698131295881 pbc="F F F"
Tb       0.00000000       0.00000000       0.00000000       0.00000000       0.00000000       1.16680551
Tb       0.00000000       0.00000000       3.47212121       0.00000000       0.00000000      -1.16680551
2
Properties=species:S:1:pos:R:3:forces:R:3 energy=-2.3587409059272377 pbc="F F F"
Tb       0.00000000       0.00000000       0.00000000       0.00000000       0.00000000       1.14291275
Tb       0.00000000       0.00000000       3.53090909       0.00000000       0.00000000      -1.14291275
2
Properties=species:S:1:pos:R:3:forces:R:3 energy=-2.29252398089392 pbc="F F F"
Tb       0.00000000       0.00000000       0.00000000       0.00000000       0.00000000       1.10857880
Tb       0.00000000       0.00000000       3.58969697       0.00000000       0.00000000      -1.10857880
2
Properties=species:S:1:pos:R:3:forces:R:3 energy=-2.228482347709342 pbc="F F F"
Tb       0.00000000       0.00000000       0.00000000       0.00000000       0.00000000       1.06998086
Tb       0.00000000       0.00000000       3.64848485       0.00000000       0.00000000      -1.06998086
2
Properties=species:S:1:pos:R:3:forces:R:3 energy=-2.166680619791976 pbc="F F F"
Tb       0.00000000       0.00000000       0.00000000       0.00000000       0.00000000       1.03340042
Tb       0.00000000       0.00000000       3.70727273       0.00000000       0.00000000      -1.03340042
2
Properties=species:S:1:pos:R:3:forces:R:3 energy=-2.1068291458943267 pbc="F F F"
Tb       0.00000000       0.00000000       0.00000000       0.00000000       0.00000000       1.00438595
Tb       0.00000000       0.00000000       3.76606061       0.00000000       0.00000000      -1.00438595
2
Properties=species:S:1:pos:R:3:forces:R:3 energy=-2.048375410781843 pbc="F F F"
Tb       0.00000000       0.00000000       0.00000000       0.00000000       0.00000000       0.98616344
Tb       0.00000000       0.00000000       3.82484848       0.00000000       0.00000000      -0.98616344
2
Properties=species:S:1:pos:R:3:forces:R:3 energy=-1.9906710739581073 pbc="F F F"
Tb       0.00000000       0.00000000       0.00000000       0.00000000       0.00000000       0.97849238
Tb       0.00000000       0.00000000       3.88363636       0.00000000       0.00000000      -0.97849238
2
Properties=species:S:1:pos:R:3:forces:R:3 energy=-1.9331888608797316 pbc="F F F"
Tb       0.00000000       0.00000000       0.00000000       0.00000000       0.00000000       0.97786862
Tb       0.00000000       0.00000000       3.94242424       0.00000000       0.00000000      -0.97786862
2
Properties=species:S:1:pos:R:3:forces:R:3 energy=-1.8756637891185615 pbc="F F F"
Tb       0.00000000       0.00000000       0.00000000       0.00000000       0.00000000       0.97902197
Tb       0.00000000       0.00000000       4.00121212       0.00000000       0.00000000      -0.97902197
2
Properties=species:S:1:pos:R:3:forces:R:3 energy=-1.818147308386064 pbc="F F F"
Tb       0.00000000       0.00000000       0.00000000       0.00000000       0.00000000       0.97680372
Tb       0.00000000       0.00000000       4.06000000       0.00000000       0.00000000      -0.97680372
2
Properties=species:S:1:pos:R:3:forces:R:3 energy=-1.760955532023442 pbc="F F F"
Tb       0.00000000       0.00000000       0.00000000       0.00000000       0.00000000       0.96752018
Tb       0.00000000       0.00000000       4.11878788       0.00000000       0.00000000      -0.96752018
2
Properties=species:S:1:pos:R:3:forces:R:3 energy=-1.7045649173699406 pbc="F F F"
Tb       0.00000000       0.00000000       0.00000000       0.00000000       0.00000000       0.94934791
Tb       0.00000000       0.00000000       4.17757576       0.00000000       0.00000000      -0.94934791
2
Properties=species:S:1:pos:R:3:forces:R:3 energy=-1.649511659458111 pbc="F F F"
Tb       0.00000000       0.00000000       0.00000000       0.00000000       0.00000000       0.92216814
Tb       0.00000000       0.00000000       4.23636364       0.00000000       0.00000000      -0.92216814
2
Properties=species:S:1:pos:R:3:forces:R:3 energy=-1.5962939520676658 pbc="F F F"
Tb       0.00000000       0.00000000       0.00000000       0.00000000       0.00000000       0.88714421
Tb       0.00000000       0.00000000       4.29515152       0.00000000       0.00000000      -0.88714421
2
Properties=species:S:1:pos:R:3:forces:R:3 energy=-1.545319605330166 pbc="F F F"
Tb       0.00000000       0.00000000       0.00000000       0.00000000       0.00000000       0.84632325
Tb       0.00000000       0.00000000       4.35393939       0.00000000       0.00000000      -0.84632325
2
Properties=species:S:1:pos:R:3:forces:R:3 energy=-1.4968514605456944 pbc="F F F"
Tb       0.00000000       0.00000000       0.00000000       0.00000000       0.00000000       0.80226642
Tb       0.00000000       0.00000000       4.41272727       0.00000000       0.00000000      -0.80226642
2
Properties=species:S:1:pos:R:3:forces:R:3 energy=-1.4510004265268588 pbc="F F F"
Tb       0.00000000       0.00000000       0.00000000       0.00000000       0.00000000       0.75777042
Tb       0.00000000       0.00000000       4.47151515       0.00000000       0.00000000      -0.75777042
2
Properties=species:S:1:pos:R:3:forces:R:3 energy=-1.4077101142717294 pbc="F F F"
Tb       0.00000000       0.00000000       0.00000000       0.00000000       0.00000000       0.71557969
Tb       0.00000000       0.00000000       4.53030303       0.00000000       0.00000000      -0.71557969
2
Properties=species:S:1:pos:R:3:forces:R:3 energy=-1.3667735832851746 pbc="F F F"
Tb       0.00000000       0.00000000       0.00000000       0.00000000       0.00000000       0.67807531
Tb       0.00000000       0.00000000       4.58909091       0.00000000       0.00000000      -0.67807531
2
Properties=species:S:1:pos:R:3:forces:R:3 energy=-1.3278596119720711 pbc="F F F"
Tb       0.00000000       0.00000000       0.00000000       0.00000000       0.00000000       0.64697778
Tb       0.00000000       0.00000000       4.64787879       0.00000000       0.00000000      -0.64697778
2
Properties=species:S:1:pos:R:3:forces:R:3 energy=-1.2905636063395882 pbc="F F F"
Tb       0.00000000       0.00000000       0.00000000       0.00000000       0.00000000       0.62301052
Tb       0.00000000       0.00000000       4.70666667       0.00000000       0.00000000      -0.62301052
2
Properties=species:S:1:pos:R:3:forces:R:3 energy=-1.2544781033724648 pbc="F F F"
Tb       0.00000000       0.00000000       0.00000000       0.00000000       0.00000000       0.60566711
Tb       0.00000000       0.00000000       4.76545455       0.00000000       0.00000000      -0.60566711
2
Properties=species:S:1:pos:R:3:forces:R:3 energy=-1.219256492150074 pbc="F F F"
Tb       0.00000000       0.00000000       0.00000000       0.00000000       0.00000000       0.59308296
Tb       0.00000000       0.00000000       4.82424242       0.00000000       0.00000000      -0.59308296
2
Properties=species:S:1:pos:R:3:forces:R:3 energy=-1.1847143100643185 pbc="F F F"
Tb       0.00000000       0.00000000       0.00000000       0.00000000       0.00000000       0.58214843
Tb       0.00000000       0.00000000       4.88303030       0.00000000       0.00000000      -0.58214843
2
Properties=species:S:1:pos:R:3:forces:R:3 energy=-1.1508556007439112 pbc="F F F"
Tb       0.00000000       0.00000000       0.00000000       0.00000000       0.00000000       0.56895685
Tb       0.00000000       0.00000000       4.94181818       0.00000000       0.00000000      -0.56895685
2
Properties=species:S:1:pos:R:3:forces:R:3 energy=-1.1179343005028486 pbc="F F F"
Tb       0.00000000       0.00000000       0.00000000       0.00000000       0.00000000       0.54988557
Tb       0.00000000       0.00000000       5.00060606       0.00000000       0.00000000      -0.54988557
2
Properties=species:S:1:pos:R:3:forces:R:3 energy=-1.0863413483111584 pbc="F F F"
Tb       0.00000000       0.00000000       0.00000000       0.00000000       0.00000000       0.52386284
Tb       0.00000000       0.00000000       5.05939394       0.00000000       0.00000000      -0.52386284
2
Properties=species:S:1:pos:R:3:forces:R:3 energy=-1.0563904770369619 pbc="F F F"
Tb       0.00000000       0.00000000       0.00000000       0.00000000       0.00000000       0.49554762
Tb       0.00000000       0.00000000       5.11818182       0.00000000       0.00000000      -0.49554762
2
Properties=species:S:1:pos:R:3:forces:R:3 energy=-1.027902591426406 pbc="F F F"
Tb       0.00000000       0.00000000       0.00000000       0.00000000       0.00000000       0.47624356
Tb       0.00000000       0.00000000       5.17696970       0.00000000       0.00000000      -0.47624356
2
Properties=species:S:1:pos:R:3:forces:R:3 energy=-1.000005166795774 pbc="F F F"
Tb       0.00000000       0.00000000       0.00000000       0.00000000       0.00000000       0.47636777
Tb       0.00000000       0.00000000       5.23575758       0.00000000       0.00000000      -0.47636777
2
Properties=species:S:1:pos:R:3:forces:R:3 energy=-0.9716053451842496 pbc="F F F"
Tb       0.00000000       0.00000000       0.00000000       0.00000000       0.00000000       0.49045077
Tb       0.00000000       0.00000000       5.29454545       0.00000000       0.00000000      -0.49045077
2
Properties=species:S:1:pos:R:3:forces:R:3 energy=-0.9425463414902908 pbc="F F F"
Tb       0.00000000       0.00000000       0.00000000       0.00000000       0.00000000       0.49408731
Tb       0.00000000       0.00000000       5.35333333       0.00000000       0.00000000      -0.49408731
2
Properties=species:S:1:pos:R:3:forces:R:3 energy=-0.9141194335310111 pbc="F F F"
Tb       0.00000000       0.00000000       0.00000000       0.00000000       0.00000000       0.46805817
Tb       0.00000000       0.00000000       5.41212121       0.00000000       0.00000000      -0.46805817
2
Properties=species:S:1:pos:R:3:forces:R:3 energy=-0.8878535883597047 pbc="F F F"
Tb       0.00000000       0.00000000       0.00000000       0.00000000       0.00000000       0.42582405
Tb       0.00000000       0.00000000       5.47090909       0.00000000       0.00000000      -0.42582405
2
Properties=species:S:1:pos:R:3:forces:R:3 energy=-0.8635046526409942 pbc="F F F"
Tb       0.00000000       0.00000000       0.00000000       0.00000000       0.00000000       0.41132826
Tb       0.00000000       0.00000000       5.52969697       0.00000000       0.00000000      -0.41132826
2
Properties=species:S:1:pos:R:3:forces:R:3 energy=-0.8381195585599035 pbc="F F F"
Tb       0.00000000       0.00000000       0.00000000       0.00000000       0.00000000       0.46501207
Tb       0.00000000       0.00000000       5.58848485       0.00000000       0.00000000      -0.46501207
2
Properties=species:S:1:pos:R:3:forces:R:3 energy=-0.8076685552533691 pbc="F F F"
Tb       0.00000000       0.00000000       0.00000000       0.00000000       0.00000000       0.57630908
Tb       0.00000000       0.00000000       5.64727273       0.00000000       0.00000000      -0.57630908
2
Properties=species:S:1:pos:R:3:forces:R:3 energy=-0.7707562967801578 pbc="F F F"
Tb       0.00000000       0.00000000       0.00000000       0.00000000       0.00000000       0.66686034
Tb       0.00000000       0.00000000       5.70606061       0.00000000       0.00000000      -0.66686034
2
Properties=species:S:1:pos:R:3:forces:R:3 energy=-0.7314335314311448 pbc="F F F"
Tb       0.00000000       0.00000000       0.00000000       0.00000000       0.00000000       0.64485043
Tb       0.00000000       0.00000000       5.76484848       0.00000000       0.00000000      -0.64485043
2
Properties=species:S:1:pos:R:3:forces:R:3 energy=-0.697553934969328 pbc="F F F"
Tb       0.00000000       0.00000000       0.00000000       0.00000000       0.00000000       0.49020332
Tb       0.00000000       0.00000000       5.82363636       0.00000000       0.00000000      -0.49020332
2
Properties=species:S:1:pos:R:3:forces:R:3 energy=-0.6751138177272247 pbc="F F F"
Tb       0.00000000       0.00000000       0.00000000       0.00000000       0.00000000       0.27475655
Tb       0.00000000       0.00000000       5.88242424       0.00000000       0.00000000      -0.27475655
2
Properties=species:S:1:pos:R:3:forces:R:3 energy=-0.6644750980607194 pbc="F F F"
Tb       0.00000000       0.00000000       0.00000000       0.00000000       0.00000000       0.09952495
Tb       0.00000000       0.00000000       5.94121212       0.00000000       0.00000000      -0.09952495
2
Properties=species:S:1:pos:R:3:forces:R:3 energy=-0.6612280055543273 pbc="F F F"
Tb       0.00000000       0.00000000       0.00000000       0.00000000       0.00000000       0.03298599
Tb       0.00000000       0.00000000       6.00000000       0.00000000       0.00000000      -0.03298599
