2
Properties=species:S:1:pos:R:3:forces:R:3 energy=9193.92732530333 pbc="F F F"
Te       0.00000000       0.00000000       0.00000000       0.00000000       0.00000000 -153255.18750000
Te       0.00000000       0.00000000       0.18000000       0.00000000       0.00000000  153255.18750000
2
Properties=species:S:1:pos:R:3:forces:R:3 energy=3759.87312608458 pbc="F F F"
Te       0.00000000       0.00000000       0.00000000       0.00000000       0.00000000  -52499.32031250
Te       0.00000000       0.00000000       0.23878788       0.00000000       0.00000000   52499.32031250
2
Properties=species:S:1:pos:R:3:forces:R:3 energy=1752.0885801861425 pbc="F F F"
Te       0.00000000       0.00000000       0.00000000       0.00000000       0.00000000  -21188.57617188
Te       0.00000000       0.00000000       0.29757576       0.00000000       0.00000000   21188.57617188
2
Properties=species:S:1:pos:R:3:forces:R:3 energy=902.6715880049782 pbc="F F F"
Te       0.00000000       0.00000000       0.00000000       0.00000000       0.00000000   -9462.75097656
Te       0.00000000       0.00000000       0.35636364       0.00000000       0.00000000    9462.75097656
2
Properties=species:S:1:pos:R:3:forces:R:3 energy=511.01881701522 pbc="F F F"
Te       0.00000000       0.00000000       0.00000000       0.00000000       0.00000000   -4526.92871094
Te       0.00000000       0.00000000       0.41515152       0.00000000       0.00000000    4526.92871094
2
Properties=species:S:1:pos:R:3:forces:R:3 energy=319.20827015922697 pbc="F F F"
Te       0.00000000       0.00000000       0.00000000       0.00000000       0.00000000   -2277.47509766
Te       0.00000000       0.00000000       0.47393939       0.00000000       0.00000000    2277.47509766
2
Properties=species:S:1:pos:R:3:forces:R:3 energy=221.0464202089836 pbc="F F F"
Te       0.00000000       0.00000000       0.00000000       0.00000000       0.00000000   -1187.25659180
Te       0.00000000       0.00000000       0.53272727       0.00000000       0.00000000    1187.25659180
2
Properties=species:S:1:pos:R:3:forces:R:3 energy=169.39032285389501 pbc="F F F"
Te       0.00000000       0.00000000       0.00000000       0.00000000       0.00000000    -629.49652100
Te       0.00000000       0.00000000       0.59151515       0.00000000       0.00000000     629.49652100
2
Properties=species:S:1:pos:R:3:forces:R:3 energy=142.04619146653184 pbc="F F F"
Te       0.00000000       0.00000000       0.00000000       0.00000000       0.00000000    -330.87170410
Te       0.00000000       0.00000000       0.65030303       0.00000000       0.00000000     330.87170410
2
Properties=species:S:1:pos:R:3:forces:R:3 energy=127.84651509224413 pbc="F F F"
Te       0.00000000       0.00000000       0.00000000       0.00000000       0.00000000    -169.01078796
Te       0.00000000       0.00000000       0.70909091       0.00000000       0.00000000     169.01078796
2
Properties=species:S:1:pos:R:3:forces:R:3 energy=120.6413151060079 pbc="F F F"
Te       0.00000000       0.00000000       0.00000000       0.00000000       0.00000000     -86.21801758
Te       0.00000000       0.00000000       0.76787879       0.00000000       0.00000000      86.21801758
2
Properties=species:S:1:pos:R:3:forces:R:3 energy=116.7634772753532 pbc="F F F"
Te       0.00000000       0.00000000       0.00000000       0.00000000       0.00000000     -52.10770798
Te       0.00000000       0.00000000       0.82666667       0.00000000       0.00000000      52.10770798
2
Properties=species:S:1:pos:R:3:forces:R:3 energy=113.90505638366125 pbc="F F F"
Te       0.00000000       0.00000000       0.00000000       0.00000000       0.00000000     -49.30580521
Te       0.00000000       0.00000000       0.88545455       0.00000000       0.00000000      49.30580521
2
Properties=species:S:1:pos:R:3:forces:R:3 energy=110.57279686955063 pbc="F F F"
Te       0.00000000       0.00000000       0.00000000       0.00000000       0.00000000     -66.66220856
Te       0.00000000       0.00000000       0.94424242       0.00000000       0.00000000      66.66220856
2
Properties=species:S:1:pos:R:3:forces:R:3 energy=105.84074968069116 pbc="F F F"
Te       0.00000000       0.00000000       0.00000000       0.00000000       0.00000000     -95.59976959
Te       0.00000000       0.00000000       1.00303030       0.00000000       0.00000000      95.59976959
2
Properties=species:S:1:pos:R:3:forces:R:3 energy=99.25869668609137 pbc="F F F"
Te       0.00000000       0.00000000       0.00000000       0.00000000       0.00000000    -128.27961731
Te       0.00000000       0.00000000       1.06181818       0.00000000       0.00000000     128.27961731
2
Properties=species:S:1:pos:R:3:forces:R:3 energy=90.85365364464629 pbc="F F F"
Te       0.00000000       0.00000000       0.00000000       0.00000000       0.00000000    -156.01615906
Te       0.00000000       0.00000000       1.12060606       0.00000000       0.00000000     156.01615906
2
Properties=species:S:1:pos:R:3:forces:R:3 energy=81.20054893824984 pbc="F F F"
Te       0.00000000       0.00000000       0.00000000       0.00000000       0.00000000    -169.44432068
Te       0.00000000       0.00000000       1.17939394       0.00000000       0.00000000     169.44432068
2
Properties=species:S:1:pos:R:3:forces:R:3 energy=71.2504858913928 pbc="F F F"
Te       0.00000000       0.00000000       0.00000000       0.00000000       0.00000000    -167.08448792
Te       0.00000000       0.00000000       1.23818182       0.00000000       0.00000000     167.08448792
2
Properties=species:S:1:pos:R:3:forces:R:3 energy=61.677395758949906 pbc="F F F"
Te       0.00000000       0.00000000       0.00000000       0.00000000       0.00000000    -158.21453857
Te       0.00000000       0.00000000       1.29696970       0.00000000       0.00000000     158.21453857
2
Properties=species:S:1:pos:R:3:forces:R:3 energy=52.67896011681074 pbc="F F F"
Te       0.00000000       0.00000000       0.00000000       0.00000000       0.00000000    -147.60954285
Te       0.00000000       0.00000000       1.35575758       0.00000000       0.00000000     147.60954285
2
Properties=species:S:1:pos:R:3:forces:R:3 energy=44.35922884082964 pbc="F F F"
Te       0.00000000       0.00000000       0.00000000       0.00000000       0.00000000    -135.19349670
Te       0.00000000       0.00000000       1.41454545       0.00000000       0.00000000     135.19349670
2
Properties=species:S:1:pos:R:3:forces:R:3 energy=36.802182690882134 pbc="F F F"
Te       0.00000000       0.00000000       0.00000000       0.00000000       0.00000000    -121.75626373
Te       0.00000000       0.00000000       1.47333333       0.00000000       0.00000000     121.75626373
2
Properties=species:S:1:pos:R:3:forces:R:3 energy=30.064285146132033 pbc="F F F"
Te       0.00000000       0.00000000       0.00000000       0.00000000       0.00000000    -107.31349182
Te       0.00000000       0.00000000       1.53212121       0.00000000       0.00000000     107.31349182
2
Properties=species:S:1:pos:R:3:forces:R:3 energy=24.187261650374737 pbc="F F F"
Te       0.00000000       0.00000000       0.00000000       0.00000000       0.00000000     -92.79345703
Te       0.00000000       0.00000000       1.59090909       0.00000000       0.00000000      92.79345703
2
Properties=species:S:1:pos:R:3:forces:R:3 energy=19.114557678563607 pbc="F F F"
Te       0.00000000       0.00000000       0.00000000       0.00000000       0.00000000     -80.21736908
Te       0.00000000       0.00000000       1.64969697       0.00000000       0.00000000      80.21736908
2
Properties=species:S:1:pos:R:3:forces:R:3 energy=14.707580041669374 pbc="F F F"
Te       0.00000000       0.00000000       0.00000000       0.00000000       0.00000000     -70.02954865
Te       0.00000000       0.00000000       1.70848485       0.00000000       0.00000000      70.02954865
2
Properties=species:S:1:pos:R:3:forces:R:3 energy=10.858388328793152 pbc="F F F"
Te       0.00000000       0.00000000       0.00000000       0.00000000       0.00000000     -60.99707031
Te       0.00000000       0.00000000       1.76727273       0.00000000       0.00000000      60.99707031
2
Properties=species:S:1:pos:R:3:forces:R:3 energy=7.534559038856945 pbc="F F F"
Te       0.00000000       0.00000000       0.00000000       0.00000000       0.00000000     -52.06856155
Te       0.00000000       0.00000000       1.82606061       0.00000000       0.00000000      52.06856155
2
Properties=species:S:1:pos:R:3:forces:R:3 energy=4.734926894223866 pbc="F F F"
Te       0.00000000       0.00000000       0.00000000       0.00000000       0.00000000     -43.23333359
Te       0.00000000       0.00000000       1.88484848       0.00000000       0.00000000      43.23333359
2
Properties=species:S:1:pos:R:3:forces:R:3 energy=2.43868181032129 pbc="F F F"
Te       0.00000000       0.00000000       0.00000000       0.00000000       0.00000000     -35.04027176
Te       0.00000000       0.00000000       1.94363636       0.00000000       0.00000000      35.04027176
2
Properties=species:S:1:pos:R:3:forces:R:3 energy=0.5934558178278514 pbc="F F F"
Te       0.00000000       0.00000000       0.00000000       0.00000000       0.00000000     -27.93672371
Te       0.00000000       0.00000000       2.00242424       0.00000000       0.00000000      27.93672371
2
Properties=species:S:1:pos:R:3:forces:R:3 energy=-0.8698235059499582 pbc="F F F"
Te       0.00000000       0.00000000       0.00000000       0.00000000       0.00000000     -22.04094505
Te       0.00000000       0.00000000       2.06121212       0.00000000       0.00000000      22.04094505
2
Properties=species:S:1:pos:R:3:forces:R:3 energy=-2.019495970593368 pbc="F F F"
Te       0.00000000       0.00000000       0.00000000       0.00000000       0.00000000     -17.23822594
Te       0.00000000       0.00000000       2.12000000       0.00000000       0.00000000      17.23822594
2
Properties=species:S:1:pos:R:3:forces:R:3 energy=-2.9140816725123235 pbc="F F F"
Te       0.00000000       0.00000000       0.00000000       0.00000000       0.00000000     -13.32742119
Te       0.00000000       0.00000000       2.17878788       0.00000000       0.00000000      13.32742119
2
Properties=species:S:1:pos:R:3:forces:R:3 energy=-3.600102328801448 pbc="F F F"
Te       0.00000000       0.00000000       0.00000000       0.00000000       0.00000000     -10.11354351
Te       0.00000000       0.00000000       2.23757576       0.00000000       0.00000000      10.11354351
2
Properties=species:S:1:pos:R:3:forces:R:3 energy=-4.113921412592404 pbc="F F F"
Te       0.00000000       0.00000000       0.00000000       0.00000000       0.00000000      -7.44893885
Te       0.00000000       0.00000000       2.29636364       0.00000000       0.00000000       7.44893885
2
Properties=species:S:1:pos:R:3:forces:R:3 energy=-4.4847685151525 pbc="F F F"
Te       0.00000000       0.00000000       0.00000000       0.00000000       0.00000000      -5.23719549
Te       0.00000000       0.00000000       2.35515152       0.00000000       0.00000000       5.23719549
2
Properties=species:S:1:pos:R:3:forces:R:3 energy=-4.737371836626354 pbc="F F F"
Te       0.00000000       0.00000000       0.00000000       0.00000000       0.00000000      -3.41822433
Te       0.00000000       0.00000000       2.41393939       0.00000000       0.00000000       3.41822433
2
Properties=species:S:1:pos:R:3:forces:R:3 energy=-4.893538209798195 pbc="F F F"
Te       0.00000000       0.00000000       0.00000000       0.00000000       0.00000000      -1.94982934
Te       0.00000000       0.00000000       2.47272727       0.00000000       0.00000000       1.94982934
2
Properties=species:S:1:pos:R:3:forces:R:3 energy=-4.97269070781324 pbc="F F F"
Te       0.00000000       0.00000000       0.00000000       0.00000000       0.00000000      -0.79060727
Te       0.00000000       0.00000000       2.53151515       0.00000000       0.00000000       0.79060727
2
Properties=species:S:1:pos:R:3:forces:R:3 energy=-4.991560604205672 pbc="F F F"
Te       0.00000000       0.00000000       0.00000000       0.00000000       0.00000000       0.11047401
Te       0.00000000       0.00000000       2.59030303       0.00000000       0.00000000      -0.11047401
2
Properties=species:S:1:pos:R:3:forces:R:3 energy=-4.963576363933122 pbc="F F F"
Te       0.00000000       0.00000000       0.00000000       0.00000000       0.00000000       0.81384170
Te       0.00000000       0.00000000       2.64909091       0.00000000       0.00000000      -0.81384170
2
Properties=species:S:1:pos:R:3:forces:R:3 energy=-4.898563612937831 pbc="F F F"
Te       0.00000000       0.00000000       0.00000000       0.00000000       0.00000000       1.37942600
Te       0.00000000       0.00000000       2.70787879       0.00000000       0.00000000      -1.37942600
2
Properties=species:S:1:pos:R:3:forces:R:3 energy=-4.803137624309028 pbc="F F F"
Te       0.00000000       0.00000000       0.00000000       0.00000000       0.00000000       1.85504937
Te       0.00000000       0.00000000       2.76666667       0.00000000       0.00000000      -1.85504937
2
Properties=species:S:1:pos:R:3:forces:R:3 energy=-4.681635168963827 pbc="F F F"
Te       0.00000000       0.00000000       0.00000000       0.00000000       0.00000000       2.26976061
Te       0.00000000       0.00000000       2.82545455       0.00000000       0.00000000      -2.26976061
2
Properties=species:S:1:pos:R:3:forces:R:3 energy=-4.537270454449912 pbc="F F F"
Te       0.00000000       0.00000000       0.00000000       0.00000000       0.00000000       2.63276124
Te       0.00000000       0.00000000       2.88424242       0.00000000       0.00000000      -2.63276124
2
Properties=species:S:1:pos:R:3:forces:R:3 energy=-4.373259621006176 pbc="F F F"
Te       0.00000000       0.00000000       0.00000000       0.00000000       0.00000000       2.93550777
Te       0.00000000       0.00000000       2.94303030       0.00000000       0.00000000      -2.93550777
2
Properties=species:S:1:pos:R:3:forces:R:3 energy=-4.19369787484369 pbc="F F F"
Te       0.00000000       0.00000000       0.00000000       0.00000000       0.00000000       3.15812445
Te       0.00000000       0.00000000       3.00181818       0.00000000       0.00000000      -3.15812445
2
Properties=species:S:1:pos:R:3:forces:R:3 energy=-4.00389852403699 pbc="F F F"
Te       0.00000000       0.00000000       0.00000000       0.00000000       0.00000000       3.28128552
Te       0.00000000       0.00000000       3.06060606       0.00000000       0.00000000      -3.28128552
2
Properties=species:S:1:pos:R:3:forces:R:3 energy=-3.809990565976424 pbc="F F F"
Te       0.00000000       0.00000000       0.00000000       0.00000000       0.00000000       3.29822993
Te       0.00000000       0.00000000       3.11939394       0.00000000       0.00000000      -3.29822993
2
Properties=species:S:1:pos:R:3:forces:R:3 energy=-3.6180033010724064 pbc="F F F"
Te       0.00000000       0.00000000       0.00000000       0.00000000       0.00000000       3.21876311
Te       0.00000000       0.00000000       3.17818182       0.00000000       0.00000000      -3.21876311
2
Properties=species:S:1:pos:R:3:forces:R:3 energy=-3.4330169337212006 pbc="F F F"
Te       0.00000000       0.00000000       0.00000000       0.00000000       0.00000000       3.06421113
Te       0.00000000       0.00000000       3.23696970       0.00000000       0.00000000      -3.06421113
2
Properties=species:S:1:pos:R:3:forces:R:3 energy=-3.2587032340655844 pbc="F F F"
Te       0.00000000       0.00000000       0.00000000       0.00000000       0.00000000       2.85978389
Te       0.00000000       0.00000000       3.29575758       0.00000000       0.00000000      -2.85978389
2
Properties=species:S:1:pos:R:3:forces:R:3 energy=-3.0972802811504945 pbc="F F F"
Te       0.00000000       0.00000000       0.00000000       0.00000000       0.00000000       2.62943196
Te       0.00000000       0.00000000       3.35454545       0.00000000       0.00000000      -2.62943196
2
Properties=species:S:1:pos:R:3:forces:R:3 energy=-2.9496561372995327 pbc="F F F"
Te       0.00000000       0.00000000       0.00000000       0.00000000       0.00000000       2.39328623
Te       0.00000000       0.00000000       3.41333333       0.00000000       0.00000000      -2.39328623
2
Properties=species:S:1:pos:R:3:forces:R:3 energy=-2.8157083403820207 pbc="F F F"
Te       0.00000000       0.00000000       0.00000000       0.00000000       0.00000000       2.16604662
Te       0.00000000       0.00000000       3.47212121       0.00000000       0.00000000      -2.16604662
2
Properties=species:S:1:pos:R:3:forces:R:3 energy=-2.694635575216914 pbc="F F F"
Te       0.00000000       0.00000000       0.00000000       0.00000000       0.00000000       1.95627415
Te       0.00000000       0.00000000       3.53090909       0.00000000       0.00000000      -1.95627415
2
Properties=species:S:1:pos:R:3:forces:R:3 energy=-2.585292725368269 pbc="F F F"
Te       0.00000000       0.00000000       0.00000000       0.00000000       0.00000000       1.76708281
Te       0.00000000       0.00000000       3.58969697       0.00000000       0.00000000      -1.76708281
2
Properties=species:S:1:pos:R:3:forces:R:3 energy=-2.4864729199884126 pbc="F F F"
Te       0.00000000       0.00000000       0.00000000       0.00000000       0.00000000       1.59806788
Te       0.00000000       0.00000000       3.64848485       0.00000000       0.00000000      -1.59806788
2
Properties=species:S:1:pos:R:3:forces:R:3 energy=-2.3970426497961137 pbc="F F F"
Te       0.00000000       0.00000000       0.00000000       0.00000000       0.00000000       1.44726634
Te       0.00000000       0.00000000       3.70727273       0.00000000       0.00000000      -1.44726634
2
Properties=species:S:1:pos:R:3:forces:R:3 energy=-2.315995068300168 pbc="F F F"
Te       0.00000000       0.00000000       0.00000000       0.00000000       0.00000000       1.31246984
Te       0.00000000       0.00000000       3.76606061       0.00000000       0.00000000      -1.31246984
2
Properties=species:S:1:pos:R:3:forces:R:3 energy=-2.2424530302203896 pbc="F F F"
Te       0.00000000       0.00000000       0.00000000       0.00000000       0.00000000       1.19173217
Te       0.00000000       0.00000000       3.82484848       0.00000000       0.00000000      -1.19173217
2
Properties=species:S:1:pos:R:3:forces:R:3 energy=-2.175634091473812 pbc="F F F"
Te       0.00000000       0.00000000       0.00000000       0.00000000       0.00000000       1.08339691
Te       0.00000000       0.00000000       3.88363636       0.00000000       0.00000000      -1.08339691
2
Properties=species:S:1:pos:R:3:forces:R:3 energy=-2.1148552712106303 pbc="F F F"
Te       0.00000000       0.00000000       0.00000000       0.00000000       0.00000000       0.98606819
Te       0.00000000       0.00000000       3.94242424       0.00000000       0.00000000      -0.98606819
2
Properties=species:S:1:pos:R:3:forces:R:3 energy=-2.059504724352796 pbc="F F F"
Te       0.00000000       0.00000000       0.00000000       0.00000000       0.00000000       0.89855456
Te       0.00000000       0.00000000       4.00121212       0.00000000       0.00000000      -0.89855456
2
Properties=species:S:1:pos:R:3:forces:R:3 energy=-2.009033474971348 pbc="F F F"
Te       0.00000000       0.00000000       0.00000000       0.00000000       0.00000000       0.81993389
Te       0.00000000       0.00000000       4.06000000       0.00000000       0.00000000      -0.81993389
2
Properties=species:S:1:pos:R:3:forces:R:3 energy=-1.9629390877815713 pbc="F F F"
Te       0.00000000       0.00000000       0.00000000       0.00000000       0.00000000       0.74958044
Te       0.00000000       0.00000000       4.11878788       0.00000000       0.00000000      -0.74958044
2
Properties=species:S:1:pos:R:3:forces:R:3 energy=-1.920745577625904 pbc="F F F"
Te       0.00000000       0.00000000       0.00000000       0.00000000       0.00000000       0.68714839
Te       0.00000000       0.00000000       4.17757576       0.00000000       0.00000000      -0.68714839
2
Properties=species:S:1:pos:R:3:forces:R:3 energy=-1.8819938410525554 pbc="F F F"
Te       0.00000000       0.00000000       0.00000000       0.00000000       0.00000000       0.63248247
Te       0.00000000       0.00000000       4.23636364       0.00000000       0.00000000      -0.63248247
2
Properties=species:S:1:pos:R:3:forces:R:3 energy=-1.8462302268948672 pbc="F F F"
Te       0.00000000       0.00000000       0.00000000       0.00000000       0.00000000       0.58546042
Te       0.00000000       0.00000000       4.29515152       0.00000000       0.00000000      -0.58546042
2
Properties=species:S:1:pos:R:3:forces:R:3 energy=-1.8130125620921027 pbc="F F F"
Te       0.00000000       0.00000000       0.00000000       0.00000000       0.00000000       0.54584903
Te       0.00000000       0.00000000       4.35393939       0.00000000       0.00000000      -0.54584903
2
Properties=species:S:1:pos:R:3:forces:R:3 energy=-1.7819163113906868 pbc="F F F"
Te       0.00000000       0.00000000       0.00000000       0.00000000       0.00000000       0.51317668
Te       0.00000000       0.00000000       4.41272727       0.00000000       0.00000000      -0.51317668
2
Properties=species:S:1:pos:R:3:forces:R:3 energy=-1.7525539240951569 pbc="F F F"
Te       0.00000000       0.00000000       0.00000000       0.00000000       0.00000000       0.48669446
Te       0.00000000       0.00000000       4.47151515       0.00000000       0.00000000      -0.48669446
2
Properties=species:S:1:pos:R:3:forces:R:3 energy=-1.7245903816249237 pbc="F F F"
Te       0.00000000       0.00000000       0.00000000       0.00000000       0.00000000       0.46540436
Te       0.00000000       0.00000000       4.53030303       0.00000000       0.00000000      -0.46540436
2
Properties=species:S:1:pos:R:3:forces:R:3 energy=-1.6977546491096662 pbc="F F F"
Te       0.00000000       0.00000000       0.00000000       0.00000000       0.00000000       0.44815877
Te       0.00000000       0.00000000       4.58909091       0.00000000       0.00000000      -0.44815877
2
Properties=species:S:1:pos:R:3:forces:R:3 energy=-1.6718426722925974 pbc="F F F"
Te       0.00000000       0.00000000       0.00000000       0.00000000       0.00000000       0.43377462
Te       0.00000000       0.00000000       4.64787879       0.00000000       0.00000000      -0.43377462
2
Properties=species:S:1:pos:R:3:forces:R:3 energy=-1.6467183743863396 pbc="F F F"
Te       0.00000000       0.00000000       0.00000000       0.00000000       0.00000000       0.42115223
Te       0.00000000       0.00000000       4.70666667       0.00000000       0.00000000      -0.42115223
2
Properties=species:S:1:pos:R:3:forces:R:3 energy=-1.6223096936559702 pbc="F F F"
Te       0.00000000       0.00000000       0.00000000       0.00000000       0.00000000       0.40933514
Te       0.00000000       0.00000000       4.76545455       0.00000000       0.00000000      -0.40933514
2
Properties=species:S:1:pos:R:3:forces:R:3 energy=-1.5985893527095376 pbc="F F F"
Te       0.00000000       0.00000000       0.00000000       0.00000000       0.00000000       0.39753151
Te       0.00000000       0.00000000       4.82424242       0.00000000       0.00000000      -0.39753151
2
Properties=species:S:1:pos:R:3:forces:R:3 energy=-1.5755832764241984 pbc="F F F"
Te       0.00000000       0.00000000       0.00000000       0.00000000       0.00000000       0.38507751
Te       0.00000000       0.00000000       4.88303030       0.00000000       0.00000000      -0.38507751
2
Properties=species:S:1:pos:R:3:forces:R:3 energy=-1.5533394133812903 pbc="F F F"
Te       0.00000000       0.00000000       0.00000000       0.00000000       0.00000000       0.37135875
Te       0.00000000       0.00000000       4.94181818       0.00000000       0.00000000      -0.37135875
2
Properties=species:S:1:pos:R:3:forces:R:3 energy=-1.5319545864668818 pbc="F F F"
Te       0.00000000       0.00000000       0.00000000       0.00000000       0.00000000       0.35584730
Te       0.00000000       0.00000000       5.00060606       0.00000000       0.00000000      -0.35584730
2
Properties=species:S:1:pos:R:3:forces:R:3 energy=-1.5115399649433987 pbc="F F F"
Te       0.00000000       0.00000000       0.00000000       0.00000000       0.00000000       0.33829597
Te       0.00000000       0.00000000       5.05939394       0.00000000       0.00000000      -0.33829597
2
Properties=species:S:1:pos:R:3:forces:R:3 energy=-1.4922064480563928 pbc="F F F"
Te       0.00000000       0.00000000       0.00000000       0.00000000       0.00000000       0.31940955
Te       0.00000000       0.00000000       5.11818182       0.00000000       0.00000000      -0.31940955
2
Properties=species:S:1:pos:R:3:forces:R:3 energy=-1.4739666714147472 pbc="F F F"
Te       0.00000000       0.00000000       0.00000000       0.00000000       0.00000000       0.30158457
Te       0.00000000       0.00000000       5.17696970       0.00000000       0.00000000      -0.30158457
2
Properties=species:S:1:pos:R:3:forces:R:3 energy=-1.4566582251208298 pbc="F F F"
Te       0.00000000       0.00000000       0.00000000       0.00000000       0.00000000       0.28826448
Te       0.00000000       0.00000000       5.23575758       0.00000000       0.00000000      -0.28826448
2
Properties=species:S:1:pos:R:3:forces:R:3 energy=-1.4399673906743127 pbc="F F F"
Te       0.00000000       0.00000000       0.00000000       0.00000000       0.00000000       0.28016770
Te       0.00000000       0.00000000       5.29454545       0.00000000       0.00000000      -0.28016770
2
Properties=species:S:1:pos:R:3:forces:R:3 energy=-1.423717611197816 pbc="F F F"
Te       0.00000000       0.00000000       0.00000000       0.00000000       0.00000000       0.27195567
Te       0.00000000       0.00000000       5.35333333       0.00000000       0.00000000      -0.27195567
2
Properties=species:S:1:pos:R:3:forces:R:3 energy=-1.4081328136701472 pbc="F F F"
Te       0.00000000       0.00000000       0.00000000       0.00000000       0.00000000       0.25687745
Te       0.00000000       0.00000000       5.41212121       0.00000000       0.00000000      -0.25687745
2
Properties=species:S:1:pos:R:3:forces:R:3 energy=-1.393653754136481 pbc="F F F"
Te       0.00000000       0.00000000       0.00000000       0.00000000       0.00000000       0.23498981
Te       0.00000000       0.00000000       5.47090909       0.00000000       0.00000000      -0.23498981
2
Properties=species:S:1:pos:R:3:forces:R:3 energy=-1.38049162881219 pbc="F F F"
Te       0.00000000       0.00000000       0.00000000       0.00000000       0.00000000       0.21359587
Te       0.00000000       0.00000000       5.52969697       0.00000000       0.00000000      -0.21359587
2
Properties=species:S:1:pos:R:3:forces:R:3 energy=-1.3683823120451226 pbc="F F F"
Te       0.00000000       0.00000000       0.00000000       0.00000000       0.00000000       0.19992436
Te       0.00000000       0.00000000       5.58848485       0.00000000       0.00000000      -0.19992436
2
Properties=species:S:1:pos:R:3:forces:R:3 energy=-1.3568737738724888 pbc="F F F"
Te       0.00000000       0.00000000       0.00000000       0.00000000       0.00000000       0.19190347
Te       0.00000000       0.00000000       5.64727273       0.00000000       0.00000000      -0.19190347
2
Properties=species:S:1:pos:R:3:forces:R:3 energy=-1.3459694976980305 pbc="F F F"
Te       0.00000000       0.00000000       0.00000000       0.00000000       0.00000000       0.17649050
Te       0.00000000       0.00000000       5.70606061       0.00000000       0.00000000      -0.17649050
2
Properties=species:S:1:pos:R:3:forces:R:3 energy=-1.3364557485976605 pbc="F F F"
Te       0.00000000       0.00000000       0.00000000       0.00000000       0.00000000       0.14355764
Te       0.00000000       0.00000000       5.76484848       0.00000000       0.00000000      -0.14355764
2
Properties=species:S:1:pos:R:3:forces:R:3 energy=-1.3293409431180816 pbc="F F F"
Te       0.00000000       0.00000000       0.00000000       0.00000000       0.00000000       0.09747592
Te       0.00000000       0.00000000       5.82363636       0.00000000       0.00000000      -0.09747592
2
Properties=species:S:1:pos:R:3:forces:R:3 energy=-1.3250017658070237 pbc="F F F"
Te       0.00000000       0.00000000       0.00000000       0.00000000       0.00000000       0.05192480
Te       0.00000000       0.00000000       5.88242424       0.00000000       0.00000000      -0.05192480
2
Properties=species:S:1:pos:R:3:forces:R:3 energy=-1.322984132465293 pbc="F F F"
Te       0.00000000       0.00000000       0.00000000       0.00000000       0.00000000       0.01935498
Te       0.00000000       0.00000000       5.94121212       0.00000000       0.00000000      -0.01935498
2
Properties=species:S:1:pos:R:3:forces:R:3 energy=-1.3223168171162913 pbc="F F F"
Te       0.00000000       0.00000000       0.00000000       0.00000000       0.00000000       0.00726031
Te       0.00000000       0.00000000       6.00000000       0.00000000       0.00000000      -0.00726031
