2
Properties=species:S:1:pos:R:3:forces:R:3 energy=6349.42940255958 pbc="F F F"
Zr       0.00000000       0.00000000       0.00000000       0.00000000       0.00000000 -102790.83593750
Zr       0.00000000       0.00000000       0.18000000       0.00000000       0.00000000  102790.83593750
2
Properties=species:S:1:pos:R:3:forces:R:3 energy=2666.264119356455 pbc="F F F"
Zr       0.00000000       0.00000000       0.00000000       0.00000000       0.00000000  -36104.55468750
Zr       0.00000000       0.00000000       0.23878788       0.00000000       0.00000000   36104.55468750
2
Properties=species:S:1:pos:R:3:forces:R:3 energy=1270.699177950205 pbc="F F F"
Zr       0.00000000       0.00000000       0.00000000       0.00000000       0.00000000  -14944.59960938
Zr       0.00000000       0.00000000       0.29757576       0.00000000       0.00000000   14944.59960938
2
Properties=species:S:1:pos:R:3:forces:R:3 energy=664.7002765830175 pbc="F F F"
Zr       0.00000000       0.00000000       0.00000000       0.00000000       0.00000000   -6853.07763672
Zr       0.00000000       0.00000000       0.35636364       0.00000000       0.00000000    6853.07763672
2
Properties=species:S:1:pos:R:3:forces:R:3 energy=377.74242136474373 pbc="F F F"
Zr       0.00000000       0.00000000       0.00000000       0.00000000       0.00000000   -3365.65283203
Zr       0.00000000       0.00000000       0.41515152       0.00000000       0.00000000    3365.65283203
2
Properties=species:S:1:pos:R:3:forces:R:3 energy=233.52994273338408 pbc="F F F"
Zr       0.00000000       0.00000000       0.00000000       0.00000000       0.00000000   -1736.01989746
Zr       0.00000000       0.00000000       0.47393939       0.00000000       0.00000000    1736.01989746
2
Properties=species:S:1:pos:R:3:forces:R:3 energy=157.89478039253976 pbc="F F F"
Zr       0.00000000       0.00000000       0.00000000       0.00000000       0.00000000    -927.09179688
Zr       0.00000000       0.00000000       0.53272727       0.00000000       0.00000000     927.09179688
2
Properties=species:S:1:pos:R:3:forces:R:3 energy=117.0929157938589 pbc="F F F"
Zr       0.00000000       0.00000000       0.00000000       0.00000000       0.00000000    -504.74832153
Zr       0.00000000       0.00000000       0.59151515       0.00000000       0.00000000     504.74832153
2
Properties=species:S:1:pos:R:3:forces:R:3 energy=94.84435016438027 pbc="F F F"
Zr       0.00000000       0.00000000       0.00000000       0.00000000       0.00000000    -274.64266968
Zr       0.00000000       0.00000000       0.65030303       0.00000000       0.00000000     274.64266968
2
Properties=species:S:1:pos:R:3:forces:R:3 energy=82.83138788642812 pbc="F F F"
Zr       0.00000000       0.00000000       0.00000000       0.00000000       0.00000000    -146.56733704
Zr       0.00000000       0.00000000       0.70909091       0.00000000       0.00000000     146.56733704
2
Properties=species:S:1:pos:R:3:forces:R:3 energy=76.46067570118934 pbc="F F F"
Zr       0.00000000       0.00000000       0.00000000       0.00000000       0.00000000     -77.83203888
Zr       0.00000000       0.00000000       0.76787879       0.00000000       0.00000000      77.83203888
2
Properties=species:S:1:pos:R:3:forces:R:3 energy=72.97161640500262 pbc="F F F"
Zr       0.00000000       0.00000000       0.00000000       0.00000000       0.00000000     -45.40040588
Zr       0.00000000       0.00000000       0.82666667       0.00000000       0.00000000      45.40040588
2
Properties=species:S:1:pos:R:3:forces:R:3 energy=70.74110208137606 pbc="F F F"
Zr       0.00000000       0.00000000       0.00000000       0.00000000       0.00000000     -32.67162704
Zr       0.00000000       0.00000000       0.88545455       0.00000000       0.00000000      32.67162704
2
Properties=species:S:1:pos:R:3:forces:R:3 energy=68.94089332740553 pbc="F F F"
Zr       0.00000000       0.00000000       0.00000000       0.00000000       0.00000000     -29.91936874
Zr       0.00000000       0.00000000       0.94424242       0.00000000       0.00000000      29.91936874
2
Properties=species:S:1:pos:R:3:forces:R:3 energy=67.06062182126568 pbc="F F F"
Zr       0.00000000       0.00000000       0.00000000       0.00000000       0.00000000     -35.52994919
Zr       0.00000000       0.00000000       1.00303030       0.00000000       0.00000000      35.52994919
2
Properties=species:S:1:pos:R:3:forces:R:3 energy=64.58315959124076 pbc="F F F"
Zr       0.00000000       0.00000000       0.00000000       0.00000000       0.00000000     -50.26586151
Zr       0.00000000       0.00000000       1.06181818       0.00000000       0.00000000      50.26586151
2
Properties=species:S:1:pos:R:3:forces:R:3 energy=60.99340048684405 pbc="F F F"
Zr       0.00000000       0.00000000       0.00000000       0.00000000       0.00000000     -72.90499115
Zr       0.00000000       0.00000000       1.12060606       0.00000000       0.00000000      72.90499115
2
Properties=species:S:1:pos:R:3:forces:R:3 energy=55.94177713275935 pbc="F F F"
Zr       0.00000000       0.00000000       0.00000000       0.00000000       0.00000000     -99.02777100
Zr       0.00000000       0.00000000       1.17939394       0.00000000       0.00000000      99.02777100
2
Properties=species:S:1:pos:R:3:forces:R:3 energy=49.399946378988204 pbc="F F F"
Zr       0.00000000       0.00000000       0.00000000       0.00000000       0.00000000    -122.68409729
Zr       0.00000000       0.00000000       1.23818182       0.00000000       0.00000000     122.68409729
2
Properties=species:S:1:pos:R:3:forces:R:3 energy=41.65076428277155 pbc="F F F"
Zr       0.00000000       0.00000000       0.00000000       0.00000000       0.00000000    -139.60742188
Zr       0.00000000       0.00000000       1.29696970       0.00000000       0.00000000     139.60742188
2
Properties=species:S:1:pos:R:3:forces:R:3 energy=33.15479075243651 pbc="F F F"
Zr       0.00000000       0.00000000       0.00000000       0.00000000       0.00000000    -147.92523193
Zr       0.00000000       0.00000000       1.35575758       0.00000000       0.00000000     147.92523193
2
Properties=species:S:1:pos:R:3:forces:R:3 energy=24.448532542185447 pbc="F F F"
Zr       0.00000000       0.00000000       0.00000000       0.00000000       0.00000000    -146.43484497
Zr       0.00000000       0.00000000       1.41454545       0.00000000       0.00000000     146.43484497
2
Properties=species:S:1:pos:R:3:forces:R:3 energy=16.1898228400826 pbc="F F F"
Zr       0.00000000       0.00000000       0.00000000       0.00000000       0.00000000    -132.15124512
Zr       0.00000000       0.00000000       1.47333333       0.00000000       0.00000000     132.15124512
2
Properties=species:S:1:pos:R:3:forces:R:3 energy=9.16680491812855 pbc="F F F"
Zr       0.00000000       0.00000000       0.00000000       0.00000000       0.00000000    -105.23802948
Zr       0.00000000       0.00000000       1.53212121       0.00000000       0.00000000     105.23802948
2
Properties=species:S:1:pos:R:3:forces:R:3 energy=3.8671226344269627 pbc="F F F"
Zr       0.00000000       0.00000000       0.00000000       0.00000000       0.00000000     -75.70758820
Zr       0.00000000       0.00000000       1.59090909       0.00000000       0.00000000      75.70758820
2
Properties=species:S:1:pos:R:3:forces:R:3 energy=0.12566458661396135 pbc="F F F"
Zr       0.00000000       0.00000000       0.00000000       0.00000000       0.00000000     -52.87385178
Zr       0.00000000       0.00000000       1.64969697       0.00000000       0.00000000      52.87385178
2
Properties=species:S:1:pos:R:3:forces:R:3 energy=-2.47588112066632 pbc="F F F"
Zr       0.00000000       0.00000000       0.00000000       0.00000000       0.00000000     -36.50511169
Zr       0.00000000       0.00000000       1.70848485       0.00000000       0.00000000      36.50511169
2
Properties=species:S:1:pos:R:3:forces:R:3 energy=-4.261545179839864 pbc="F F F"
Zr       0.00000000       0.00000000       0.00000000       0.00000000       0.00000000     -25.03658295
Zr       0.00000000       0.00000000       1.76727273       0.00000000       0.00000000      25.03658295
2
Properties=species:S:1:pos:R:3:forces:R:3 energy=-5.506187306080262 pbc="F F F"
Zr       0.00000000       0.00000000       0.00000000       0.00000000       0.00000000     -17.93301201
Zr       0.00000000       0.00000000       1.82606061       0.00000000       0.00000000      17.93301201
2
Properties=species:S:1:pos:R:3:forces:R:3 energy=-6.425092032319214 pbc="F F F"
Zr       0.00000000       0.00000000       0.00000000       0.00000000       0.00000000     -13.64187241
Zr       0.00000000       0.00000000       1.88484848       0.00000000       0.00000000      13.64187241
2
Properties=species:S:1:pos:R:3:forces:R:3 energy=-7.133320426256388 pbc="F F F"
Zr       0.00000000       0.00000000       0.00000000       0.00000000       0.00000000     -10.56862736
Zr       0.00000000       0.00000000       1.94363636       0.00000000       0.00000000      10.56862736
2
Properties=species:S:1:pos:R:3:forces:R:3 energy=-7.677028672546819 pbc="F F F"
Zr       0.00000000       0.00000000       0.00000000       0.00000000       0.00000000      -7.99052429
Zr       0.00000000       0.00000000       2.00242424       0.00000000       0.00000000       7.99052429
2
Properties=species:S:1:pos:R:3:forces:R:3 energy=-8.079803318480408 pbc="F F F"
Zr       0.00000000       0.00000000       0.00000000       0.00000000       0.00000000      -5.77236176
Zr       0.00000000       0.00000000       2.06121212       0.00000000       0.00000000       5.77236176
2
Properties=species:S:1:pos:R:3:forces:R:3 energy=-8.362884421034115 pbc="F F F"
Zr       0.00000000       0.00000000       0.00000000       0.00000000       0.00000000      -3.91832232
Zr       0.00000000       0.00000000       2.12000000       0.00000000       0.00000000       3.91832232
2
Properties=species:S:1:pos:R:3:forces:R:3 energy=-8.547182331968484 pbc="F F F"
Zr       0.00000000       0.00000000       0.00000000       0.00000000       0.00000000      -2.40408778
Zr       0.00000000       0.00000000       2.17878788       0.00000000       0.00000000       2.40408778
2
Properties=species:S:1:pos:R:3:forces:R:3 energy=-8.65114060871924 pbc="F F F"
Zr       0.00000000       0.00000000       0.00000000       0.00000000       0.00000000      -1.17541552
Zr       0.00000000       0.00000000       2.23757576       0.00000000       0.00000000       1.17541552
2
Properties=species:S:1:pos:R:3:forces:R:3 energy=-8.689925568626386 pbc="F F F"
Zr       0.00000000       0.00000000       0.00000000       0.00000000       0.00000000      -0.17915873
Zr       0.00000000       0.00000000       2.29636364       0.00000000       0.00000000       0.17915873
2
Properties=species:S:1:pos:R:3:forces:R:3 energy=-8.676001861398536 pbc="F F F"
Zr       0.00000000       0.00000000       0.00000000       0.00000000       0.00000000       0.62305522
Zr       0.00000000       0.00000000       2.35515152       0.00000000       0.00000000      -0.62305522
2
Properties=species:S:1:pos:R:3:forces:R:3 energy=-8.619916050284186 pbc="F F F"
Zr       0.00000000       0.00000000       0.00000000       0.00000000       0.00000000       1.25960720
Zr       0.00000000       0.00000000       2.41393939       0.00000000       0.00000000      -1.25960720
2
Properties=species:S:1:pos:R:3:forces:R:3 energy=-8.530613076561625 pbc="F F F"
Zr       0.00000000       0.00000000       0.00000000       0.00000000       0.00000000       1.75782549
Zr       0.00000000       0.00000000       2.47272727       0.00000000       0.00000000      -1.75782549
2
Properties=species:S:1:pos:R:3:forces:R:3 energy=-8.415415547809003 pbc="F F F"
Zr       0.00000000       0.00000000       0.00000000       0.00000000       0.00000000       2.14470911
Zr       0.00000000       0.00000000       2.53151515       0.00000000       0.00000000      -2.14470911
2
Properties=species:S:1:pos:R:3:forces:R:3 energy=-8.280254590125645 pbc="F F F"
Zr       0.00000000       0.00000000       0.00000000       0.00000000       0.00000000       2.43878913
Zr       0.00000000       0.00000000       2.59030303       0.00000000       0.00000000      -2.43878913
2
Properties=species:S:1:pos:R:3:forces:R:3 energy=-8.130429143630613 pbc="F F F"
Zr       0.00000000       0.00000000       0.00000000       0.00000000       0.00000000       2.64269161
Zr       0.00000000       0.00000000       2.64909091       0.00000000       0.00000000      -2.64269161
2
Properties=species:S:1:pos:R:3:forces:R:3 energy=-7.971518254341085 pbc="F F F"
Zr       0.00000000       0.00000000       0.00000000       0.00000000       0.00000000       2.74547887
Zr       0.00000000       0.00000000       2.70787879       0.00000000       0.00000000      -2.74547887
2
Properties=species:S:1:pos:R:3:forces:R:3 energy=-7.8098529806008035 pbc="F F F"
Zr       0.00000000       0.00000000       0.00000000       0.00000000       0.00000000       2.73518491
Zr       0.00000000       0.00000000       2.76666667       0.00000000       0.00000000      -2.73518491
2
Properties=species:S:1:pos:R:3:forces:R:3 energy=-7.6521211194594025 pbc="F F F"
Zr       0.00000000       0.00000000       0.00000000       0.00000000       0.00000000       2.61365414
Zr       0.00000000       0.00000000       2.82545455       0.00000000       0.00000000      -2.61365414
2
Properties=species:S:1:pos:R:3:forces:R:3 energy=-7.504280846642303 pbc="F F F"
Zr       0.00000000       0.00000000       0.00000000       0.00000000       0.00000000       2.40445805
Zr       0.00000000       0.00000000       2.88424242       0.00000000       0.00000000      -2.40445805
2
Properties=species:S:1:pos:R:3:forces:R:3 energy=-7.37030673293262 pbc="F F F"
Zr       0.00000000       0.00000000       0.00000000       0.00000000       0.00000000       2.15006471
Zr       0.00000000       0.00000000       2.94303030       0.00000000       0.00000000      -2.15006471
2
Properties=species:S:1:pos:R:3:forces:R:3 energy=-7.251392172749159 pbc="F F F"
Zr       0.00000000       0.00000000       0.00000000       0.00000000       0.00000000       1.90022516
Zr       0.00000000       0.00000000       3.00181818       0.00000000       0.00000000      -1.90022516
2
Properties=species:S:1:pos:R:3:forces:R:3 energy=-7.145958712518063 pbc="F F F"
Zr       0.00000000       0.00000000       0.00000000       0.00000000       0.00000000       1.69700527
Zr       0.00000000       0.00000000       3.06060606       0.00000000       0.00000000      -1.69700527
2
Properties=species:S:1:pos:R:3:forces:R:3 energy=-7.050485022245682 pbc="F F F"
Zr       0.00000000       0.00000000       0.00000000       0.00000000       0.00000000       1.56348443
Zr       0.00000000       0.00000000       3.11939394       0.00000000       0.00000000      -1.56348443
2
Properties=species:S:1:pos:R:3:forces:R:3 energy=-6.960718377004819 pbc="F F F"
Zr       0.00000000       0.00000000       0.00000000       0.00000000       0.00000000       1.50158966
Zr       0.00000000       0.00000000       3.17818182       0.00000000       0.00000000      -1.50158966
2
Properties=species:S:1:pos:R:3:forces:R:3 energy=-6.872763904130833 pbc="F F F"
Zr       0.00000000       0.00000000       0.00000000       0.00000000       0.00000000       1.49928212
Zr       0.00000000       0.00000000       3.23696970       0.00000000       0.00000000      -1.49928212
2
Properties=species:S:1:pos:R:3:forces:R:3 energy=-6.783596462074797 pbc="F F F"
Zr       0.00000000       0.00000000       0.00000000       0.00000000       0.00000000       1.53990614
Zr       0.00000000       0.00000000       3.29575758       0.00000000       0.00000000      -1.53990614
2
Properties=species:S:1:pos:R:3:forces:R:3 energy=-6.691251950204926 pbc="F F F"
Zr       0.00000000       0.00000000       0.00000000       0.00000000       0.00000000       1.60350657
Zr       0.00000000       0.00000000       3.35454545       0.00000000       0.00000000      -1.60350657
2
Properties=species:S:1:pos:R:3:forces:R:3 energy=-6.595143466268418 pbc="F F F"
Zr       0.00000000       0.00000000       0.00000000       0.00000000       0.00000000       1.66298580
Zr       0.00000000       0.00000000       3.41333333       0.00000000       0.00000000      -1.66298580
2
Properties=species:S:1:pos:R:3:forces:R:3 energy=-6.496333574961991 pbc="F F F"
Zr       0.00000000       0.00000000       0.00000000       0.00000000       0.00000000       1.69200134
Zr       0.00000000       0.00000000       3.47212121       0.00000000       0.00000000      -1.69200134
2
Properties=species:S:1:pos:R:3:forces:R:3 energy=-6.397026150370224 pbc="F F F"
Zr       0.00000000       0.00000000       0.00000000       0.00000000       0.00000000       1.67980969
Zr       0.00000000       0.00000000       3.53090909       0.00000000       0.00000000      -1.67980969
2
Properties=species:S:1:pos:R:3:forces:R:3 energy=-6.29952117231367 pbc="F F F"
Zr       0.00000000       0.00000000       0.00000000       0.00000000       0.00000000       1.63253248
Zr       0.00000000       0.00000000       3.58969697       0.00000000       0.00000000      -1.63253248
2
Properties=species:S:1:pos:R:3:forces:R:3 energy=-6.2055033443739545 pbc="F F F"
Zr       0.00000000       0.00000000       0.00000000       0.00000000       0.00000000       1.56355119
Zr       0.00000000       0.00000000       3.64848485       0.00000000       0.00000000      -1.56355119
2
Properties=species:S:1:pos:R:3:forces:R:3 energy=-6.115857246239546 pbc="F F F"
Zr       0.00000000       0.00000000       0.00000000       0.00000000       0.00000000       1.48568428
Zr       0.00000000       0.00000000       3.70727273       0.00000000       0.00000000      -1.48568428
2
Properties=species:S:1:pos:R:3:forces:R:3 energy=-6.03081288904519 pbc="F F F"
Zr       0.00000000       0.00000000       0.00000000       0.00000000       0.00000000       1.40813744
Zr       0.00000000       0.00000000       3.76606061       0.00000000       0.00000000      -1.40813744
2
Properties=species:S:1:pos:R:3:forces:R:3 energy=-5.950184252613046 pbc="F F F"
Zr       0.00000000       0.00000000       0.00000000       0.00000000       0.00000000       1.33606291
Zr       0.00000000       0.00000000       3.82484848       0.00000000       0.00000000      -1.33606291
2
Properties=species:S:1:pos:R:3:forces:R:3 energy=-5.873580952136602 pbc="F F F"
Zr       0.00000000       0.00000000       0.00000000       0.00000000       0.00000000       1.27124119
Zr       0.00000000       0.00000000       3.88363636       0.00000000       0.00000000      -1.27124119
2
Properties=species:S:1:pos:R:3:forces:R:3 energy=-5.800582868097506 pbc="F F F"
Zr       0.00000000       0.00000000       0.00000000       0.00000000       0.00000000       1.21325731
Zr       0.00000000       0.00000000       3.94242424       0.00000000       0.00000000      -1.21325731
2
Properties=species:S:1:pos:R:3:forces:R:3 energy=-5.730827228788673 pbc="F F F"
Zr       0.00000000       0.00000000       0.00000000       0.00000000       0.00000000       1.16062546
Zr       0.00000000       0.00000000       4.00121212       0.00000000       0.00000000      -1.16062546
2
Properties=species:S:1:pos:R:3:forces:R:3 energy=-5.664050956474978 pbc="F F F"
Zr       0.00000000       0.00000000       0.00000000       0.00000000       0.00000000       1.11161470
Zr       0.00000000       0.00000000       4.06000000       0.00000000       0.00000000      -1.11161470
2
Properties=species:S:1:pos:R:3:forces:R:3 energy=-5.600086741662362 pbc="F F F"
Zr       0.00000000       0.00000000       0.00000000       0.00000000       0.00000000       1.06476784
Zr       0.00000000       0.00000000       4.11878788       0.00000000       0.00000000      -1.06476784
2
Properties=species:S:1:pos:R:3:forces:R:3 energy=-5.538836294203627 pbc="F F F"
Zr       0.00000000       0.00000000       0.00000000       0.00000000       0.00000000       1.01912415
Zr       0.00000000       0.00000000       4.17757576       0.00000000       0.00000000      -1.01912415
2
Properties=species:S:1:pos:R:3:forces:R:3 energy=-5.4802458518771395 pbc="F F F"
Zr       0.00000000       0.00000000       0.00000000       0.00000000       0.00000000       0.97429520
Zr       0.00000000       0.00000000       4.23636364       0.00000000       0.00000000      -0.97429520
2
Properties=species:S:1:pos:R:3:forces:R:3 energy=-5.424264085668372 pbc="F F F"
Zr       0.00000000       0.00000000       0.00000000       0.00000000       0.00000000       0.93037027
Zr       0.00000000       0.00000000       4.29515152       0.00000000       0.00000000      -0.93037027
2
Properties=species:S:1:pos:R:3:forces:R:3 energy=-5.370831392276687 pbc="F F F"
Zr       0.00000000       0.00000000       0.00000000       0.00000000       0.00000000       0.88776779
Zr       0.00000000       0.00000000       4.35393939       0.00000000       0.00000000      -0.88776779
2
Properties=species:S:1:pos:R:3:forces:R:3 energy=-5.3198493511946285 pbc="F F F"
Zr       0.00000000       0.00000000       0.00000000       0.00000000       0.00000000       0.84702390
Zr       0.00000000       0.00000000       4.41272727       0.00000000       0.00000000      -0.84702390
2
Properties=species:S:1:pos:R:3:forces:R:3 energy=-5.271194521307294 pbc="F F F"
Zr       0.00000000       0.00000000       0.00000000       0.00000000       0.00000000       0.80864912
Zr       0.00000000       0.00000000       4.47151515       0.00000000       0.00000000      -0.80864912
2
Properties=species:S:1:pos:R:3:forces:R:3 energy=-5.224717620266545 pbc="F F F"
Zr       0.00000000       0.00000000       0.00000000       0.00000000       0.00000000       0.77299094
Zr       0.00000000       0.00000000       4.53030303       0.00000000       0.00000000      -0.77299094
2
Properties=species:S:1:pos:R:3:forces:R:3 energy=-5.180254365032759 pbc="F F F"
Zr       0.00000000       0.00000000       0.00000000       0.00000000       0.00000000       0.74015081
Zr       0.00000000       0.00000000       4.58909091       0.00000000       0.00000000      -0.74015081
2
Properties=species:S:1:pos:R:3:forces:R:3 energy=-5.137643216219998 pbc="F F F"
Zr       0.00000000       0.00000000       0.00000000       0.00000000       0.00000000       0.70994085
Zr       0.00000000       0.00000000       4.64787879       0.00000000       0.00000000      -0.70994085
2
Properties=species:S:1:pos:R:3:forces:R:3 energy=-5.0967399509716405 pbc="F F F"
Zr       0.00000000       0.00000000       0.00000000       0.00000000       0.00000000       0.68188328
Zr       0.00000000       0.00000000       4.70666667       0.00000000       0.00000000      -0.68188328
2
Properties=species:S:1:pos:R:3:forces:R:3 energy=-5.0574420830257685 pbc="F F F"
Zr       0.00000000       0.00000000       0.00000000       0.00000000       0.00000000       0.65524536
Zr       0.00000000       0.00000000       4.76545455       0.00000000       0.00000000      -0.65524536
2
Properties=species:S:1:pos:R:3:forces:R:3 energy=-5.01968866631019 pbc="F F F"
Zr       0.00000000       0.00000000       0.00000000       0.00000000       0.00000000       0.62905604
Zr       0.00000000       0.00000000       4.82424242       0.00000000       0.00000000      -0.62905604
2
Properties=species:S:1:pos:R:3:forces:R:3 energy=-4.983496521895171 pbc="F F F"
Zr       0.00000000       0.00000000       0.00000000       0.00000000       0.00000000       0.60208952
Zr       0.00000000       0.00000000       4.88303030       0.00000000       0.00000000      -0.60208952
2
Properties=species:S:1:pos:R:3:forces:R:3 energy=-4.948942869115131 pbc="F F F"
Zr       0.00000000       0.00000000       0.00000000       0.00000000       0.00000000       0.57287019
Zr       0.00000000       0.00000000       4.94181818       0.00000000       0.00000000      -0.57287019
2
Properties=species:S:1:pos:R:3:forces:R:3 energy=-4.916211032243733 pbc="F F F"
Zr       0.00000000       0.00000000       0.00000000       0.00000000       0.00000000       0.54003143
Zr       0.00000000       0.00000000       5.00060606       0.00000000       0.00000000      -0.54003143
2
Properties=species:S:1:pos:R:3:forces:R:3 energy=-4.885526976802341 pbc="F F F"
Zr       0.00000000       0.00000000       0.00000000       0.00000000       0.00000000       0.50322360
Zr       0.00000000       0.00000000       5.05939394       0.00000000       0.00000000      -0.50322360
2
Properties=species:S:1:pos:R:3:forces:R:3 energy=-4.8570746052720875 pbc="F F F"
Zr       0.00000000       0.00000000       0.00000000       0.00000000       0.00000000       0.46499020
Zr       0.00000000       0.00000000       5.11818182       0.00000000       0.00000000      -0.46499020
2
Properties=species:S:1:pos:R:3:forces:R:3 energy=-4.830756849006326 pbc="F F F"
Zr       0.00000000       0.00000000       0.00000000       0.00000000       0.00000000       0.43191302
Zr       0.00000000       0.00000000       5.17696970       0.00000000       0.00000000      -0.43191302
2
Properties=species:S:1:pos:R:3:forces:R:3 energy=-4.806047308517985 pbc="F F F"
Zr       0.00000000       0.00000000       0.00000000       0.00000000       0.00000000       0.41106111
Zr       0.00000000       0.00000000       5.23575758       0.00000000       0.00000000      -0.41106111
2
Properties=species:S:1:pos:R:3:forces:R:3 energy=-4.782220776567084 pbc="F F F"
Zr       0.00000000       0.00000000       0.00000000       0.00000000       0.00000000       0.40017855
Zr       0.00000000       0.00000000       5.29454545       0.00000000       0.00000000      -0.40017855
2
Properties=species:S:1:pos:R:3:forces:R:3 energy=-4.759102412692705 pbc="F F F"
Zr       0.00000000       0.00000000       0.00000000       0.00000000       0.00000000       0.38386559
Zr       0.00000000       0.00000000       5.35333333       0.00000000       0.00000000      -0.38386559
2
Properties=species:S:1:pos:R:3:forces:R:3 energy=-4.737467168024823 pbc="F F F"
Zr       0.00000000       0.00000000       0.00000000       0.00000000       0.00000000       0.34901899
Zr       0.00000000       0.00000000       5.41212121       0.00000000       0.00000000      -0.34901899
2
Properties=species:S:1:pos:R:3:forces:R:3 energy=-4.718298227475562 pbc="F F F"
Zr       0.00000000       0.00000000       0.00000000       0.00000000       0.00000000       0.30297461
Zr       0.00000000       0.00000000       5.47090909       0.00000000       0.00000000      -0.30297461
2
Properties=species:S:1:pos:R:3:forces:R:3 energy=-4.701582503238467 pbc="F F F"
Zr       0.00000000       0.00000000       0.00000000       0.00000000       0.00000000       0.27004397
Zr       0.00000000       0.00000000       5.52969697       0.00000000       0.00000000      -0.27004397
2
Properties=species:S:1:pos:R:3:forces:R:3 energy=-4.685888656078249 pbc="F F F"
Zr       0.00000000       0.00000000       0.00000000       0.00000000       0.00000000       0.26967123
Zr       0.00000000       0.00000000       5.58848485       0.00000000       0.00000000      -0.26967123
2
Properties=species:S:1:pos:R:3:forces:R:3 energy=-4.669403631606766 pbc="F F F"
Zr       0.00000000       0.00000000       0.00000000       0.00000000       0.00000000       0.29276812
Zr       0.00000000       0.00000000       5.64727273       0.00000000       0.00000000      -0.29276812
2
Properties=species:S:1:pos:R:3:forces:R:3 energy=-4.651737031096593 pbc="F F F"
Zr       0.00000000       0.00000000       0.00000000       0.00000000       0.00000000       0.30243912
Zr       0.00000000       0.00000000       5.70606061       0.00000000       0.00000000      -0.30243912
2
Properties=species:S:1:pos:R:3:forces:R:3 energy=-4.634689861679069 pbc="F F F"
Zr       0.00000000       0.00000000       0.00000000       0.00000000       0.00000000       0.26852775
Zr       0.00000000       0.00000000       5.76484848       0.00000000       0.00000000      -0.26852775
2
Properties=species:S:1:pos:R:3:forces:R:3 energy=-4.620924122659045 pbc="F F F"
Zr       0.00000000       0.00000000       0.00000000       0.00000000       0.00000000       0.19569448
Zr       0.00000000       0.00000000       5.82363636       0.00000000       0.00000000      -0.19569448
2
Properties=species:S:1:pos:R:3:forces:R:3 energy=-4.611900497476942 pbc="F F F"
Zr       0.00000000       0.00000000       0.00000000       0.00000000       0.00000000       0.11344624
Zr       0.00000000       0.00000000       5.88242424       0.00000000       0.00000000      -0.11344624
2
Properties=species:S:1:pos:R:3:forces:R:3 energy=-4.607186125539212 pbc="F F F"
Zr       0.00000000       0.00000000       0.00000000       0.00000000       0.00000000       0.05164279
Zr       0.00000000       0.00000000       5.94121212       0.00000000       0.00000000      -0.05164279
2
Properties=species:S:1:pos:R:3:forces:R:3 energy=-4.6050610630558495 pbc="F F F"
Zr       0.00000000       0.00000000       0.00000000       0.00000000       0.00000000       0.02814879
Zr       0.00000000       0.00000000       6.00000000       0.00000000       0.00000000      -0.02814879
