2
Properties=species:S:1:pos:R:3:forces:R:3 energy=4923.530162422909 pbc="F F F"
As       0.00000000       0.00000000       0.00000000       0.00000000       0.00000000  -76395.53906250
As       0.00000000       0.00000000       0.18000000       0.00000000       0.00000000   76395.53906250
2
Properties=species:S:1:pos:R:3:forces:R:3 energy=2165.087535469784 pbc="F F F"
As       0.00000000       0.00000000       0.00000000       0.00000000       0.00000000  -27326.49804688
As       0.00000000       0.00000000       0.23878788       0.00000000       0.00000000   27326.49804688
2
Properties=species:S:1:pos:R:3:forces:R:3 energy=1100.164683907284 pbc="F F F"
As       0.00000000       0.00000000       0.00000000       0.00000000       0.00000000  -11539.29101562
As       0.00000000       0.00000000       0.29757576       0.00000000       0.00000000   11539.29101562
2
Properties=species:S:1:pos:R:3:forces:R:3 energy=626.8787342065883 pbc="F F F"
As       0.00000000       0.00000000       0.00000000       0.00000000       0.00000000   -5445.38281250
As       0.00000000       0.00000000       0.35636364       0.00000000       0.00000000    5445.38281250
2
Properties=species:S:1:pos:R:3:forces:R:3 energy=394.2648426113615 pbc="F F F"
As       0.00000000       0.00000000       0.00000000       0.00000000       0.00000000   -2815.20654297
As       0.00000000       0.00000000       0.41515152       0.00000000       0.00000000    2815.20654297
2
Properties=species:S:1:pos:R:3:forces:R:3 energy=268.65461314451653 pbc="F F F"
As       0.00000000       0.00000000       0.00000000       0.00000000       0.00000000   -1610.00146484
As       0.00000000       0.00000000       0.47393939       0.00000000       0.00000000    1610.00146484
2
Properties=species:S:1:pos:R:3:forces:R:3 energy=192.6762654042101 pbc="F F F"
As       0.00000000       0.00000000       0.00000000       0.00000000       0.00000000   -1044.51953125
As       0.00000000       0.00000000       0.53272727       0.00000000       0.00000000    1044.51953125
2
Properties=species:S:1:pos:R:3:forces:R:3 energy=134.8202931806953 pbc="F F F"
As       0.00000000       0.00000000       0.00000000       0.00000000       0.00000000    -987.97766113
As       0.00000000       0.00000000       0.59151515       0.00000000       0.00000000     987.97766113
2
Properties=species:S:1:pos:R:3:forces:R:3 energy=98.10032259477973 pbc="F F F"
As       0.00000000       0.00000000       0.00000000       0.00000000       0.00000000    -542.95391846
As       0.00000000       0.00000000       0.65030303       0.00000000       0.00000000     542.95391846
2
Properties=species:S:1:pos:R:3:forces:R:3 energy=68.58752827754887 pbc="F F F"
As       0.00000000       0.00000000       0.00000000       0.00000000       0.00000000    -449.42300415
As       0.00000000       0.00000000       0.70909091       0.00000000       0.00000000     449.42300415
2
Properties=species:S:1:pos:R:3:forces:R:3 energy=44.90155442888782 pbc="F F F"
As       0.00000000       0.00000000       0.00000000       0.00000000       0.00000000    -370.57461548
As       0.00000000       0.00000000       0.76787879       0.00000000       0.00000000     370.57461548
2
Properties=species:S:1:pos:R:3:forces:R:3 energy=23.787241708758707 pbc="F F F"
As       0.00000000       0.00000000       0.00000000       0.00000000       0.00000000    -339.49041748
As       0.00000000       0.00000000       0.82666667       0.00000000       0.00000000     339.49041748
2
Properties=species:S:1:pos:R:3:forces:R:3 energy=7.839250434142571 pbc="F F F"
As       0.00000000       0.00000000       0.00000000       0.00000000       0.00000000    -188.03332520
As       0.00000000       0.00000000       0.88545455       0.00000000       0.00000000     188.03332520
2
Properties=species:S:1:pos:R:3:forces:R:3 energy=2.3254787542968374 pbc="F F F"
As       0.00000000       0.00000000       0.00000000       0.00000000       0.00000000      -3.38150978
As       0.00000000       0.00000000       0.94424242       0.00000000       0.00000000       3.38150978
2
Properties=species:S:1:pos:R:3:forces:R:3 energy=6.185194847928388 pbc="F F F"
As       0.00000000       0.00000000       0.00000000       0.00000000       0.00000000     118.94964600
As       0.00000000       0.00000000       1.00303030       0.00000000       0.00000000    -118.94964600
2
Properties=species:S:1:pos:R:3:forces:R:3 energy=14.613810489032971 pbc="F F F"
As       0.00000000       0.00000000       0.00000000       0.00000000       0.00000000     148.98660278
As       0.00000000       0.00000000       1.06181818       0.00000000       0.00000000    -148.98660278
2
Properties=species:S:1:pos:R:3:forces:R:3 energy=22.235270532014148 pbc="F F F"
As       0.00000000       0.00000000       0.00000000       0.00000000       0.00000000     141.35249329
As       0.00000000       0.00000000       1.12060606       0.00000000       0.00000000    -141.35249329
2
Properties=species:S:1:pos:R:3:forces:R:3 energy=25.667213217867126 pbc="F F F"
As       0.00000000       0.00000000       0.00000000       0.00000000       0.00000000      -2.17024684
As       0.00000000       0.00000000       1.17939394       0.00000000       0.00000000       2.17024684
2
Properties=species:S:1:pos:R:3:forces:R:3 energy=23.502309129817732 pbc="F F F"
As       0.00000000       0.00000000       0.00000000       0.00000000       0.00000000     -57.52152634
As       0.00000000       0.00000000       1.23818182       0.00000000       0.00000000      57.52152634
2
Properties=species:S:1:pos:R:3:forces:R:3 energy=19.683460059759955 pbc="F F F"
As       0.00000000       0.00000000       0.00000000       0.00000000       0.00000000     -71.61228943
As       0.00000000       0.00000000       1.29696970       0.00000000       0.00000000      71.61228943
2
Properties=species:S:1:pos:R:3:forces:R:3 energy=15.199433831167957 pbc="F F F"
As       0.00000000       0.00000000       0.00000000       0.00000000       0.00000000     -78.65247345
As       0.00000000       0.00000000       1.35575758       0.00000000       0.00000000      78.65247345
2
Properties=species:S:1:pos:R:3:forces:R:3 energy=10.695858660260086 pbc="F F F"
As       0.00000000       0.00000000       0.00000000       0.00000000       0.00000000     -73.13772583
As       0.00000000       0.00000000       1.41454545       0.00000000       0.00000000      73.13772583
2
Properties=species:S:1:pos:R:3:forces:R:3 energy=6.68625934545152 pbc="F F F"
As       0.00000000       0.00000000       0.00000000       0.00000000       0.00000000     -62.95544434
As       0.00000000       0.00000000       1.47333333       0.00000000       0.00000000      62.95544434
2
Properties=species:S:1:pos:R:3:forces:R:3 energy=3.3084001805752523 pbc="F F F"
As       0.00000000       0.00000000       0.00000000       0.00000000       0.00000000     -51.96785355
As       0.00000000       0.00000000       1.53212121       0.00000000       0.00000000      51.96785355
2
Properties=species:S:1:pos:R:3:forces:R:3 energy=0.5665539877005107 pbc="F F F"
As       0.00000000       0.00000000       0.00000000       0.00000000       0.00000000     -41.44349670
As       0.00000000       0.00000000       1.59090909       0.00000000       0.00000000      41.44349670
2
Properties=species:S:1:pos:R:3:forces:R:3 energy=-1.5841241639919352 pbc="F F F"
As       0.00000000       0.00000000       0.00000000       0.00000000       0.00000000     -31.93155670
As       0.00000000       0.00000000       1.64969697       0.00000000       0.00000000      31.93155670
2
Properties=species:S:1:pos:R:3:forces:R:3 energy=-3.217107987113162 pbc="F F F"
As       0.00000000       0.00000000       0.00000000       0.00000000       0.00000000     -23.90593529
As       0.00000000       0.00000000       1.70848485       0.00000000       0.00000000      23.90593529
2
Properties=species:S:1:pos:R:3:forces:R:3 energy=-4.42940923722254 pbc="F F F"
As       0.00000000       0.00000000       0.00000000       0.00000000       0.00000000     -17.62377739
As       0.00000000       0.00000000       1.76727273       0.00000000       0.00000000      17.62377739
2
Properties=species:S:1:pos:R:3:forces:R:3 energy=-5.319509215476755 pbc="F F F"
As       0.00000000       0.00000000       0.00000000       0.00000000       0.00000000     -12.87909794
As       0.00000000       0.00000000       1.82606061       0.00000000       0.00000000      12.87909794
2
Properties=species:S:1:pos:R:3:forces:R:3 energy=-5.965188485552492 pbc="F F F"
As       0.00000000       0.00000000       0.00000000       0.00000000       0.00000000      -9.23555756
As       0.00000000       0.00000000       1.88484848       0.00000000       0.00000000       9.23555756
2
Properties=species:S:1:pos:R:3:forces:R:3 energy=-6.419708530410033 pbc="F F F"
As       0.00000000       0.00000000       0.00000000       0.00000000       0.00000000      -6.32902765
As       0.00000000       0.00000000       1.94363636       0.00000000       0.00000000       6.32902765
2
Properties=species:S:1:pos:R:3:forces:R:3 energy=-6.719785028778947 pbc="F F F"
As       0.00000000       0.00000000       0.00000000       0.00000000       0.00000000      -3.95978689
As       0.00000000       0.00000000       2.00242424       0.00000000       0.00000000       3.95978689
2
Properties=species:S:1:pos:R:3:forces:R:3 energy=-6.894036878911318 pbc="F F F"
As       0.00000000       0.00000000       0.00000000       0.00000000       0.00000000      -2.03834772
As       0.00000000       0.00000000       2.06121212       0.00000000       0.00000000       2.03834772
2
Properties=species:S:1:pos:R:3:forces:R:3 energy=-6.967214787332864 pbc="F F F"
As       0.00000000       0.00000000       0.00000000       0.00000000       0.00000000      -0.51328880
As       0.00000000       0.00000000       2.12000000       0.00000000       0.00000000       0.51328880
2
Properties=species:S:1:pos:R:3:forces:R:3 energy=-6.9611659515956745 pbc="F F F"
As       0.00000000       0.00000000       0.00000000       0.00000000       0.00000000       0.66611785
As       0.00000000       0.00000000       2.17878788       0.00000000       0.00000000      -0.66611785
2
Properties=species:S:1:pos:R:3:forces:R:3 energy=-6.89455602936893 pbc="F F F"
As       0.00000000       0.00000000       0.00000000       0.00000000       0.00000000       1.55669761
As       0.00000000       0.00000000       2.23757576       0.00000000       0.00000000      -1.55669761
2
Properties=species:S:1:pos:R:3:forces:R:3 energy=-6.782668930188901 pbc="F F F"
As       0.00000000       0.00000000       0.00000000       0.00000000       0.00000000       2.21574140
As       0.00000000       0.00000000       2.29636364       0.00000000       0.00000000      -2.21574140
2
Properties=species:S:1:pos:R:3:forces:R:3 energy=-6.637551789794156 pbc="F F F"
As       0.00000000       0.00000000       0.00000000       0.00000000       0.00000000       2.69531631
As       0.00000000       0.00000000       2.35515152       0.00000000       0.00000000      -2.69531631
2
Properties=species:S:1:pos:R:3:forces:R:3 energy=-6.468390082577953 pbc="F F F"
As       0.00000000       0.00000000       0.00000000       0.00000000       0.00000000       3.04068756
As       0.00000000       0.00000000       2.41393939       0.00000000       0.00000000      -3.04068756
2
Properties=species:S:1:pos:R:3:forces:R:3 energy=-6.2819199985350584 pbc="F F F"
As       0.00000000       0.00000000       0.00000000       0.00000000       0.00000000       3.28979039
As       0.00000000       0.00000000       2.47272727       0.00000000       0.00000000      -3.28979039
2
Properties=species:S:1:pos:R:3:forces:R:3 energy=-6.0829330716874885 pbc="F F F"
As       0.00000000       0.00000000       0.00000000       0.00000000       0.00000000       3.46987391
As       0.00000000       0.00000000       2.53151515       0.00000000       0.00000000      -3.46987391
2
Properties=species:S:1:pos:R:3:forces:R:3 energy=-5.875042186469021 pbc="F F F"
As       0.00000000       0.00000000       0.00000000       0.00000000       0.00000000       3.59358001
As       0.00000000       0.00000000       2.59030303       0.00000000       0.00000000      -3.59358001
2
Properties=species:S:1:pos:R:3:forces:R:3 energy=-5.661530477747512 pbc="F F F"
As       0.00000000       0.00000000       0.00000000       0.00000000       0.00000000       3.66018605
As       0.00000000       0.00000000       2.64909091       0.00000000       0.00000000      -3.66018605
2
Properties=species:S:1:pos:R:3:forces:R:3 energy=-5.44596012349919 pbc="F F F"
As       0.00000000       0.00000000       0.00000000       0.00000000       0.00000000       3.66210675
As       0.00000000       0.00000000       2.70787879       0.00000000       0.00000000      -3.66210675
2
Properties=species:S:1:pos:R:3:forces:R:3 energy=-5.232387369696765 pbc="F F F"
As       0.00000000       0.00000000       0.00000000       0.00000000       0.00000000       3.59102225
As       0.00000000       0.00000000       2.76666667       0.00000000       0.00000000      -3.59102225
2
Properties=species:S:1:pos:R:3:forces:R:3 energy=-5.02527537815956 pbc="F F F"
As       0.00000000       0.00000000       0.00000000       0.00000000       0.00000000       3.44199872
As       0.00000000       0.00000000       2.82545455       0.00000000       0.00000000      -3.44199872
2
Properties=species:S:1:pos:R:3:forces:R:3 energy=-4.82916022481117 pbc="F F F"
As       0.00000000       0.00000000       0.00000000       0.00000000       0.00000000       3.21848345
As       0.00000000       0.00000000       2.88424242       0.00000000       0.00000000      -3.21848345
2
Properties=species:S:1:pos:R:3:forces:R:3 energy=-4.6480165290208495 pbc="F F F"
As       0.00000000       0.00000000       0.00000000       0.00000000       0.00000000       2.93639040
As       0.00000000       0.00000000       2.94303030       0.00000000       0.00000000      -2.93639040
2
Properties=species:S:1:pos:R:3:forces:R:3 energy=-4.484549223645375 pbc="F F F"
As       0.00000000       0.00000000       0.00000000       0.00000000       0.00000000       2.62183094
As       0.00000000       0.00000000       3.00181818       0.00000000       0.00000000      -2.62183094
2
Properties=species:S:1:pos:R:3:forces:R:3 energy=-4.339835318647998 pbc="F F F"
As       0.00000000       0.00000000       0.00000000       0.00000000       0.00000000       2.30273700
As       0.00000000       0.00000000       3.06060606       0.00000000       0.00000000      -2.30273700
2
Properties=species:S:1:pos:R:3:forces:R:3 energy=-4.213466238141798 pbc="F F F"
As       0.00000000       0.00000000       0.00000000       0.00000000       0.00000000       2.00049424
As       0.00000000       0.00000000       3.11939394       0.00000000       0.00000000      -2.00049424
2
Properties=species:S:1:pos:R:3:forces:R:3 energy=-4.104057757256922 pbc="F F F"
As       0.00000000       0.00000000       0.00000000       0.00000000       0.00000000       1.72695720
As       0.00000000       0.00000000       3.17818182       0.00000000       0.00000000      -1.72695720
2
Properties=species:S:1:pos:R:3:forces:R:3 energy=-4.009764989442752 pbc="F F F"
As       0.00000000       0.00000000       0.00000000       0.00000000       0.00000000       1.48665094
As       0.00000000       0.00000000       3.23696970       0.00000000       0.00000000      -1.48665094
2
Properties=species:S:1:pos:R:3:forces:R:3 energy=-3.928602705779674 pbc="F F F"
As       0.00000000       0.00000000       0.00000000       0.00000000       0.00000000       1.28009951
As       0.00000000       0.00000000       3.29575758       0.00000000       0.00000000      -1.28009951
2
Properties=species:S:1:pos:R:3:forces:R:3 energy=-3.8586208081071613 pbc="F F F"
As       0.00000000       0.00000000       0.00000000       0.00000000       0.00000000       1.10593021
As       0.00000000       0.00000000       3.35454545       0.00000000       0.00000000      -1.10593021
2
Properties=species:S:1:pos:R:3:forces:R:3 energy=-3.79798321901393 pbc="F F F"
As       0.00000000       0.00000000       0.00000000       0.00000000       0.00000000       0.96174562
As       0.00000000       0.00000000       3.41333333       0.00000000       0.00000000      -0.96174562
2
Properties=species:S:1:pos:R:3:forces:R:3 energy=-3.7450164647030286 pbc="F F F"
As       0.00000000       0.00000000       0.00000000       0.00000000       0.00000000       0.84438211
As       0.00000000       0.00000000       3.47212121       0.00000000       0.00000000      -0.84438211
2
Properties=species:S:1:pos:R:3:forces:R:3 energy=-3.698253527179514 pbc="F F F"
As       0.00000000       0.00000000       0.00000000       0.00000000       0.00000000       0.75002664
As       0.00000000       0.00000000       3.53090909       0.00000000       0.00000000      -0.75002664
2
Properties=species:S:1:pos:R:3:forces:R:3 energy=-3.656464208781347 pbc="F F F"
As       0.00000000       0.00000000       0.00000000       0.00000000       0.00000000       0.67441946
As       0.00000000       0.00000000       3.58969697       0.00000000       0.00000000      -0.67441946
2
Properties=species:S:1:pos:R:3:forces:R:3 energy=-3.6186758594287305 pbc="F F F"
As       0.00000000       0.00000000       0.00000000       0.00000000       0.00000000       0.61321950
As       0.00000000       0.00000000       3.64848485       0.00000000       0.00000000      -0.61321950
2
Properties=species:S:1:pos:R:3:forces:R:3 energy=-3.584162471062077 pbc="F F F"
As       0.00000000       0.00000000       0.00000000       0.00000000       0.00000000       0.56237423
As       0.00000000       0.00000000       3.70727273       0.00000000       0.00000000      -0.56237423
2
Properties=species:S:1:pos:R:3:forces:R:3 energy=-3.5524192112035564 pbc="F F F"
As       0.00000000       0.00000000       0.00000000       0.00000000       0.00000000       0.51842368
As       0.00000000       0.00000000       3.76606061       0.00000000       0.00000000      -0.51842368
2
Properties=species:S:1:pos:R:3:forces:R:3 energy=-3.523127727054226 pbc="F F F"
As       0.00000000       0.00000000       0.00000000       0.00000000       0.00000000       0.47861007
As       0.00000000       0.00000000       3.82484848       0.00000000       0.00000000      -0.47861007
2
Properties=species:S:1:pos:R:3:forces:R:3 energy=-3.4961073275380303 pbc="F F F"
As       0.00000000       0.00000000       0.00000000       0.00000000       0.00000000       0.44080341
As       0.00000000       0.00000000       3.88363636       0.00000000       0.00000000      -0.44080341
2
Properties=species:S:1:pos:R:3:forces:R:3 energy=-3.4712926574865652 pbc="F F F"
As       0.00000000       0.00000000       0.00000000       0.00000000       0.00000000       0.40336442
As       0.00000000       0.00000000       3.94242424       0.00000000       0.00000000      -0.40336442
2
Properties=species:S:1:pos:R:3:forces:R:3 energy=-3.448700255681559 pbc="F F F"
As       0.00000000       0.00000000       0.00000000       0.00000000       0.00000000       0.36500725
As       0.00000000       0.00000000       4.00121212       0.00000000       0.00000000      -0.36500725
2
Properties=species:S:1:pos:R:3:forces:R:3 energy=-3.4284137032108832 pbc="F F F"
As       0.00000000       0.00000000       0.00000000       0.00000000       0.00000000       0.32478660
As       0.00000000       0.00000000       4.06000000       0.00000000       0.00000000      -0.32478660
2
Properties=species:S:1:pos:R:3:forces:R:3 energy=-3.410559893316332 pbc="F F F"
As       0.00000000       0.00000000       0.00000000       0.00000000       0.00000000       0.28221351
As       0.00000000       0.00000000       4.11878788       0.00000000       0.00000000      -0.28221351
2
Properties=species:S:1:pos:R:3:forces:R:3 energy=-3.3952760662732673 pbc="F F F"
As       0.00000000       0.00000000       0.00000000       0.00000000       0.00000000       0.23742394
As       0.00000000       0.00000000       4.17757576       0.00000000       0.00000000      -0.23742394
2
Properties=species:S:1:pos:R:3:forces:R:3 energy=-3.3826701004418656 pbc="F F F"
As       0.00000000       0.00000000       0.00000000       0.00000000       0.00000000       0.19133392
As       0.00000000       0.00000000       4.23636364       0.00000000       0.00000000      -0.19133392
2
Properties=species:S:1:pos:R:3:forces:R:3 energy=-3.3727727224292576 pbc="F F F"
As       0.00000000       0.00000000       0.00000000       0.00000000       0.00000000       0.14560713
As       0.00000000       0.00000000       4.29515152       0.00000000       0.00000000      -0.14560713
2
Properties=species:S:1:pos:R:3:forces:R:3 energy=-3.3655002425151888 pbc="F F F"
As       0.00000000       0.00000000       0.00000000       0.00000000       0.00000000       0.10243633
As       0.00000000       0.00000000       4.35393939       0.00000000       0.00000000      -0.10243633
2
Properties=species:S:1:pos:R:3:forces:R:3 energy=-3.3606336490927986 pbc="F F F"
As       0.00000000       0.00000000       0.00000000       0.00000000       0.00000000       0.06412265
As       0.00000000       0.00000000       4.41272727       0.00000000       0.00000000      -0.06412265
2
Properties=species:S:1:pos:R:3:forces:R:3 energy=-3.3578272249995984 pbc="F F F"
As       0.00000000       0.00000000       0.00000000       0.00000000       0.00000000       0.03261021
As       0.00000000       0.00000000       4.47151515       0.00000000       0.00000000      -0.03261021
2
Properties=species:S:1:pos:R:3:forces:R:3 energy=-3.356642967739891 pbc="F F F"
As       0.00000000       0.00000000       0.00000000       0.00000000       0.00000000       0.00904105
As       0.00000000       0.00000000       4.53030303       0.00000000       0.00000000      -0.00904105
2
Properties=species:S:1:pos:R:3:forces:R:3 energy=-3.3566068752763702 pbc="F F F"
As       0.00000000       0.00000000       0.00000000       0.00000000       0.00000000      -0.00653558
As       0.00000000       0.00000000       4.58909091       0.00000000       0.00000000       0.00653558
2
Properties=species:S:1:pos:R:3:forces:R:3 energy=-3.3572756826414274 pbc="F F F"
As       0.00000000       0.00000000       0.00000000       0.00000000       0.00000000      -0.01522022
As       0.00000000       0.00000000       4.64787879       0.00000000       0.00000000       0.01522022
2
Properties=species:S:1:pos:R:3:forces:R:3 energy=-3.3583016674411543 pbc="F F F"
As       0.00000000       0.00000000       0.00000000       0.00000000       0.00000000      -0.01908774
As       0.00000000       0.00000000       4.70666667       0.00000000       0.00000000       0.01908774
2
Properties=species:S:1:pos:R:3:forces:R:3 energy=-3.3594768095615444 pbc="F F F"
As       0.00000000       0.00000000       0.00000000       0.00000000       0.00000000      -0.02075052
As       0.00000000       0.00000000       4.76545455       0.00000000       0.00000000       0.02075052
2
Properties=species:S:1:pos:R:3:forces:R:3 energy=-3.360749253137827 pbc="F F F"
As       0.00000000       0.00000000       0.00000000       0.00000000       0.00000000      -0.02278762
As       0.00000000       0.00000000       4.82424242       0.00000000       0.00000000       0.02278762
2
Properties=species:S:1:pos:R:3:forces:R:3 energy=-3.362202370069017 pbc="F F F"
As       0.00000000       0.00000000       0.00000000       0.00000000       0.00000000      -0.02714333
As       0.00000000       0.00000000       4.88303030       0.00000000       0.00000000       0.02714333
2
Properties=species:S:1:pos:R:3:forces:R:3 energy=-3.364004211319369 pbc="F F F"
As       0.00000000       0.00000000       0.00000000       0.00000000       0.00000000      -0.03469822
As       0.00000000       0.00000000       4.94181818       0.00000000       0.00000000       0.03469822
2
Properties=species:S:1:pos:R:3:forces:R:3 energy=-3.366337979768163 pbc="F F F"
As       0.00000000       0.00000000       0.00000000       0.00000000       0.00000000      -0.04507332
As       0.00000000       0.00000000       5.00060606       0.00000000       0.00000000       0.04507332
2
Properties=species:S:1:pos:R:3:forces:R:3 energy=-3.3693295810559714 pbc="F F F"
As       0.00000000       0.00000000       0.00000000       0.00000000       0.00000000      -0.05673719
As       0.00000000       0.00000000       5.05939394       0.00000000       0.00000000       0.05673719
2
Properties=species:S:1:pos:R:3:forces:R:3 energy=-3.372986637529651 pbc="F F F"
As       0.00000000       0.00000000       0.00000000       0.00000000       0.00000000      -0.06725675
As       0.00000000       0.00000000       5.11818182       0.00000000       0.00000000       0.06725675
2
Properties=species:S:1:pos:R:3:forces:R:3 energy=-3.377156301617085 pbc="F F F"
As       0.00000000       0.00000000       0.00000000       0.00000000       0.00000000      -0.07364979
As       0.00000000       0.00000000       5.17696970       0.00000000       0.00000000       0.07364979
2
Properties=species:S:1:pos:R:3:forces:R:3 energy=-3.381506283711165 pbc="F F F"
As       0.00000000       0.00000000       0.00000000       0.00000000       0.00000000      -0.07296248
As       0.00000000       0.00000000       5.23575758       0.00000000       0.00000000       0.07296248
2
Properties=species:S:1:pos:R:3:forces:R:3 energy=-3.385568693469903 pbc="F F F"
As       0.00000000       0.00000000       0.00000000       0.00000000       0.00000000      -0.06396859
As       0.00000000       0.00000000       5.29454545       0.00000000       0.00000000       0.06396859
2
Properties=species:S:1:pos:R:3:forces:R:3 energy=-3.388939207237042 pbc="F F F"
As       0.00000000       0.00000000       0.00000000       0.00000000       0.00000000      -0.05075498
As       0.00000000       0.00000000       5.35333333       0.00000000       0.00000000       0.05075498
2
Properties=species:S:1:pos:R:3:forces:R:3 energy=-3.3916685584765447 pbc="F F F"
As       0.00000000       0.00000000       0.00000000       0.00000000       0.00000000      -0.04415942
As       0.00000000       0.00000000       5.41212121       0.00000000       0.00000000       0.04415942
2
Properties=species:S:1:pos:R:3:forces:R:3 energy=-3.3943727069550245 pbc="F F F"
As       0.00000000       0.00000000       0.00000000       0.00000000       0.00000000      -0.04894973
As       0.00000000       0.00000000       5.47090909       0.00000000       0.00000000       0.04894973
2
Properties=species:S:1:pos:R:3:forces:R:3 energy=-3.397351204058139 pbc="F F F"
As       0.00000000       0.00000000       0.00000000       0.00000000       0.00000000      -0.05031386
As       0.00000000       0.00000000       5.52969697       0.00000000       0.00000000       0.05031386
2
Properties=species:S:1:pos:R:3:forces:R:3 energy=-3.4000369417169556 pbc="F F F"
As       0.00000000       0.00000000       0.00000000       0.00000000       0.00000000      -0.03971072
As       0.00000000       0.00000000       5.58848485       0.00000000       0.00000000       0.03971072
2
Properties=species:S:1:pos:R:3:forces:R:3 energy=-3.402008249571661 pbc="F F F"
As       0.00000000       0.00000000       0.00000000       0.00000000       0.00000000      -0.02843948
As       0.00000000       0.00000000       5.64727273       0.00000000       0.00000000       0.02843948
2
Properties=species:S:1:pos:R:3:forces:R:3 energy=-3.4035658750605857 pbc="F F F"
As       0.00000000       0.00000000       0.00000000       0.00000000       0.00000000      -0.02605362
As       0.00000000       0.00000000       5.70606061       0.00000000       0.00000000       0.02605362
2
Properties=species:S:1:pos:R:3:forces:R:3 energy=-3.4051386356008373 pbc="F F F"
As       0.00000000       0.00000000       0.00000000       0.00000000       0.00000000      -0.02656538
As       0.00000000       0.00000000       5.76484848       0.00000000       0.00000000       0.02656538
2
Properties=species:S:1:pos:R:3:forces:R:3 energy=-3.406510939224188 pbc="F F F"
As       0.00000000       0.00000000       0.00000000       0.00000000       0.00000000      -0.01863573
As       0.00000000       0.00000000       5.82363636       0.00000000       0.00000000       0.01863573
2
Properties=species:S:1:pos:R:3:forces:R:3 energy=-3.407242156126094 pbc="F F F"
As       0.00000000       0.00000000       0.00000000       0.00000000       0.00000000      -0.00655925
As       0.00000000       0.00000000       5.88242424       0.00000000       0.00000000       0.00655925
2
Properties=species:S:1:pos:R:3:forces:R:3 energy=-3.4073592582960934 pbc="F F F"
As       0.00000000       0.00000000       0.00000000       0.00000000       0.00000000       0.00174863
As       0.00000000       0.00000000       5.94121212       0.00000000       0.00000000      -0.00174863
2
Properties=species:S:1:pos:R:3:forces:R:3 energy=-3.407149134364679 pbc="F F F"
As       0.00000000       0.00000000       0.00000000       0.00000000       0.00000000       0.00440468
As       0.00000000       0.00000000       6.00000000       0.00000000       0.00000000      -0.00440468
