2
Properties=species:S:1:pos:R:3:forces:R:3 energy=24332.909774648364 pbc="F F F"
Br       0.00000000       0.00000000       0.00000000       0.00000000       0.00000000 -554724.18750000
Br       0.00000000       0.00000000       0.10000000       0.00000000       0.00000000  554724.18750000
2
Properties=species:S:1:pos:R:3:forces:R:3 energy=7714.053817617115 pbc="F F F"
Br       0.00000000       0.00000000       0.00000000       0.00000000       0.00000000 -126733.91406250
Br       0.00000000       0.00000000       0.15959596       0.00000000       0.00000000  126733.91406250
2
Properties=species:S:1:pos:R:3:forces:R:3 energy=3276.54869066399 pbc="F F F"
Br       0.00000000       0.00000000       0.00000000       0.00000000       0.00000000  -41079.40625000
Br       0.00000000       0.00000000       0.21919192       0.00000000       0.00000000   41079.40625000
2
Properties=species:S:1:pos:R:3:forces:R:3 energy=1700.8985441796149 pbc="F F F"
Br       0.00000000       0.00000000       0.00000000       0.00000000       0.00000000  -16255.37011719
Br       0.00000000       0.00000000       0.27878788       0.00000000       0.00000000   16255.37011719
2
Properties=species:S:1:pos:R:3:forces:R:3 energy=1040.3371428155951 pbc="F F F"
Br       0.00000000       0.00000000       0.00000000       0.00000000       0.00000000   -7284.35156250
Br       0.00000000       0.00000000       0.33838384       0.00000000       0.00000000    7284.35156250
2
Properties=species:S:1:pos:R:3:forces:R:3 energy=732.3290251493174 pbc="F F F"
Br       0.00000000       0.00000000       0.00000000       0.00000000       0.00000000   -3558.40161133
Br       0.00000000       0.00000000       0.39797980       0.00000000       0.00000000    3558.40161133
2
Properties=species:S:1:pos:R:3:forces:R:3 energy=576.8566740941056 pbc="F F F"
Br       0.00000000       0.00000000       0.00000000       0.00000000       0.00000000   -1870.49108887
Br       0.00000000       0.00000000       0.45757576       0.00000000       0.00000000    1870.49108887
2
Properties=species:S:1:pos:R:3:forces:R:3 energy=492.2973174458342 pbc="F F F"
Br       0.00000000       0.00000000       0.00000000       0.00000000       0.00000000   -1062.27478027
Br       0.00000000       0.00000000       0.51717172       0.00000000       0.00000000    1062.27478027
2
Properties=species:S:1:pos:R:3:forces:R:3 energy=442.48408509048346 pbc="F F F"
Br       0.00000000       0.00000000       0.00000000       0.00000000       0.00000000    -652.28759766
Br       0.00000000       0.00000000       0.57676768       0.00000000       0.00000000     652.28759766
2
Properties=species:S:1:pos:R:3:forces:R:3 energy=411.05281079046256 pbc="F F F"
Br       0.00000000       0.00000000       0.00000000       0.00000000       0.00000000    -423.88323975
Br       0.00000000       0.00000000       0.63636364       0.00000000       0.00000000     423.88323975
2
Properties=species:S:1:pos:R:3:forces:R:3 energy=389.33717377350064 pbc="F F F"
Br       0.00000000       0.00000000       0.00000000       0.00000000       0.00000000    -338.45867920
Br       0.00000000       0.00000000       0.69595960       0.00000000       0.00000000     338.45867920
2
Properties=species:S:1:pos:R:3:forces:R:3 energy=360.50807249293683 pbc="F F F"
Br       0.00000000       0.00000000       0.00000000       0.00000000       0.00000000    -569.37390137
Br       0.00000000       0.00000000       0.75555556       0.00000000       0.00000000     569.37390137
2
Properties=species:S:1:pos:R:3:forces:R:3 energy=323.3877421100459 pbc="F F F"
Br       0.00000000       0.00000000       0.00000000       0.00000000       0.00000000    -662.58227539
Br       0.00000000       0.00000000       0.81515152       0.00000000       0.00000000     662.58227539
2
Properties=species:S:1:pos:R:3:forces:R:3 energy=282.4095627929628 pbc="F F F"
Br       0.00000000       0.00000000       0.00000000       0.00000000       0.00000000    -709.32214355
Br       0.00000000       0.00000000       0.87474747       0.00000000       0.00000000     709.32214355
2
Properties=species:S:1:pos:R:3:forces:R:3 energy=239.10034430693017 pbc="F F F"
Br       0.00000000       0.00000000       0.00000000       0.00000000       0.00000000    -741.64306641
Br       0.00000000       0.00000000       0.93434343       0.00000000       0.00000000     741.64306641
2
Properties=species:S:1:pos:R:3:forces:R:3 energy=194.92164983832728 pbc="F F F"
Br       0.00000000       0.00000000       0.00000000       0.00000000       0.00000000    -726.10620117
Br       0.00000000       0.00000000       0.99393939       0.00000000       0.00000000     726.10620117
2
Properties=species:S:1:pos:R:3:forces:R:3 energy=154.10661852027476 pbc="F F F"
Br       0.00000000       0.00000000       0.00000000       0.00000000       0.00000000    -641.87133789
Br       0.00000000       0.00000000       1.05353535       0.00000000       0.00000000     641.87133789
2
Properties=species:S:1:pos:R:3:forces:R:3 energy=117.92700187695849 pbc="F F F"
Br       0.00000000       0.00000000       0.00000000       0.00000000       0.00000000    -572.19714355
Br       0.00000000       0.00000000       1.11313131       0.00000000       0.00000000     572.19714355
2
Properties=species:S:1:pos:R:3:forces:R:3 energy=86.52666754677401 pbc="F F F"
Br       0.00000000       0.00000000       0.00000000       0.00000000       0.00000000    -475.80877686
Br       0.00000000       0.00000000       1.17272727       0.00000000       0.00000000     475.80877686
2
Properties=species:S:1:pos:R:3:forces:R:3 energy=61.58263290636214 pbc="F F F"
Br       0.00000000       0.00000000       0.00000000       0.00000000       0.00000000    -360.65594482
Br       0.00000000       0.00000000       1.23232323       0.00000000       0.00000000     360.65594482
2
Properties=species:S:1:pos:R:3:forces:R:3 energy=43.39155572071939 pbc="F F F"
Br       0.00000000       0.00000000       0.00000000       0.00000000       0.00000000    -253.06185913
Br       0.00000000       0.00000000       1.29191919       0.00000000       0.00000000     253.06185913
2
Properties=species:S:1:pos:R:3:forces:R:3 energy=30.854551641745037 pbc="F F F"
Br       0.00000000       0.00000000       0.00000000       0.00000000       0.00000000    -172.90824890
Br       0.00000000       0.00000000       1.35151515       0.00000000       0.00000000     172.90824890
2
Properties=species:S:1:pos:R:3:forces:R:3 energy=22.210424805397192 pbc="F F F"
Br       0.00000000       0.00000000       0.00000000       0.00000000       0.00000000    -121.39656067
Br       0.00000000       0.00000000       1.41111111       0.00000000       0.00000000     121.39656067
2
Properties=species:S:1:pos:R:3:forces:R:3 energy=15.976301618167737 pbc="F F F"
Br       0.00000000       0.00000000       0.00000000       0.00000000       0.00000000     -90.36262512
Br       0.00000000       0.00000000       1.47070707       0.00000000       0.00000000      90.36262512
2
Properties=species:S:1:pos:R:3:forces:R:3 energy=11.232130856977893 pbc="F F F"
Br       0.00000000       0.00000000       0.00000000       0.00000000       0.00000000     -69.96519470
Br       0.00000000       0.00000000       1.53030303       0.00000000       0.00000000      69.96519470
2
Properties=species:S:1:pos:R:3:forces:R:3 energy=7.545019670101231 pbc="F F F"
Br       0.00000000       0.00000000       0.00000000       0.00000000       0.00000000     -54.33414459
Br       0.00000000       0.00000000       1.58989899       0.00000000       0.00000000      54.33414459
2
Properties=species:S:1:pos:R:3:forces:R:3 energy=4.701080844381093 pbc="F F F"
Br       0.00000000       0.00000000       0.00000000       0.00000000       0.00000000     -41.50204086
Br       0.00000000       0.00000000       1.64949495       0.00000000       0.00000000      41.50204086
2
Properties=species:S:1:pos:R:3:forces:R:3 energy=2.5537385042722445 pbc="F F F"
Br       0.00000000       0.00000000       0.00000000       0.00000000       0.00000000     -30.93270874
Br       0.00000000       0.00000000       1.70909091       0.00000000       0.00000000      30.93270874
2
Properties=species:S:1:pos:R:3:forces:R:3 energy=0.9690478119155795 pbc="F F F"
Br       0.00000000       0.00000000       0.00000000       0.00000000       0.00000000     -22.62796402
Br       0.00000000       0.00000000       1.76868687       0.00000000       0.00000000      22.62796402
2
Properties=species:S:1:pos:R:3:forces:R:3 energy=-0.1865399095684302 pbc="F F F"
Br       0.00000000       0.00000000       0.00000000       0.00000000       0.00000000     -16.48622322
Br       0.00000000       0.00000000       1.82828283       0.00000000       0.00000000      16.48622322
2
Properties=species:S:1:pos:R:3:forces:R:3 energy=-1.0307453789080792 pbc="F F F"
Br       0.00000000       0.00000000       0.00000000       0.00000000       0.00000000     -12.09153461
Br       0.00000000       0.00000000       1.88787879       0.00000000       0.00000000      12.09153461
2
Properties=species:S:1:pos:R:3:forces:R:3 energy=-1.6520016684641596 pbc="F F F"
Br       0.00000000       0.00000000       0.00000000       0.00000000       0.00000000      -8.92180443
Br       0.00000000       0.00000000       1.94747475       0.00000000       0.00000000       8.92180443
2
Properties=species:S:1:pos:R:3:forces:R:3 energy=-2.1100560792616143 pbc="F F F"
Br       0.00000000       0.00000000       0.00000000       0.00000000       0.00000000      -6.55769444
Br       0.00000000       0.00000000       2.00707071       0.00000000       0.00000000       6.55769444
2
Properties=species:S:1:pos:R:3:forces:R:3 energy=-2.44411854108927 pbc="F F F"
Br       0.00000000       0.00000000       0.00000000       0.00000000       0.00000000      -4.72481823
Br       0.00000000       0.00000000       2.06666667       0.00000000       0.00000000       4.72481823
2
Properties=species:S:1:pos:R:3:forces:R:3 energy=-2.6801979563353036 pbc="F F F"
Br       0.00000000       0.00000000       0.00000000       0.00000000       0.00000000      -3.24522090
Br       0.00000000       0.00000000       2.12626263       0.00000000       0.00000000       3.24522090
2
Properties=species:S:1:pos:R:3:forces:R:3 energy=-2.835480910663799 pbc="F F F"
Br       0.00000000       0.00000000       0.00000000       0.00000000       0.00000000      -1.99664903
Br       0.00000000       0.00000000       2.18585859       0.00000000       0.00000000       1.99664903
2
Properties=species:S:1:pos:R:3:forces:R:3 energy=-2.9212115341995393 pbc="F F F"
Br       0.00000000       0.00000000       0.00000000       0.00000000       0.00000000      -0.90207529
Br       0.00000000       0.00000000       2.24545455       0.00000000       0.00000000       0.90207529
2
Properties=species:S:1:pos:R:3:forces:R:3 energy=-2.945412092766309 pbc="F F F"
Br       0.00000000       0.00000000       0.00000000       0.00000000       0.00000000       0.06985046
Br       0.00000000       0.00000000       2.30505051       0.00000000       0.00000000      -0.06985046
2
Properties=species:S:1:pos:R:3:forces:R:3 energy=-2.915430967241755 pbc="F F F"
Br       0.00000000       0.00000000       0.00000000       0.00000000       0.00000000       0.91315013
Br       0.00000000       0.00000000       2.36464646       0.00000000       0.00000000      -0.91315013
2
Properties=species:S:1:pos:R:3:forces:R:3 energy=-2.839555780992298 pbc="F F F"
Br       0.00000000       0.00000000       0.00000000       0.00000000       0.00000000       1.60664356
Br       0.00000000       0.00000000       2.42424242       0.00000000       0.00000000      -1.60664356
2
Properties=species:S:1:pos:R:3:forces:R:3 energy=-2.727179317029434 pbc="F F F"
Br       0.00000000       0.00000000       0.00000000       0.00000000       0.00000000       2.13727880
Br       0.00000000       0.00000000       2.48383838       0.00000000       0.00000000      -2.13727880
2
Properties=species:S:1:pos:R:3:forces:R:3 energy=-2.587961250956898 pbc="F F F"
Br       0.00000000       0.00000000       0.00000000       0.00000000       0.00000000       2.50977421
Br       0.00000000       0.00000000       2.54343434       0.00000000       0.00000000      -2.50977421
2
Properties=species:S:1:pos:R:3:forces:R:3 energy=-2.4307676049422042 pbc="F F F"
Br       0.00000000       0.00000000       0.00000000       0.00000000       0.00000000       2.74514675
Br       0.00000000       0.00000000       2.60303030       0.00000000       0.00000000      -2.74514675
2
Properties=species:S:1:pos:R:3:forces:R:3 energy=-2.2628371096512176 pbc="F F F"
Br       0.00000000       0.00000000       0.00000000       0.00000000       0.00000000       2.87605453
Br       0.00000000       0.00000000       2.66262626       0.00000000       0.00000000      -2.87605453
2
Properties=species:S:1:pos:R:3:forces:R:3 energy=-2.089375746943863 pbc="F F F"
Br       0.00000000       0.00000000       0.00000000       0.00000000       0.00000000       2.93532276
Br       0.00000000       0.00000000       2.72222222       0.00000000       0.00000000      -2.93532276
2
Properties=species:S:1:pos:R:3:forces:R:3 energy=-1.9140696881040968 pbc="F F F"
Br       0.00000000       0.00000000       0.00000000       0.00000000       0.00000000       2.93829131
Br       0.00000000       0.00000000       2.78181818       0.00000000       0.00000000      -2.93829131
2
Properties=species:S:1:pos:R:3:forces:R:3 energy=-1.7404551389534355 pbc="F F F"
Br       0.00000000       0.00000000       0.00000000       0.00000000       0.00000000       2.87539744
Br       0.00000000       0.00000000       2.84141414       0.00000000       0.00000000      -2.87539744
2
Properties=species:S:1:pos:R:3:forces:R:3 energy=-1.573056230533585 pbc="F F F"
Br       0.00000000       0.00000000       0.00000000       0.00000000       0.00000000       2.72701406
Br       0.00000000       0.00000000       2.90101010       0.00000000       0.00000000      -2.72701406
2
Properties=species:S:1:pos:R:3:forces:R:3 energy=-1.4172196504955898 pbc="F F F"
Br       0.00000000       0.00000000       0.00000000       0.00000000       0.00000000       2.48900008
Br       0.00000000       0.00000000       2.96060606       0.00000000       0.00000000      -2.48900008
2
Properties=species:S:1:pos:R:3:forces:R:3 energy=-1.277717404729069 pbc="F F F"
Br       0.00000000       0.00000000       0.00000000       0.00000000       0.00000000       2.18462420
Br       0.00000000       0.00000000       3.02020202       0.00000000       0.00000000      -2.18462420
2
Properties=species:S:1:pos:R:3:forces:R:3 energy=-1.1573398158125923 pbc="F F F"
Br       0.00000000       0.00000000       0.00000000       0.00000000       0.00000000       1.85443413
Br       0.00000000       0.00000000       3.07979798       0.00000000       0.00000000      -1.85443413
2
Properties=species:S:1:pos:R:3:forces:R:3 energy=-1.0564174440201937 pbc="F F F"
Br       0.00000000       0.00000000       0.00000000       0.00000000       0.00000000       1.53717530
Br       0.00000000       0.00000000       3.13939394       0.00000000       0.00000000      -1.53717530
2
Properties=species:S:1:pos:R:3:forces:R:3 energy=-0.9733658281918175 pbc="F F F"
Br       0.00000000       0.00000000       0.00000000       0.00000000       0.00000000       1.25737453
Br       0.00000000       0.00000000       3.19898990       0.00000000       0.00000000      -1.25737453
2
Properties=species:S:1:pos:R:3:forces:R:3 energy=-0.9056220980423697 pbc="F F F"
Br       0.00000000       0.00000000       0.00000000       0.00000000       0.00000000       1.02383733
Br       0.00000000       0.00000000       3.25858586       0.00000000       0.00000000      -1.02383733
2
Properties=species:S:1:pos:R:3:forces:R:3 energy=-0.8504500908174311 pbc="F F F"
Br       0.00000000       0.00000000       0.00000000       0.00000000       0.00000000       0.83456647
Br       0.00000000       0.00000000       3.31818182       0.00000000       0.00000000      -0.83456647
2
Properties=species:S:1:pos:R:3:forces:R:3 energy=-0.8054074738307057 pbc="F F F"
Br       0.00000000       0.00000000       0.00000000       0.00000000       0.00000000       0.68259054
Br       0.00000000       0.00000000       3.37777778       0.00000000       0.00000000      -0.68259054
2
Properties=species:S:1:pos:R:3:forces:R:3 energy=-0.7685064832718806 pbc="F F F"
Br       0.00000000       0.00000000       0.00000000       0.00000000       0.00000000       0.56008786
Br       0.00000000       0.00000000       3.43737374       0.00000000       0.00000000      -0.56008786
2
Properties=species:S:1:pos:R:3:forces:R:3 energy=-0.7381958699988685 pbc="F F F"
Br       0.00000000       0.00000000       0.00000000       0.00000000       0.00000000       0.46047336
Br       0.00000000       0.00000000       3.49696970       0.00000000       0.00000000      -0.46047336
2
Properties=species:S:1:pos:R:3:forces:R:3 energy=-0.7132617075694013 pbc="F F F"
Br       0.00000000       0.00000000       0.00000000       0.00000000       0.00000000       0.37902439
Br       0.00000000       0.00000000       3.55656566       0.00000000       0.00000000      -0.37902439
2
Properties=species:S:1:pos:R:3:forces:R:3 energy=-0.6927199654961944 pbc="F F F"
Br       0.00000000       0.00000000       0.00000000       0.00000000       0.00000000       0.31267965
Br       0.00000000       0.00000000       3.61616162       0.00000000       0.00000000      -0.31267965
2
Properties=species:S:1:pos:R:3:forces:R:3 energy=-0.6757326922770874 pbc="F F F"
Br       0.00000000       0.00000000       0.00000000       0.00000000       0.00000000       0.25946063
Br       0.00000000       0.00000000       3.67575758       0.00000000       0.00000000      -0.25946063
2
Properties=species:S:1:pos:R:3:forces:R:3 energy=-0.6615632669779764 pbc="F F F"
Br       0.00000000       0.00000000       0.00000000       0.00000000       0.00000000       0.21786505
Br       0.00000000       0.00000000       3.73535354       0.00000000       0.00000000      -0.21786505
2
Properties=species:S:1:pos:R:3:forces:R:3 energy=-0.6495632317740105 pbc="F F F"
Br       0.00000000       0.00000000       0.00000000       0.00000000       0.00000000       0.18641065
Br       0.00000000       0.00000000       3.79494949       0.00000000       0.00000000      -0.18641065
2
Properties=species:S:1:pos:R:3:forces:R:3 energy=-0.639176386663084 pbc="F F F"
Br       0.00000000       0.00000000       0.00000000       0.00000000       0.00000000       0.16341336
Br       0.00000000       0.00000000       3.85454545       0.00000000       0.00000000      -0.16341336
2
Properties=species:S:1:pos:R:3:forces:R:3 energy=-0.6299548983910187 pbc="F F F"
Br       0.00000000       0.00000000       0.00000000       0.00000000       0.00000000       0.14699934
Br       0.00000000       0.00000000       3.91414141       0.00000000       0.00000000      -0.14699934
2
Properties=species:S:1:pos:R:3:forces:R:3 energy=-0.6215625591161184 pbc="F F F"
Br       0.00000000       0.00000000       0.00000000       0.00000000       0.00000000       0.13526227
Br       0.00000000       0.00000000       3.97373737       0.00000000       0.00000000      -0.13526227
2
Properties=species:S:1:pos:R:3:forces:R:3 energy=-0.613774000877368 pbc="F F F"
Br       0.00000000       0.00000000       0.00000000       0.00000000       0.00000000       0.12649396
Br       0.00000000       0.00000000       4.03333333       0.00000000       0.00000000      -0.12649396
2
Properties=species:S:1:pos:R:3:forces:R:3 energy=-0.6064533591314738 pbc="F F F"
Br       0.00000000       0.00000000       0.00000000       0.00000000       0.00000000       0.11937860
Br       0.00000000       0.00000000       4.09292929       0.00000000       0.00000000      -0.11937860
2
Properties=species:S:1:pos:R:3:forces:R:3 energy=-0.5995280613803212 pbc="F F F"
Br       0.00000000       0.00000000       0.00000000       0.00000000       0.00000000       0.11312750
Br       0.00000000       0.00000000       4.15252525       0.00000000       0.00000000      -0.11312750
2
Properties=species:S:1:pos:R:3:forces:R:3 energy=-0.5929575541553597 pbc="F F F"
Br       0.00000000       0.00000000       0.00000000       0.00000000       0.00000000       0.10748392
Br       0.00000000       0.00000000       4.21212121       0.00000000       0.00000000      -0.10748392
2
Properties=species:S:1:pos:R:3:forces:R:3 energy=-0.5867014935601841 pbc="F F F"
Br       0.00000000       0.00000000       0.00000000       0.00000000       0.00000000       0.10262606
Br       0.00000000       0.00000000       4.27171717       0.00000000       0.00000000      -0.10262606
2
Properties=species:S:1:pos:R:3:forces:R:3 energy=-0.5807015595182344 pbc="F F F"
Br       0.00000000       0.00000000       0.00000000       0.00000000       0.00000000       0.09897517
Br       0.00000000       0.00000000       4.33131313       0.00000000       0.00000000      -0.09897517
2
Properties=species:S:1:pos:R:3:forces:R:3 energy=-0.5748717079534996 pbc="F F F"
Br       0.00000000       0.00000000       0.00000000       0.00000000       0.00000000       0.09695952
Br       0.00000000       0.00000000       4.39090909       0.00000000       0.00000000      -0.09695952
2
Properties=species:S:1:pos:R:3:forces:R:3 energy=-0.5691077623865932 pbc="F F F"
Br       0.00000000       0.00000000       0.00000000       0.00000000       0.00000000       0.09678112
Br       0.00000000       0.00000000       4.45050505       0.00000000       0.00000000      -0.09678112
2
Properties=species:S:1:pos:R:3:forces:R:3 energy=-0.5633035707532651 pbc="F F F"
Br       0.00000000       0.00000000       0.00000000       0.00000000       0.00000000       0.09823873
Br       0.00000000       0.00000000       4.51010101       0.00000000       0.00000000      -0.09823873
2
Properties=species:S:1:pos:R:3:forces:R:3 energy=-0.5573791881059588 pbc="F F F"
Br       0.00000000       0.00000000       0.00000000       0.00000000       0.00000000       0.10064897
Br       0.00000000       0.00000000       4.56969697       0.00000000       0.00000000      -0.10064897
2
Properties=species:S:1:pos:R:3:forces:R:3 energy=-0.5513099007000144 pbc="F F F"
Br       0.00000000       0.00000000       0.00000000       0.00000000       0.00000000       0.10289964
Br       0.00000000       0.00000000       4.62929293       0.00000000       0.00000000      -0.10289964
2
Properties=species:S:1:pos:R:3:forces:R:3 energy=-0.545144231348125 pbc="F F F"
Br       0.00000000       0.00000000       0.00000000       0.00000000       0.00000000       0.10366821
Br       0.00000000       0.00000000       4.68888889       0.00000000       0.00000000      -0.10366821
2
Properties=species:S:1:pos:R:3:forces:R:3 energy=-0.5390069782572847 pbc="F F F"
Br       0.00000000       0.00000000       0.00000000       0.00000000       0.00000000       0.10176256
Br       0.00000000       0.00000000       4.74848485       0.00000000       0.00000000      -0.10176256
2
Properties=species:S:1:pos:R:3:forces:R:3 energy=-0.533081536999912 pbc="F F F"
Br       0.00000000       0.00000000       0.00000000       0.00000000       0.00000000       0.09653374
Br       0.00000000       0.00000000       4.80808081       0.00000000       0.00000000      -0.09653374
2
Properties=species:S:1:pos:R:3:forces:R:3 energy=-0.527562942933165 pbc="F F F"
Br       0.00000000       0.00000000       0.00000000       0.00000000       0.00000000       0.08821133
Br       0.00000000       0.00000000       4.86767677       0.00000000       0.00000000      -0.08821133
2
Properties=species:S:1:pos:R:3:forces:R:3 energy=-0.5226043317647533 pbc="F F F"
Br       0.00000000       0.00000000       0.00000000       0.00000000       0.00000000       0.07804147
Br       0.00000000       0.00000000       4.92727273       0.00000000       0.00000000      -0.07804147
2
Properties=species:S:1:pos:R:3:forces:R:3 energy=-0.5182569947033169 pbc="F F F"
Br       0.00000000       0.00000000       0.00000000       0.00000000       0.00000000       0.06808881
Br       0.00000000       0.00000000       4.98686869       0.00000000       0.00000000      -0.06808881
2
Properties=species:S:1:pos:R:3:forces:R:3 energy=-0.5144382648101556 pbc="F F F"
Br       0.00000000       0.00000000       0.00000000       0.00000000       0.00000000       0.06068699
Br       0.00000000       0.00000000       5.04646465       0.00000000       0.00000000      -0.06068699
2
Properties=species:S:1:pos:R:3:forces:R:3 energy=-0.5109362853708124 pbc="F F F"
Br       0.00000000       0.00000000       0.00000000       0.00000000       0.00000000       0.05765286
Br       0.00000000       0.00000000       5.10606061       0.00000000       0.00000000      -0.05765286
2
Properties=species:S:1:pos:R:3:forces:R:3 energy=-0.5074679632208138 pbc="F F F"
Br       0.00000000       0.00000000       0.00000000       0.00000000       0.00000000       0.05948265
Br       0.00000000       0.00000000       5.16565657       0.00000000       0.00000000      -0.05948265
2
Properties=species:S:1:pos:R:3:forces:R:3 energy=-0.5037742165720444 pbc="F F F"
Br       0.00000000       0.00000000       0.00000000       0.00000000       0.00000000       0.06487590
Br       0.00000000       0.00000000       5.22525253       0.00000000       0.00000000      -0.06487590
2
Properties=species:S:1:pos:R:3:forces:R:3 energy=-0.4997211462696848 pbc="F F F"
Br       0.00000000       0.00000000       0.00000000       0.00000000       0.00000000       0.07099085
Br       0.00000000       0.00000000       5.28484848       0.00000000       0.00000000      -0.07099085
2
Properties=species:S:1:pos:R:3:forces:R:3 energy=-0.4953575104048968 pbc="F F F"
Br       0.00000000       0.00000000       0.00000000       0.00000000       0.00000000       0.07493609
Br       0.00000000       0.00000000       5.34444444       0.00000000       0.00000000      -0.07493609
2
Properties=species:S:1:pos:R:3:forces:R:3 energy=-0.49083854047131126 pbc="F F F"
Br       0.00000000       0.00000000       0.00000000       0.00000000       0.00000000       0.07652861
Br       0.00000000       0.00000000       5.40404040       0.00000000       0.00000000      -0.07652861
2
Properties=species:S:1:pos:R:3:forces:R:3 energy=-0.4862219741666172 pbc="F F F"
Br       0.00000000       0.00000000       0.00000000       0.00000000       0.00000000       0.07864196
Br       0.00000000       0.00000000       5.46363636       0.00000000       0.00000000      -0.07864196
2
Properties=species:S:1:pos:R:3:forces:R:3 energy=-0.4814517876802936 pbc="F F F"
Br       0.00000000       0.00000000       0.00000000       0.00000000       0.00000000       0.08138100
Br       0.00000000       0.00000000       5.52323232       0.00000000       0.00000000      -0.08138100
2
Properties=species:S:1:pos:R:3:forces:R:3 energy=-0.476566083127352 pbc="F F F"
Br       0.00000000       0.00000000       0.00000000       0.00000000       0.00000000       0.08209533
Br       0.00000000       0.00000000       5.58282828       0.00000000       0.00000000      -0.08209533
2
Properties=species:S:1:pos:R:3:forces:R:3 energy=-0.47172509322791434 pbc="F F F"
Br       0.00000000       0.00000000       0.00000000       0.00000000       0.00000000       0.07988109
Br       0.00000000       0.00000000       5.64242424       0.00000000       0.00000000      -0.07988109
2
Properties=species:S:1:pos:R:3:forces:R:3 energy=-0.4671057918757276 pbc="F F F"
Br       0.00000000       0.00000000       0.00000000       0.00000000       0.00000000       0.07442278
Br       0.00000000       0.00000000       5.70202020       0.00000000       0.00000000      -0.07442278
2
Properties=species:S:1:pos:R:3:forces:R:3 energy=-0.4629605439206889 pbc="F F F"
Br       0.00000000       0.00000000       0.00000000       0.00000000       0.00000000       0.06363104
Br       0.00000000       0.00000000       5.76161616       0.00000000       0.00000000      -0.06363104
2
Properties=species:S:1:pos:R:3:forces:R:3 energy=-0.45968945610011486 pbc="F F F"
Br       0.00000000       0.00000000       0.00000000       0.00000000       0.00000000       0.04488430
Br       0.00000000       0.00000000       5.82121212       0.00000000       0.00000000      -0.04488430
2
Properties=species:S:1:pos:R:3:forces:R:3 energy=-0.4576644699667859 pbc="F F F"
Br       0.00000000       0.00000000       0.00000000       0.00000000       0.00000000       0.02370350
Br       0.00000000       0.00000000       5.88080808       0.00000000       0.00000000      -0.02370350
2
Properties=species:S:1:pos:R:3:forces:R:3 energy=-0.4567414279713935 pbc="F F F"
Br       0.00000000       0.00000000       0.00000000       0.00000000       0.00000000       0.00838095
Br       0.00000000       0.00000000       5.94040404       0.00000000       0.00000000      -0.00838095
2
Properties=species:S:1:pos:R:3:forces:R:3 energy=-0.4564662181063845 pbc="F F F"
Br       0.00000000       0.00000000       0.00000000       0.00000000       0.00000000       0.00273432
Br       0.00000000       0.00000000       6.00000000       0.00000000       0.00000000      -0.00273432
