2
Properties=species:S:1:pos:R:3:forces:R:3 energy=3725.5686309262132 pbc="F F F"
Fe       0.00000000       0.00000000       0.00000000       0.00000000       0.00000000  -52632.45312500
Fe       0.00000000       0.00000000       0.18000000       0.00000000       0.00000000   52632.45312500
2
Properties=species:S:1:pos:R:3:forces:R:3 energy=1807.5858428402757 pbc="F F F"
Fe       0.00000000       0.00000000       0.00000000       0.00000000       0.00000000  -19234.00195312
Fe       0.00000000       0.00000000       0.23878788       0.00000000       0.00000000   19234.00195312
2
Properties=species:S:1:pos:R:3:forces:R:3 energy=1051.3752715543812 pbc="F F F"
Fe       0.00000000       0.00000000       0.00000000       0.00000000       0.00000000   -8294.43750000
Fe       0.00000000       0.00000000       0.29757576       0.00000000       0.00000000    8294.43750000
2
Properties=species:S:1:pos:R:3:forces:R:3 energy=707.4894683317249 pbc="F F F"
Fe       0.00000000       0.00000000       0.00000000       0.00000000       0.00000000   -4017.45507812
Fe       0.00000000       0.00000000       0.35636364       0.00000000       0.00000000    4017.45507812
2
Properties=species:S:1:pos:R:3:forces:R:3 energy=533.2412383575918 pbc="F F F"
Fe       0.00000000       0.00000000       0.00000000       0.00000000       0.00000000   -2153.81665039
Fe       0.00000000       0.00000000       0.41515152       0.00000000       0.00000000    2153.81665039
2
Properties=species:S:1:pos:R:3:forces:R:3 energy=434.8648955968256 pbc="F F F"
Fe       0.00000000       0.00000000       0.00000000       0.00000000       0.00000000   -1306.39331055
Fe       0.00000000       0.00000000       0.47393939       0.00000000       0.00000000    1306.39331055
2
Properties=species:S:1:pos:R:3:forces:R:3 energy=369.8036468365356 pbc="F F F"
Fe       0.00000000       0.00000000       0.00000000       0.00000000       0.00000000    -961.47711182
Fe       0.00000000       0.00000000       0.53272727       0.00000000       0.00000000     961.47711182
2
Properties=species:S:1:pos:R:3:forces:R:3 energy=318.27679139946383 pbc="F F F"
Fe       0.00000000       0.00000000       0.00000000       0.00000000       0.00000000    -810.00207520
Fe       0.00000000       0.00000000       0.59151515       0.00000000       0.00000000     810.00207520
2
Properties=species:S:1:pos:R:3:forces:R:3 energy=272.83227241668374 pbc="F F F"
Fe       0.00000000       0.00000000       0.00000000       0.00000000       0.00000000    -747.47235107
Fe       0.00000000       0.00000000       0.65030303       0.00000000       0.00000000     747.47235107
2
Properties=species:S:1:pos:R:3:forces:R:3 energy=228.16895768921464 pbc="F F F"
Fe       0.00000000       0.00000000       0.00000000       0.00000000       0.00000000    -803.13989258
Fe       0.00000000       0.00000000       0.70909091       0.00000000       0.00000000     803.13989258
2
Properties=species:S:1:pos:R:3:forces:R:3 energy=180.91405975730973 pbc="F F F"
Fe       0.00000000       0.00000000       0.00000000       0.00000000       0.00000000    -792.35144043
Fe       0.00000000       0.00000000       0.76787879       0.00000000       0.00000000     792.35144043
2
Properties=species:S:1:pos:R:3:forces:R:3 energy=134.28936513583162 pbc="F F F"
Fe       0.00000000       0.00000000       0.00000000       0.00000000       0.00000000    -794.82080078
Fe       0.00000000       0.00000000       0.82666667       0.00000000       0.00000000     794.82080078
2
Properties=species:S:1:pos:R:3:forces:R:3 energy=90.55888904787672 pbc="F F F"
Fe       0.00000000       0.00000000       0.00000000       0.00000000       0.00000000    -660.37390137
Fe       0.00000000       0.00000000       0.88545455       0.00000000       0.00000000     660.37390137
2
Properties=species:S:1:pos:R:3:forces:R:3 energy=57.94014937790649 pbc="F F F"
Fe       0.00000000       0.00000000       0.00000000       0.00000000       0.00000000    -455.38442993
Fe       0.00000000       0.00000000       0.94424242       0.00000000       0.00000000     455.38442993
2
Properties=species:S:1:pos:R:3:forces:R:3 energy=36.173350015021015 pbc="F F F"
Fe       0.00000000       0.00000000       0.00000000       0.00000000       0.00000000    -289.17074585
Fe       0.00000000       0.00000000       1.00303030       0.00000000       0.00000000     289.17074585
2
Properties=species:S:1:pos:R:3:forces:R:3 energy=23.171821081694816 pbc="F F F"
Fe       0.00000000       0.00000000       0.00000000       0.00000000       0.00000000    -164.43692017
Fe       0.00000000       0.00000000       1.06181818       0.00000000       0.00000000     164.43692017
2
Properties=species:S:1:pos:R:3:forces:R:3 energy=15.354910398010208 pbc="F F F"
Fe       0.00000000       0.00000000       0.00000000       0.00000000       0.00000000    -111.68595123
Fe       0.00000000       0.00000000       1.12060606       0.00000000       0.00000000     111.68595123
2
Properties=species:S:1:pos:R:3:forces:R:3 energy=9.466009054807474 pbc="F F F"
Fe       0.00000000       0.00000000       0.00000000       0.00000000       0.00000000     -89.73083496
Fe       0.00000000       0.00000000       1.17939394       0.00000000       0.00000000      89.73083496
2
Properties=species:S:1:pos:R:3:forces:R:3 energy=4.798444945997937 pbc="F F F"
Fe       0.00000000       0.00000000       0.00000000       0.00000000       0.00000000     -69.06899261
Fe       0.00000000       0.00000000       1.23818182       0.00000000       0.00000000      69.06899261
2
Properties=species:S:1:pos:R:3:forces:R:3 energy=1.311013221425346 pbc="F F F"
Fe       0.00000000       0.00000000       0.00000000       0.00000000       0.00000000     -50.17665482
Fe       0.00000000       0.00000000       1.29696970       0.00000000       0.00000000      50.17665482
2
Properties=species:S:1:pos:R:3:forces:R:3 energy=-1.1997610033428234 pbc="F F F"
Fe       0.00000000       0.00000000       0.00000000       0.00000000       0.00000000     -36.18606949
Fe       0.00000000       0.00000000       1.35575758       0.00000000       0.00000000      36.18606949
2
Properties=species:S:1:pos:R:3:forces:R:3 energy=-3.0449275619703444 pbc="F F F"
Fe       0.00000000       0.00000000       0.00000000       0.00000000       0.00000000     -27.29016495
Fe       0.00000000       0.00000000       1.41454545       0.00000000       0.00000000      27.29016495
2
Properties=species:S:1:pos:R:3:forces:R:3 energy=-4.469233473770456 pbc="F F F"
Fe       0.00000000       0.00000000       0.00000000       0.00000000       0.00000000     -21.52761841
Fe       0.00000000       0.00000000       1.47333333       0.00000000       0.00000000      21.52761841
2
Properties=species:S:1:pos:R:3:forces:R:3 energy=-5.607933471954586 pbc="F F F"
Fe       0.00000000       0.00000000       0.00000000       0.00000000       0.00000000     -17.42219162
Fe       0.00000000       0.00000000       1.53212121       0.00000000       0.00000000      17.42219162
2
Properties=species:S:1:pos:R:3:forces:R:3 energy=-6.537102971032605 pbc="F F F"
Fe       0.00000000       0.00000000       0.00000000       0.00000000       0.00000000     -14.30989456
Fe       0.00000000       0.00000000       1.59090909       0.00000000       0.00000000      14.30989456
2
Properties=species:S:1:pos:R:3:forces:R:3 energy=-7.3001521961852776 pbc="F F F"
Fe       0.00000000       0.00000000       0.00000000       0.00000000       0.00000000     -11.70192623
Fe       0.00000000       0.00000000       1.64969697       0.00000000       0.00000000      11.70192623
2
Properties=species:S:1:pos:R:3:forces:R:3 energy=-7.917240922640091 pbc="F F F"
Fe       0.00000000       0.00000000       0.00000000       0.00000000       0.00000000      -9.31965351
Fe       0.00000000       0.00000000       1.70848485       0.00000000       0.00000000       9.31965351
2
Properties=species:S:1:pos:R:3:forces:R:3 energy=-8.398840830180335 pbc="F F F"
Fe       0.00000000       0.00000000       0.00000000       0.00000000       0.00000000      -7.08742714
Fe       0.00000000       0.00000000       1.76727273       0.00000000       0.00000000       7.08742714
2
Properties=species:S:1:pos:R:3:forces:R:3 energy=-8.752884009738201 pbc="F F F"
Fe       0.00000000       0.00000000       0.00000000       0.00000000       0.00000000      -4.97437096
Fe       0.00000000       0.00000000       1.82606061       0.00000000       0.00000000       4.97437096
2
Properties=species:S:1:pos:R:3:forces:R:3 energy=-8.985766691277687 pbc="F F F"
Fe       0.00000000       0.00000000       0.00000000       0.00000000       0.00000000      -2.97042179
Fe       0.00000000       0.00000000       1.88484848       0.00000000       0.00000000       2.97042179
2
Properties=species:S:1:pos:R:3:forces:R:3 energy=-9.106038291973269 pbc="F F F"
Fe       0.00000000       0.00000000       0.00000000       0.00000000       0.00000000      -1.16904461
Fe       0.00000000       0.00000000       1.94363636       0.00000000       0.00000000       1.16904461
2
Properties=species:S:1:pos:R:3:forces:R:3 energy=-9.13075400223057 pbc="F F F"
Fe       0.00000000       0.00000000       0.00000000       0.00000000       0.00000000       0.24919824
Fe       0.00000000       0.00000000       2.00242424       0.00000000       0.00000000      -0.24919824
2
Properties=species:S:1:pos:R:3:forces:R:3 energy=-9.087087461306991 pbc="F F F"
Fe       0.00000000       0.00000000       0.00000000       0.00000000       0.00000000       1.14494669
Fe       0.00000000       0.00000000       2.06121212       0.00000000       0.00000000      -1.14494669
2
Properties=species:S:1:pos:R:3:forces:R:3 energy=-9.00617032169128 pbc="F F F"
Fe       0.00000000       0.00000000       0.00000000       0.00000000       0.00000000       1.53418827
Fe       0.00000000       0.00000000       2.12000000       0.00000000       0.00000000      -1.53418827
2
Properties=species:S:1:pos:R:3:forces:R:3 energy=-8.913383099005364 pbc="F F F"
Fe       0.00000000       0.00000000       0.00000000       0.00000000       0.00000000       1.58370924
Fe       0.00000000       0.00000000       2.17878788       0.00000000       0.00000000      -1.58370924
2
Properties=species:S:1:pos:R:3:forces:R:3 energy=-8.822644777355768 pbc="F F F"
Fe       0.00000000       0.00000000       0.00000000       0.00000000       0.00000000       1.49352133
Fe       0.00000000       0.00000000       2.23757576       0.00000000       0.00000000      -1.49352133
2
Properties=species:S:1:pos:R:3:forces:R:3 energy=-8.737995537075387 pbc="F F F"
Fe       0.00000000       0.00000000       0.00000000       0.00000000       0.00000000       1.38940680
Fe       0.00000000       0.00000000       2.29636364       0.00000000       0.00000000      -1.38940680
2
Properties=species:S:1:pos:R:3:forces:R:3 energy=-8.658712172601572 pbc="F F F"
Fe       0.00000000       0.00000000       0.00000000       0.00000000       0.00000000       1.31315851
Fe       0.00000000       0.00000000       2.35515152       0.00000000       0.00000000      -1.31315851
2
Properties=species:S:1:pos:R:3:forces:R:3 energy=-8.583063371917941 pbc="F F F"
Fe       0.00000000       0.00000000       0.00000000       0.00000000       0.00000000       1.26377809
Fe       0.00000000       0.00000000       2.41393939       0.00000000       0.00000000      -1.26377809
2
Properties=species:S:1:pos:R:3:forces:R:3 energy=-8.509933211202373 pbc="F F F"
Fe       0.00000000       0.00000000       0.00000000       0.00000000       0.00000000       1.22396600
Fe       0.00000000       0.00000000       2.47272727       0.00000000       0.00000000      -1.22396600
2
Properties=species:S:1:pos:R:3:forces:R:3 energy=-8.439279980650454 pbc="F F F"
Fe       0.00000000       0.00000000       0.00000000       0.00000000       0.00000000       1.17929065
Fe       0.00000000       0.00000000       2.53151515       0.00000000       0.00000000      -1.17929065
2
Properties=species:S:1:pos:R:3:forces:R:3 energy=-8.370936461860364 pbc="F F F"
Fe       0.00000000       0.00000000       0.00000000       0.00000000       0.00000000       1.15243053
Fe       0.00000000       0.00000000       2.59030303       0.00000000       0.00000000      -1.15243053
2
Properties=species:S:1:pos:R:3:forces:R:3 energy=-8.302998528939467 pbc="F F F"
Fe       0.00000000       0.00000000       0.00000000       0.00000000       0.00000000       1.16190588
Fe       0.00000000       0.00000000       2.64909091       0.00000000       0.00000000      -1.16190588
2
Properties=species:S:1:pos:R:3:forces:R:3 energy=-8.234559570610553 pbc="F F F"
Fe       0.00000000       0.00000000       0.00000000       0.00000000       0.00000000       1.16138911
Fe       0.00000000       0.00000000       2.70787879       0.00000000       0.00000000      -1.16138911
2
Properties=species:S:1:pos:R:3:forces:R:3 energy=-8.166944949519278 pbc="F F F"
Fe       0.00000000       0.00000000       0.00000000       0.00000000       0.00000000       1.13694263
Fe       0.00000000       0.00000000       2.76666667       0.00000000       0.00000000      -1.13694263
2
Properties=species:S:1:pos:R:3:forces:R:3 energy=-8.100815480191189 pbc="F F F"
Fe       0.00000000       0.00000000       0.00000000       0.00000000       0.00000000       1.11545646
Fe       0.00000000       0.00000000       2.82545455       0.00000000       0.00000000      -1.11545646
2
Properties=species:S:1:pos:R:3:forces:R:3 energy=-8.035371883366416 pbc="F F F"
Fe       0.00000000       0.00000000       0.00000000       0.00000000       0.00000000       1.11484516
Fe       0.00000000       0.00000000       2.88424242       0.00000000       0.00000000      -1.11484516
2
Properties=species:S:1:pos:R:3:forces:R:3 energy=-7.969340261572668 pbc="F F F"
Fe       0.00000000       0.00000000       0.00000000       0.00000000       0.00000000       1.13405478
Fe       0.00000000       0.00000000       2.94303030       0.00000000       0.00000000      -1.13405478
2
Properties=species:S:1:pos:R:3:forces:R:3 energy=-7.901879120109195 pbc="F F F"
Fe       0.00000000       0.00000000       0.00000000       0.00000000       0.00000000       1.16118240
Fe       0.00000000       0.00000000       3.00181818       0.00000000       0.00000000      -1.16118240
2
Properties=species:S:1:pos:R:3:forces:R:3 energy=-7.832902476043031 pbc="F F F"
Fe       0.00000000       0.00000000       0.00000000       0.00000000       0.00000000       1.18403888
Fe       0.00000000       0.00000000       3.06060606       0.00000000       0.00000000      -1.18403888
2
Properties=species:S:1:pos:R:3:forces:R:3 energy=-7.762859862470048 pbc="F F F"
Fe       0.00000000       0.00000000       0.00000000       0.00000000       0.00000000       1.19724321
Fe       0.00000000       0.00000000       3.11939394       0.00000000       0.00000000      -1.19724321
2
Properties=species:S:1:pos:R:3:forces:R:3 energy=-7.692287619822917 pbc="F F F"
Fe       0.00000000       0.00000000       0.00000000       0.00000000       0.00000000       1.20280087
Fe       0.00000000       0.00000000       3.17818182       0.00000000       0.00000000      -1.20280087
2
Properties=species:S:1:pos:R:3:forces:R:3 energy=-7.621487909460339 pbc="F F F"
Fe       0.00000000       0.00000000       0.00000000       0.00000000       0.00000000       1.20580268
Fe       0.00000000       0.00000000       3.23696970       0.00000000       0.00000000      -1.20580268
2
Properties=species:S:1:pos:R:3:forces:R:3 energy=-7.550491612075699 pbc="F F F"
Fe       0.00000000       0.00000000       0.00000000       0.00000000       0.00000000       1.20982277
Fe       0.00000000       0.00000000       3.29575758       0.00000000       0.00000000      -1.20982277
2
Properties=species:S:1:pos:R:3:forces:R:3 energy=-7.479218041138652 pbc="F F F"
Fe       0.00000000       0.00000000       0.00000000       0.00000000       0.00000000       1.21496856
Fe       0.00000000       0.00000000       3.35454545       0.00000000       0.00000000      -1.21496856
2
Properties=species:S:1:pos:R:3:forces:R:3 energy=-7.40767302672075 pbc="F F F"
Fe       0.00000000       0.00000000       0.00000000       0.00000000       0.00000000       1.21843600
Fe       0.00000000       0.00000000       3.41333333       0.00000000       0.00000000      -1.21843600
2
Properties=species:S:1:pos:R:3:forces:R:3 energy=-7.336075385048316 pbc="F F F"
Fe       0.00000000       0.00000000       0.00000000       0.00000000       0.00000000       1.21598899
Fe       0.00000000       0.00000000       3.47212121       0.00000000       0.00000000      -1.21598899
2
Properties=species:S:1:pos:R:3:forces:R:3 energy=-7.264904264765286 pbc="F F F"
Fe       0.00000000       0.00000000       0.00000000       0.00000000       0.00000000       1.20329261
Fe       0.00000000       0.00000000       3.53090909       0.00000000       0.00000000      -1.20329261
2
Properties=species:S:1:pos:R:3:forces:R:3 energy=-7.194869131534815 pbc="F F F"
Fe       0.00000000       0.00000000       0.00000000       0.00000000       0.00000000       1.17676890
Fe       0.00000000       0.00000000       3.58969697       0.00000000       0.00000000      -1.17676890
2
Properties=species:S:1:pos:R:3:forces:R:3 energy=-7.126861270033315 pbc="F F F"
Fe       0.00000000       0.00000000       0.00000000       0.00000000       0.00000000       1.13410604
Fe       0.00000000       0.00000000       3.64848485       0.00000000       0.00000000      -1.13410604
2
Properties=species:S:1:pos:R:3:forces:R:3 energy=-7.061858893355976 pbc="F F F"
Fe       0.00000000       0.00000000       0.00000000       0.00000000       0.00000000       1.07451034
Fe       0.00000000       0.00000000       3.70727273       0.00000000       0.00000000      -1.07451034
2
Properties=species:S:1:pos:R:3:forces:R:3 energy=-7.00084140736295 pbc="F F F"
Fe       0.00000000       0.00000000       0.00000000       0.00000000       0.00000000       0.99880588
Fe       0.00000000       0.00000000       3.76606061       0.00000000       0.00000000      -0.99880588
2
Properties=species:S:1:pos:R:3:forces:R:3 energy=-6.944694059086824 pbc="F F F"
Fe       0.00000000       0.00000000       0.00000000       0.00000000       0.00000000       0.90935826
Fe       0.00000000       0.00000000       3.82484848       0.00000000       0.00000000      -0.90935826
2
Properties=species:S:1:pos:R:3:forces:R:3 energy=-6.894122125051073 pbc="F F F"
Fe       0.00000000       0.00000000       0.00000000       0.00000000       0.00000000       0.80976290
Fe       0.00000000       0.00000000       3.88363636       0.00000000       0.00000000      -0.80976290
2
Properties=species:S:1:pos:R:3:forces:R:3 energy=-6.849598010855904 pbc="F F F"
Fe       0.00000000       0.00000000       0.00000000       0.00000000       0.00000000       0.70441663
Fe       0.00000000       0.00000000       3.94242424       0.00000000       0.00000000      -0.70441663
2
Properties=species:S:1:pos:R:3:forces:R:3 energy=-6.811322084007013 pbc="F F F"
Fe       0.00000000       0.00000000       0.00000000       0.00000000       0.00000000       0.59796733
Fe       0.00000000       0.00000000       4.00121212       0.00000000       0.00000000      -0.59796733
2
Properties=species:S:1:pos:R:3:forces:R:3 energy=-6.779226971785655 pbc="F F F"
Fe       0.00000000       0.00000000       0.00000000       0.00000000       0.00000000       0.49481046
Fe       0.00000000       0.00000000       4.06000000       0.00000000       0.00000000      -0.49481046
2
Properties=species:S:1:pos:R:3:forces:R:3 energy=-6.75300601308703 pbc="F F F"
Fe       0.00000000       0.00000000       0.00000000       0.00000000       0.00000000       0.39869779
Fe       0.00000000       0.00000000       4.11878788       0.00000000       0.00000000      -0.39869779
2
Properties=species:S:1:pos:R:3:forces:R:3 energy=-6.732154774931267 pbc="F F F"
Fe       0.00000000       0.00000000       0.00000000       0.00000000       0.00000000       0.31249711
Fe       0.00000000       0.00000000       4.17757576       0.00000000       0.00000000      -0.31249711
2
Properties=species:S:1:pos:R:3:forces:R:3 energy=-6.716029968026958 pbc="F F F"
Fe       0.00000000       0.00000000       0.00000000       0.00000000       0.00000000       0.23816617
Fe       0.00000000       0.00000000       4.23636364       0.00000000       0.00000000      -0.23816617
2
Properties=species:S:1:pos:R:3:forces:R:3 energy=-6.703896564950797 pbc="F F F"
Fe       0.00000000       0.00000000       0.00000000       0.00000000       0.00000000       0.17683394
Fe       0.00000000       0.00000000       4.29515152       0.00000000       0.00000000      -0.17683394
2
Properties=species:S:1:pos:R:3:forces:R:3 energy=-6.694975376157451 pbc="F F F"
Fe       0.00000000       0.00000000       0.00000000       0.00000000       0.00000000       0.12892169
Fe       0.00000000       0.00000000       4.35393939       0.00000000       0.00000000      -0.12892169
2
Properties=species:S:1:pos:R:3:forces:R:3 energy=-6.6884800246981735 pbc="F F F"
Fe       0.00000000       0.00000000       0.00000000       0.00000000       0.00000000       0.09419303
Fe       0.00000000       0.00000000       4.41272727       0.00000000       0.00000000      -0.09419303
2
Properties=species:S:1:pos:R:3:forces:R:3 energy=-6.683658876212496 pbc="F F F"
Fe       0.00000000       0.00000000       0.00000000       0.00000000       0.00000000       0.07176371
Fe       0.00000000       0.00000000       4.47151515       0.00000000       0.00000000      -0.07176371
2
Properties=species:S:1:pos:R:3:forces:R:3 energy=-6.679831536809691 pbc="F F F"
Fe       0.00000000       0.00000000       0.00000000       0.00000000       0.00000000       0.06006716
Fe       0.00000000       0.00000000       4.53030303       0.00000000       0.00000000      -0.06006716
2
Properties=species:S:1:pos:R:3:forces:R:3 energy=-6.676429314535128 pbc="F F F"
Fe       0.00000000       0.00000000       0.00000000       0.00000000       0.00000000       0.05690195
Fe       0.00000000       0.00000000       4.58909091       0.00000000       0.00000000      -0.05690195
2
Properties=species:S:1:pos:R:3:forces:R:3 energy=-6.673026601923694 pbc="F F F"
Fe       0.00000000       0.00000000       0.00000000       0.00000000       0.00000000       0.05959132
Fe       0.00000000       0.00000000       4.64787879       0.00000000       0.00000000      -0.05959132
2
Properties=species:S:1:pos:R:3:forces:R:3 energy=-6.669364111139837 pbc="F F F"
Fe       0.00000000       0.00000000       0.00000000       0.00000000       0.00000000       0.06525784
Fe       0.00000000       0.00000000       4.70666667       0.00000000       0.00000000      -0.06525784
2
Properties=species:S:1:pos:R:3:forces:R:3 energy=-6.665349328639974 pbc="F F F"
Fe       0.00000000       0.00000000       0.00000000       0.00000000       0.00000000       0.07116300
Fe       0.00000000       0.00000000       4.76545455       0.00000000       0.00000000      -0.07116300
2
Properties=species:S:1:pos:R:3:forces:R:3 energy=-6.6610374195114 pbc="F F F"
Fe       0.00000000       0.00000000       0.00000000       0.00000000       0.00000000       0.07504012
Fe       0.00000000       0.00000000       4.82424242       0.00000000       0.00000000      -0.07504012
2
Properties=species:S:1:pos:R:3:forces:R:3 energy=-6.656597343523664 pbc="F F F"
Fe       0.00000000       0.00000000       0.00000000       0.00000000       0.00000000       0.07534464
Fe       0.00000000       0.00000000       4.88303030       0.00000000       0.00000000      -0.07534464
2
Properties=species:S:1:pos:R:3:forces:R:3 energy=-6.652262693383938 pbc="F F F"
Fe       0.00000000       0.00000000       0.00000000       0.00000000       0.00000000       0.07141116
Fe       0.00000000       0.00000000       4.94181818       0.00000000       0.00000000      -0.07141116
2
Properties=species:S:1:pos:R:3:forces:R:3 energy=-6.648279795514504 pbc="F F F"
Fe       0.00000000       0.00000000       0.00000000       0.00000000       0.00000000       0.06349948
Fe       0.00000000       0.00000000       5.00060606       0.00000000       0.00000000      -0.06349948
2
Properties=species:S:1:pos:R:3:forces:R:3 energy=-6.6448519771260415 pbc="F F F"
Fe       0.00000000       0.00000000       0.00000000       0.00000000       0.00000000       0.05277266
Fe       0.00000000       0.00000000       5.05939394       0.00000000       0.00000000      -0.05277266
2
Properties=species:S:1:pos:R:3:forces:R:3 energy=-6.642091361315146 pbc="F F F"
Fe       0.00000000       0.00000000       0.00000000       0.00000000       0.00000000       0.04120482
Fe       0.00000000       0.00000000       5.11818182       0.00000000       0.00000000      -0.04120482
2
Properties=species:S:1:pos:R:3:forces:R:3 energy=-6.639975105751719 pbc="F F F"
Fe       0.00000000       0.00000000       0.00000000       0.00000000       0.00000000       0.03130119
Fe       0.00000000       0.00000000       5.17696970       0.00000000       0.00000000      -0.03130119
2
Properties=species:S:1:pos:R:3:forces:R:3 energy=-6.638331157752847 pbc="F F F"
Fe       0.00000000       0.00000000       0.00000000       0.00000000       0.00000000       0.02543688
Fe       0.00000000       0.00000000       5.23575758       0.00000000       0.00000000      -0.02543688
2
Properties=species:S:1:pos:R:3:forces:R:3 energy=-6.636885467497108 pbc="F F F"
Fe       0.00000000       0.00000000       0.00000000       0.00000000       0.00000000       0.02450630
Fe       0.00000000       0.00000000       5.29454545       0.00000000       0.00000000      -0.02450630
2
Properties=species:S:1:pos:R:3:forces:R:3 energy=-6.635395616470464 pbc="F F F"
Fe       0.00000000       0.00000000       0.00000000       0.00000000       0.00000000       0.02622380
Fe       0.00000000       0.00000000       5.35333333       0.00000000       0.00000000      -0.02622380
2
Properties=species:S:1:pos:R:3:forces:R:3 energy=-6.633854461778857 pbc="F F F"
Fe       0.00000000       0.00000000       0.00000000       0.00000000       0.00000000       0.02535618
Fe       0.00000000       0.00000000       5.41212121       0.00000000       0.00000000      -0.02535618
2
Properties=species:S:1:pos:R:3:forces:R:3 energy=-6.632503021838862 pbc="F F F"
Fe       0.00000000       0.00000000       0.00000000       0.00000000       0.00000000       0.02039417
Fe       0.00000000       0.00000000       5.47090909       0.00000000       0.00000000      -0.02039417
2
Properties=species:S:1:pos:R:3:forces:R:3 energy=-6.631388541782781 pbc="F F F"
Fe       0.00000000       0.00000000       0.00000000       0.00000000       0.00000000       0.01861749
Fe       0.00000000       0.00000000       5.52969697       0.00000000       0.00000000      -0.01861749
2
Properties=species:S:1:pos:R:3:forces:R:3 energy=-6.630214807772657 pbc="F F F"
Fe       0.00000000       0.00000000       0.00000000       0.00000000       0.00000000       0.02160739
Fe       0.00000000       0.00000000       5.58848485       0.00000000       0.00000000      -0.02160739
2
Properties=species:S:1:pos:R:3:forces:R:3 energy=-6.628869071067026 pbc="F F F"
Fe       0.00000000       0.00000000       0.00000000       0.00000000       0.00000000       0.02378601
Fe       0.00000000       0.00000000       5.64727273       0.00000000       0.00000000      -0.02378601
2
Properties=species:S:1:pos:R:3:forces:R:3 energy=-6.627447351276556 pbc="F F F"
Fe       0.00000000       0.00000000       0.00000000       0.00000000       0.00000000       0.02469159
Fe       0.00000000       0.00000000       5.70606061       0.00000000       0.00000000      -0.02469159
2
Properties=species:S:1:pos:R:3:forces:R:3 energy=-6.625890191379905 pbc="F F F"
Fe       0.00000000       0.00000000       0.00000000       0.00000000       0.00000000       0.02910881
Fe       0.00000000       0.00000000       5.76484848       0.00000000       0.00000000      -0.02910881
2
Properties=species:S:1:pos:R:3:forces:R:3 energy=-6.623997920472547 pbc="F F F"
Fe       0.00000000       0.00000000       0.00000000       0.00000000       0.00000000       0.03431075
Fe       0.00000000       0.00000000       5.82363636       0.00000000       0.00000000      -0.03431075
2
Properties=species:S:1:pos:R:3:forces:R:3 energy=-6.622102046821176 pbc="F F F"
Fe       0.00000000       0.00000000       0.00000000       0.00000000       0.00000000       0.02812369
Fe       0.00000000       0.00000000       5.88242424       0.00000000       0.00000000      -0.02812369
2
Properties=species:S:1:pos:R:3:forces:R:3 energy=-6.620837389098745 pbc="F F F"
Fe       0.00000000       0.00000000       0.00000000       0.00000000       0.00000000       0.01483480
Fe       0.00000000       0.00000000       5.94121212       0.00000000       0.00000000      -0.01483480
2
Properties=species:S:1:pos:R:3:forces:R:3 energy=-6.620212692252732 pbc="F F F"
Fe       0.00000000       0.00000000       0.00000000       0.00000000       0.00000000       0.00836448
Fe       0.00000000       0.00000000       6.00000000       0.00000000       0.00000000      -0.00836448
