2
Properties=species:S:1:pos:R:3:forces:R:3 energy=9689.466987208047 pbc="F F F"
I        0.00000000       0.00000000       0.00000000       0.00000000       0.00000000 -157730.35937500
I        0.00000000       0.00000000       0.18000000       0.00000000       0.00000000  157730.35937500
2
Properties=species:S:1:pos:R:3:forces:R:3 energy=4100.705268458047 pbc="F F F"
I        0.00000000       0.00000000       0.00000000       0.00000000       0.00000000  -53944.69531250
I        0.00000000       0.00000000       0.23878788       0.00000000       0.00000000   53944.69531250
2
Properties=species:S:1:pos:R:3:forces:R:3 energy=2038.492255762734 pbc="F F F"
I        0.00000000       0.00000000       0.00000000       0.00000000       0.00000000  -21758.13085938
I        0.00000000       0.00000000       0.29757576       0.00000000       0.00000000   21758.13085938
2
Properties=species:S:1:pos:R:3:forces:R:3 energy=1165.4998241284447 pbc="F F F"
I        0.00000000       0.00000000       0.00000000       0.00000000       0.00000000   -9748.21289062
I        0.00000000       0.00000000       0.35636364       0.00000000       0.00000000    9748.21289062
2
Properties=species:S:1:pos:R:3:forces:R:3 energy=759.9131542129053 pbc="F F F"
I        0.00000000       0.00000000       0.00000000       0.00000000       0.00000000   -4736.79687500
I        0.00000000       0.00000000       0.41515152       0.00000000       0.00000000    4736.79687500
2
Properties=species:S:1:pos:R:3:forces:R:3 energy=555.583015071756 pbc="F F F"
I        0.00000000       0.00000000       0.00000000       0.00000000       0.00000000   -2504.87084961
I        0.00000000       0.00000000       0.47393939       0.00000000       0.00000000    2504.87084961
2
Properties=species:S:1:pos:R:3:forces:R:3 energy=441.845740939848 pbc="F F F"
I        0.00000000       0.00000000       0.00000000       0.00000000       0.00000000   -1508.84069824
I        0.00000000       0.00000000       0.53272727       0.00000000       0.00000000    1508.84069824
2
Properties=species:S:1:pos:R:3:forces:R:3 energy=374.84146853593126 pbc="F F F"
I        0.00000000       0.00000000       0.00000000       0.00000000       0.00000000    -597.16918945
I        0.00000000       0.00000000       0.59151515       0.00000000       0.00000000     597.16918945
2
Properties=species:S:1:pos:R:3:forces:R:3 energy=349.8133924622588 pbc="F F F"
I        0.00000000       0.00000000       0.00000000       0.00000000       0.00000000    -335.06396484
I        0.00000000       0.00000000       0.65030303       0.00000000       0.00000000     335.06396484
2
Properties=species:S:1:pos:R:3:forces:R:3 energy=332.6345596096695 pbc="F F F"
I        0.00000000       0.00000000       0.00000000       0.00000000       0.00000000    -277.70944214
I        0.00000000       0.00000000       0.70909091       0.00000000       0.00000000     277.70944214
2
Properties=species:S:1:pos:R:3:forces:R:3 energy=313.79471609408836 pbc="F F F"
I        0.00000000       0.00000000       0.00000000       0.00000000       0.00000000    -391.14288330
I        0.00000000       0.00000000       0.76787879       0.00000000       0.00000000     391.14288330
2
Properties=species:S:1:pos:R:3:forces:R:3 energy=283.9317098475841 pbc="F F F"
I        0.00000000       0.00000000       0.00000000       0.00000000       0.00000000    -635.32629395
I        0.00000000       0.00000000       0.82666667       0.00000000       0.00000000     635.32629395
2
Properties=species:S:1:pos:R:3:forces:R:3 energy=240.79305372555342 pbc="F F F"
I        0.00000000       0.00000000       0.00000000       0.00000000       0.00000000    -797.63983154
I        0.00000000       0.00000000       0.88545455       0.00000000       0.00000000     797.63983154
2
Properties=species:S:1:pos:R:3:forces:R:3 energy=193.61553366735336 pbc="F F F"
I        0.00000000       0.00000000       0.00000000       0.00000000       0.00000000    -801.53240967
I        0.00000000       0.00000000       0.94424242       0.00000000       0.00000000     801.53240967
2
Properties=species:S:1:pos:R:3:forces:R:3 energy=164.2698467546569 pbc="F F F"
I        0.00000000       0.00000000       0.00000000       0.00000000       0.00000000    -283.74807739
I        0.00000000       0.00000000       1.00303030       0.00000000       0.00000000     283.74807739
2
Properties=species:S:1:pos:R:3:forces:R:3 energy=145.95505922560113 pbc="F F F"
I        0.00000000       0.00000000       0.00000000       0.00000000       0.00000000    -324.62319946
I        0.00000000       0.00000000       1.06181818       0.00000000       0.00000000     324.62319946
2
Properties=species:S:1:pos:R:3:forces:R:3 energy=126.75279042841258 pbc="F F F"
I        0.00000000       0.00000000       0.00000000       0.00000000       0.00000000    -329.37637329
I        0.00000000       0.00000000       1.12060606       0.00000000       0.00000000     329.37637329
2
Properties=species:S:1:pos:R:3:forces:R:3 energy=107.67973358919942 pbc="F F F"
I        0.00000000       0.00000000       0.00000000       0.00000000       0.00000000    -313.94964600
I        0.00000000       0.00000000       1.17939394       0.00000000       0.00000000     313.94964600
2
Properties=species:S:1:pos:R:3:forces:R:3 energy=90.1645845070498 pbc="F F F"
I        0.00000000       0.00000000       0.00000000       0.00000000       0.00000000    -283.50872803
I        0.00000000       0.00000000       1.23818182       0.00000000       0.00000000     283.50872803
2
Properties=species:S:1:pos:R:3:forces:R:3 energy=74.21530079885093 pbc="F F F"
I        0.00000000       0.00000000       0.00000000       0.00000000       0.00000000    -258.01455688
I        0.00000000       0.00000000       1.29696970       0.00000000       0.00000000     258.01455688
2
Properties=species:S:1:pos:R:3:forces:R:3 energy=60.06062713933332 pbc="F F F"
I        0.00000000       0.00000000       0.00000000       0.00000000       0.00000000    -222.02621460
I        0.00000000       0.00000000       1.35575758       0.00000000       0.00000000     222.02621460
2
Properties=species:S:1:pos:R:3:forces:R:3 energy=48.171140977563475 pbc="F F F"
I        0.00000000       0.00000000       0.00000000       0.00000000       0.00000000    -182.68701172
I        0.00000000       0.00000000       1.41454545       0.00000000       0.00000000     182.68701172
2
Properties=species:S:1:pos:R:3:forces:R:3 energy=38.50443836681989 pbc="F F F"
I        0.00000000       0.00000000       0.00000000       0.00000000       0.00000000    -147.14930725
I        0.00000000       0.00000000       1.47333333       0.00000000       0.00000000     147.14930725
2
Properties=species:S:1:pos:R:3:forces:R:3 energy=30.73718966666946 pbc="F F F"
I        0.00000000       0.00000000       0.00000000       0.00000000       0.00000000    -118.26789093
I        0.00000000       0.00000000       1.53212121       0.00000000       0.00000000     118.26789093
2
Properties=species:S:1:pos:R:3:forces:R:3 energy=24.47124949606046 pbc="F F F"
I        0.00000000       0.00000000       0.00000000       0.00000000       0.00000000     -95.87235260
I        0.00000000       0.00000000       1.59090909       0.00000000       0.00000000      95.87235260
2
Properties=species:S:1:pos:R:3:forces:R:3 energy=19.365818890795218 pbc="F F F"
I        0.00000000       0.00000000       0.00000000       0.00000000       0.00000000     -78.53869629
I        0.00000000       0.00000000       1.64969697       0.00000000       0.00000000      78.53869629
2
Properties=species:S:1:pos:R:3:forces:R:3 energy=15.164680290308535 pbc="F F F"
I        0.00000000       0.00000000       0.00000000       0.00000000       0.00000000     -64.91306305
I        0.00000000       0.00000000       1.70848485       0.00000000       0.00000000      64.91306305
2
Properties=species:S:1:pos:R:3:forces:R:3 energy=11.679678963840141 pbc="F F F"
I        0.00000000       0.00000000       0.00000000       0.00000000       0.00000000     -54.04362869
I        0.00000000       0.00000000       1.76727273       0.00000000       0.00000000      54.04362869
2
Properties=species:S:1:pos:R:3:forces:R:3 energy=8.771853626249394 pbc="F F F"
I        0.00000000       0.00000000       0.00000000       0.00000000       0.00000000     -45.14132690
I        0.00000000       0.00000000       1.82606061       0.00000000       0.00000000      45.14132690
2
Properties=species:S:1:pos:R:3:forces:R:3 energy=6.349332218992567 pbc="F F F"
I        0.00000000       0.00000000       0.00000000       0.00000000       0.00000000     -37.41342163
I        0.00000000       0.00000000       1.88484848       0.00000000       0.00000000      37.41342163
2
Properties=species:S:1:pos:R:3:forces:R:3 energy=4.360212512771154 pbc="F F F"
I        0.00000000       0.00000000       0.00000000       0.00000000       0.00000000     -30.35617256
I        0.00000000       0.00000000       1.94363636       0.00000000       0.00000000      30.35617256
2
Properties=species:S:1:pos:R:3:forces:R:3 energy=2.766459216866302 pbc="F F F"
I        0.00000000       0.00000000       0.00000000       0.00000000       0.00000000     -24.01054764
I        0.00000000       0.00000000       2.00242424       0.00000000       0.00000000      24.01054764
2
Properties=species:S:1:pos:R:3:forces:R:3 energy=1.5162448505398267 pbc="F F F"
I        0.00000000       0.00000000       0.00000000       0.00000000       0.00000000     -18.72407150
I        0.00000000       0.00000000       2.06121212       0.00000000       0.00000000      18.72407150
2
Properties=species:S:1:pos:R:3:forces:R:3 energy=0.5406852292380973 pbc="F F F"
I        0.00000000       0.00000000       0.00000000       0.00000000       0.00000000     -14.66365623
I        0.00000000       0.00000000       2.12000000       0.00000000       0.00000000      14.66365623
2
Properties=species:S:1:pos:R:3:forces:R:3 energy=-0.2285003643664883 pbc="F F F"
I        0.00000000       0.00000000       0.00000000       0.00000000       0.00000000     -11.65244007
I        0.00000000       0.00000000       2.17878788       0.00000000       0.00000000      11.65244007
2
Properties=species:S:1:pos:R:3:forces:R:3 energy=-0.8434603023686709 pbc="F F F"
I        0.00000000       0.00000000       0.00000000       0.00000000       0.00000000      -9.36318874
I        0.00000000       0.00000000       2.23757576       0.00000000       0.00000000       9.36318874
2
Properties=species:S:1:pos:R:3:forces:R:3 energy=-1.3380925107249992 pbc="F F F"
I        0.00000000       0.00000000       0.00000000       0.00000000       0.00000000      -7.52247763
I        0.00000000       0.00000000       2.29636364       0.00000000       0.00000000       7.52247763
2
Properties=species:S:1:pos:R:3:forces:R:3 energy=-1.7334235713690682 pbc="F F F"
I        0.00000000       0.00000000       0.00000000       0.00000000       0.00000000      -5.96503496
I        0.00000000       0.00000000       2.35515152       0.00000000       0.00000000       5.96503496
2
Properties=species:S:1:pos:R:3:forces:R:3 energy=-2.0431669853415015 pbc="F F F"
I        0.00000000       0.00000000       0.00000000       0.00000000       0.00000000      -4.59898567
I        0.00000000       0.00000000       2.41393939       0.00000000       0.00000000       4.59898567
2
Properties=species:S:1:pos:R:3:forces:R:3 energy=-2.2767762451964315 pbc="F F F"
I        0.00000000       0.00000000       0.00000000       0.00000000       0.00000000      -3.36726522
I        0.00000000       0.00000000       2.47272727       0.00000000       0.00000000       3.36726522
2
Properties=species:S:1:pos:R:3:forces:R:3 energy=-2.4409724652011766 pbc="F F F"
I        0.00000000       0.00000000       0.00000000       0.00000000       0.00000000      -2.23321581
I        0.00000000       0.00000000       2.53151515       0.00000000       0.00000000       2.23321581
2
Properties=species:S:1:pos:R:3:forces:R:3 energy=-2.540997979889516 pbc="F F F"
I        0.00000000       0.00000000       0.00000000       0.00000000       0.00000000      -1.18447530
I        0.00000000       0.00000000       2.59030303       0.00000000       0.00000000       1.18447530
2
Properties=species:S:1:pos:R:3:forces:R:3 energy=-2.582238337333536 pbc="F F F"
I        0.00000000       0.00000000       0.00000000       0.00000000       0.00000000      -0.23858351
I        0.00000000       0.00000000       2.64909091       0.00000000       0.00000000       0.23858351
2
Properties=species:S:1:pos:R:3:forces:R:3 energy=-2.571823407447103 pbc="F F F"
I        0.00000000       0.00000000       0.00000000       0.00000000       0.00000000       0.56587374
I        0.00000000       0.00000000       2.70787879       0.00000000       0.00000000      -0.56587374
2
Properties=species:S:1:pos:R:3:forces:R:3 energy=-2.5191897155473804 pbc="F F F"
I        0.00000000       0.00000000       0.00000000       0.00000000       0.00000000       1.19343877
I        0.00000000       0.00000000       2.76666667       0.00000000       0.00000000      -1.19343877
2
Properties=species:S:1:pos:R:3:forces:R:3 energy=-2.4351764961511466 pbc="F F F"
I        0.00000000       0.00000000       0.00000000       0.00000000       0.00000000       1.63476694
I        0.00000000       0.00000000       2.82545455       0.00000000       0.00000000      -1.63476694
2
Properties=species:S:1:pos:R:3:forces:R:3 energy=-2.330173269314197 pbc="F F F"
I        0.00000000       0.00000000       0.00000000       0.00000000       0.00000000       1.91406310
I        0.00000000       0.00000000       2.88424242       0.00000000       0.00000000      -1.91406310
2
Properties=species:S:1:pos:R:3:forces:R:3 energy=-2.2123432697568575 pbc="F F F"
I        0.00000000       0.00000000       0.00000000       0.00000000       0.00000000       2.08045006
I        0.00000000       0.00000000       2.94303030       0.00000000       0.00000000      -2.08045006
2
Properties=species:S:1:pos:R:3:forces:R:3 energy=-2.0867147766382335 pbc="F F F"
I        0.00000000       0.00000000       0.00000000       0.00000000       0.00000000       2.18734837
I        0.00000000       0.00000000       3.00181818       0.00000000       0.00000000      -2.18734837
2
Properties=species:S:1:pos:R:3:forces:R:3 energy=-1.9556594414145068 pbc="F F F"
I        0.00000000       0.00000000       0.00000000       0.00000000       0.00000000       2.26784301
I        0.00000000       0.00000000       3.06060606       0.00000000       0.00000000      -2.26784301
2
Properties=species:S:1:pos:R:3:forces:R:3 energy=-1.8205822692516125 pbc="F F F"
I        0.00000000       0.00000000       0.00000000       0.00000000       0.00000000       2.32138371
I        0.00000000       0.00000000       3.11939394       0.00000000       0.00000000      -2.32138371
2
Properties=species:S:1:pos:R:3:forces:R:3 energy=-1.6837581843464722 pbc="F F F"
I        0.00000000       0.00000000       0.00000000       0.00000000       0.00000000       2.32188916
I        0.00000000       0.00000000       3.17818182       0.00000000       0.00000000      -2.32188916
2
Properties=species:S:1:pos:R:3:forces:R:3 energy=-1.5491910077179862 pbc="F F F"
I        0.00000000       0.00000000       0.00000000       0.00000000       0.00000000       2.24116898
I        0.00000000       0.00000000       3.23696970       0.00000000       0.00000000      -2.24116898
2
Properties=species:S:1:pos:R:3:forces:R:3 energy=-1.422014307477862 pbc="F F F"
I        0.00000000       0.00000000       0.00000000       0.00000000       0.00000000       2.07153535
I        0.00000000       0.00000000       3.29575758       0.00000000       0.00000000      -2.07153535
2
Properties=species:S:1:pos:R:3:forces:R:3 energy=-1.306982680398482 pbc="F F F"
I        0.00000000       0.00000000       0.00000000       0.00000000       0.00000000       1.83338654
I        0.00000000       0.00000000       3.35454545       0.00000000       0.00000000      -1.83338654
2
Properties=species:S:1:pos:R:3:forces:R:3 energy=-1.2070415093834788 pbc="F F F"
I        0.00000000       0.00000000       0.00000000       0.00000000       0.00000000       1.56512332
I        0.00000000       0.00000000       3.41333333       0.00000000       0.00000000      -1.56512332
2
Properties=species:S:1:pos:R:3:forces:R:3 energy=-1.1227893936330389 pbc="F F F"
I        0.00000000       0.00000000       0.00000000       0.00000000       0.00000000       1.30520046
I        0.00000000       0.00000000       3.47212121       0.00000000       0.00000000      -1.30520046
2
Properties=species:S:1:pos:R:3:forces:R:3 energy=-1.0529059279562114 pbc="F F F"
I        0.00000000       0.00000000       0.00000000       0.00000000       0.00000000       1.07923222
I        0.00000000       0.00000000       3.53090909       0.00000000       0.00000000      -1.07923222
2
Properties=species:S:1:pos:R:3:forces:R:3 energy=-0.9950268647301538 pbc="F F F"
I        0.00000000       0.00000000       0.00000000       0.00000000       0.00000000       0.89734298
I        0.00000000       0.00000000       3.58969697       0.00000000       0.00000000      -0.89734298
2
Properties=species:S:1:pos:R:3:forces:R:3 energy=-0.9465548568687624 pbc="F F F"
I        0.00000000       0.00000000       0.00000000       0.00000000       0.00000000       0.75837457
I        0.00000000       0.00000000       3.64848485       0.00000000       0.00000000      -0.75837457
2
Properties=species:S:1:pos:R:3:forces:R:3 energy=-0.9051547983146412 pbc="F F F"
I        0.00000000       0.00000000       0.00000000       0.00000000       0.00000000       0.65537822
I        0.00000000       0.00000000       3.70727273       0.00000000       0.00000000      -0.65537822
2
Properties=species:S:1:pos:R:3:forces:R:3 energy=-0.8689640052162912 pbc="F F F"
I        0.00000000       0.00000000       0.00000000       0.00000000       0.00000000       0.57966954
I        0.00000000       0.00000000       3.76606061       0.00000000       0.00000000      -0.57966954
2
Properties=species:S:1:pos:R:3:forces:R:3 energy=-0.8366260774867134 pbc="F F F"
I        0.00000000       0.00000000       0.00000000       0.00000000       0.00000000       0.52307391
I        0.00000000       0.00000000       3.82484848       0.00000000       0.00000000      -0.52307391
2
Properties=species:S:1:pos:R:3:forces:R:3 energy=-0.807220563339038 pbc="F F F"
I        0.00000000       0.00000000       0.00000000       0.00000000       0.00000000       0.47891599
I        0.00000000       0.00000000       3.88363636       0.00000000       0.00000000      -0.47891599
2
Properties=species:S:1:pos:R:3:forces:R:3 energy=-0.7801697131995292 pbc="F F F"
I        0.00000000       0.00000000       0.00000000       0.00000000       0.00000000       0.44233349
I        0.00000000       0.00000000       3.94242424       0.00000000       0.00000000      -0.44233349
2
Properties=species:S:1:pos:R:3:forces:R:3 energy=-0.7551282571280962 pbc="F F F"
I        0.00000000       0.00000000       0.00000000       0.00000000       0.00000000       0.41014454
I        0.00000000       0.00000000       4.00121212       0.00000000       0.00000000      -0.41014454
2
Properties=species:S:1:pos:R:3:forces:R:3 energy=-0.7318974183225556 pbc="F F F"
I        0.00000000       0.00000000       0.00000000       0.00000000       0.00000000       0.38050282
I        0.00000000       0.00000000       4.06000000       0.00000000       0.00000000      -0.38050282
2
Properties=species:S:1:pos:R:3:forces:R:3 energy=-0.7103580282835872 pbc="F F F"
I        0.00000000       0.00000000       0.00000000       0.00000000       0.00000000       0.35252839
I        0.00000000       0.00000000       4.11878788       0.00000000       0.00000000      -0.35252839
2
Properties=species:S:1:pos:R:3:forces:R:3 energy=-0.6904208248765051 pbc="F F F"
I        0.00000000       0.00000000       0.00000000       0.00000000       0.00000000       0.32598078
I        0.00000000       0.00000000       4.17757576       0.00000000       0.00000000      -0.32598078
2
Properties=species:S:1:pos:R:3:forces:R:3 energy=-0.6719983286903328 pbc="F F F"
I        0.00000000       0.00000000       0.00000000       0.00000000       0.00000000       0.30106777
I        0.00000000       0.00000000       4.23636364       0.00000000       0.00000000      -0.30106777
2
Properties=species:S:1:pos:R:3:forces:R:3 energy=-0.6549805231747822 pbc="F F F"
I        0.00000000       0.00000000       0.00000000       0.00000000       0.00000000       0.27828324
I        0.00000000       0.00000000       4.29515152       0.00000000       0.00000000      -0.27828324
2
Properties=species:S:1:pos:R:3:forces:R:3 energy=-0.6392254270189367 pbc="F F F"
I        0.00000000       0.00000000       0.00000000       0.00000000       0.00000000       0.25824258
I        0.00000000       0.00000000       4.35393939       0.00000000       0.00000000      -0.25824258
2
Properties=species:S:1:pos:R:3:forces:R:3 energy=-0.6245543044368328 pbc="F F F"
I        0.00000000       0.00000000       0.00000000       0.00000000       0.00000000       0.24144356
I        0.00000000       0.00000000       4.41272727       0.00000000       0.00000000      -0.24144356
2
Properties=species:S:1:pos:R:3:forces:R:3 energy=-0.6107708398560788 pbc="F F F"
I        0.00000000       0.00000000       0.00000000       0.00000000       0.00000000       0.22801952
I        0.00000000       0.00000000       4.47151515       0.00000000       0.00000000      -0.22801952
2
Properties=species:S:1:pos:R:3:forces:R:3 energy=-0.5976863395952186 pbc="F F F"
I        0.00000000       0.00000000       0.00000000       0.00000000       0.00000000       0.21753187
I        0.00000000       0.00000000       4.53030303       0.00000000       0.00000000      -0.21753187
2
Properties=species:S:1:pos:R:3:forces:R:3 energy=-0.5851572588632555 pbc="F F F"
I        0.00000000       0.00000000       0.00000000       0.00000000       0.00000000       0.20892350
I        0.00000000       0.00000000       4.58909091       0.00000000       0.00000000      -0.20892350
2
Properties=species:S:1:pos:R:3:forces:R:3 energy=-0.5731151369625546 pbc="F F F"
I        0.00000000       0.00000000       0.00000000       0.00000000       0.00000000       0.20068681
I        0.00000000       0.00000000       4.64787879       0.00000000       0.00000000      -0.20068681
2
Properties=species:S:1:pos:R:3:forces:R:3 energy=-0.5615851311655448 pbc="F F F"
I        0.00000000       0.00000000       0.00000000       0.00000000       0.00000000       0.19123991
I        0.00000000       0.00000000       4.70666667       0.00000000       0.00000000      -0.19123991
2
Properties=species:S:1:pos:R:3:forces:R:3 energy=-0.5506767067187806 pbc="F F F"
I        0.00000000       0.00000000       0.00000000       0.00000000       0.00000000       0.17943206
I        0.00000000       0.00000000       4.76545455       0.00000000       0.00000000      -0.17943206
2
Properties=species:S:1:pos:R:3:forces:R:3 energy=-0.5405400731831905 pbc="F F F"
I        0.00000000       0.00000000       0.00000000       0.00000000       0.00000000       0.16501497
I        0.00000000       0.00000000       4.82424242       0.00000000       0.00000000      -0.16501497
2
Properties=species:S:1:pos:R:3:forces:R:3 energy=-0.5313084059425113 pbc="F F F"
I        0.00000000       0.00000000       0.00000000       0.00000000       0.00000000       0.14894882
I        0.00000000       0.00000000       4.88303030       0.00000000       0.00000000      -0.14894882
2
Properties=species:S:1:pos:R:3:forces:R:3 energy=-0.5230188367868269 pbc="F F F"
I        0.00000000       0.00000000       0.00000000       0.00000000       0.00000000       0.13336048
I        0.00000000       0.00000000       4.94181818       0.00000000       0.00000000      -0.13336048
2
Properties=species:S:1:pos:R:3:forces:R:3 energy=-0.5155621260016002 pbc="F F F"
I        0.00000000       0.00000000       0.00000000       0.00000000       0.00000000       0.12112049
I        0.00000000       0.00000000       5.00060606       0.00000000       0.00000000      -0.12112049
2
Properties=species:S:1:pos:R:3:forces:R:3 energy=-0.5086572133522401 pbc="F F F"
I        0.00000000       0.00000000       0.00000000       0.00000000       0.00000000       0.11498024
I        0.00000000       0.00000000       5.05939394       0.00000000       0.00000000      -0.11498024
2
Properties=species:S:1:pos:R:3:forces:R:3 energy=-0.5018924074774881 pbc="F F F"
I        0.00000000       0.00000000       0.00000000       0.00000000       0.00000000       0.11643963
I        0.00000000       0.00000000       5.11818182       0.00000000       0.00000000      -0.11643963
2
Properties=species:S:1:pos:R:3:forces:R:3 energy=-0.4948345310815088 pbc="F F F"
I        0.00000000       0.00000000       0.00000000       0.00000000       0.00000000       0.12456229
I        0.00000000       0.00000000       5.17696970       0.00000000       0.00000000      -0.12456229
2
Properties=species:S:1:pos:R:3:forces:R:3 energy=-0.48719337936030455 pbc="F F F"
I        0.00000000       0.00000000       0.00000000       0.00000000       0.00000000       0.13538702
I        0.00000000       0.00000000       5.23575758       0.00000000       0.00000000      -0.13538702
2
Properties=species:S:1:pos:R:3:forces:R:3 energy=-0.4789753800679985 pbc="F F F"
I        0.00000000       0.00000000       0.00000000       0.00000000       0.00000000       0.14335448
I        0.00000000       0.00000000       5.29454545       0.00000000       0.00000000      -0.14335448
2
Properties=species:S:1:pos:R:3:forces:R:3 energy=-0.47043174381152475 pbc="F F F"
I        0.00000000       0.00000000       0.00000000       0.00000000       0.00000000       0.14695685
I        0.00000000       0.00000000       5.35333333       0.00000000       0.00000000      -0.14695685
2
Properties=species:S:1:pos:R:3:forces:R:3 energy=-0.46161249872261717 pbc="F F F"
I        0.00000000       0.00000000       0.00000000       0.00000000       0.00000000       0.15485321
I        0.00000000       0.00000000       5.41212121       0.00000000       0.00000000      -0.15485321
2
Properties=species:S:1:pos:R:3:forces:R:3 energy=-0.45198260782707705 pbc="F F F"
I        0.00000000       0.00000000       0.00000000       0.00000000       0.00000000       0.17401452
I        0.00000000       0.00000000       5.47090909       0.00000000       0.00000000      -0.17401452
2
Properties=species:S:1:pos:R:3:forces:R:3 energy=-0.4412483972400383 pbc="F F F"
I        0.00000000       0.00000000       0.00000000       0.00000000       0.00000000       0.18834278
I        0.00000000       0.00000000       5.52969697       0.00000000       0.00000000      -0.18834278
2
Properties=species:S:1:pos:R:3:forces:R:3 energy=-0.4302444593170136 pbc="F F F"
I        0.00000000       0.00000000       0.00000000       0.00000000       0.00000000       0.18306126
I        0.00000000       0.00000000       5.58848485       0.00000000       0.00000000      -0.18306126
2
Properties=species:S:1:pos:R:3:forces:R:3 energy=-0.41990436884565574 pbc="F F F"
I        0.00000000       0.00000000       0.00000000       0.00000000       0.00000000       0.16882350
I        0.00000000       0.00000000       5.64727273       0.00000000       0.00000000      -0.16882350
2
Properties=species:S:1:pos:R:3:forces:R:3 energy=-0.41024390691743423 pbc="F F F"
I        0.00000000       0.00000000       0.00000000       0.00000000       0.00000000       0.16165754
I        0.00000000       0.00000000       5.70606061       0.00000000       0.00000000      -0.16165754
2
Properties=species:S:1:pos:R:3:forces:R:3 energy=-0.4008465716455972 pbc="F F F"
I        0.00000000       0.00000000       0.00000000       0.00000000       0.00000000       0.15535717
I        0.00000000       0.00000000       5.76484848       0.00000000       0.00000000      -0.15535717
2
Properties=species:S:1:pos:R:3:forces:R:3 energy=-0.39248295992002813 pbc="F F F"
I        0.00000000       0.00000000       0.00000000       0.00000000       0.00000000       0.12438300
I        0.00000000       0.00000000       5.82363636       0.00000000       0.00000000      -0.12438300
2
Properties=species:S:1:pos:R:3:forces:R:3 energy=-0.3867040258112658 pbc="F F F"
I        0.00000000       0.00000000       0.00000000       0.00000000       0.00000000       0.07112283
I        0.00000000       0.00000000       5.88242424       0.00000000       0.00000000      -0.07112283
2
Properties=species:S:1:pos:R:3:forces:R:3 energy=-0.38398795888919185 pbc="F F F"
I        0.00000000       0.00000000       0.00000000       0.00000000       0.00000000       0.02421700
I        0.00000000       0.00000000       5.94121212       0.00000000       0.00000000      -0.02421700
2
Properties=species:S:1:pos:R:3:forces:R:3 energy=-0.3832746087788903 pbc="F F F"
I        0.00000000       0.00000000       0.00000000       0.00000000       0.00000000       0.00598860
I        0.00000000       0.00000000       6.00000000       0.00000000       0.00000000      -0.00598860
