2
Properties=species:S:1:pos:R:3:forces:R:3 energy=11111.015770688378 pbc="F F F"
Nd       0.00000000       0.00000000       0.00000000       0.00000000       0.00000000 -190036.21875000
Nd       0.00000000       0.00000000       0.18000000       0.00000000       0.00000000  190036.21875000
2
Properties=species:S:1:pos:R:3:forces:R:3 energy=4412.671532407128 pbc="F F F"
Nd       0.00000000       0.00000000       0.00000000       0.00000000       0.00000000  -64172.25781250
Nd       0.00000000       0.00000000       0.23878788       0.00000000       0.00000000   64172.25781250
2
Properties=species:S:1:pos:R:3:forces:R:3 energy=1973.6386954930658 pbc="F F F"
Nd       0.00000000       0.00000000       0.00000000       0.00000000       0.00000000  -25521.05859375
Nd       0.00000000       0.00000000       0.29757576       0.00000000       0.00000000   25521.05859375
2
Properties=species:S:1:pos:R:3:forces:R:3 energy=957.0880363133784 pbc="F F F"
Nd       0.00000000       0.00000000       0.00000000       0.00000000       0.00000000  -11231.76953125
Nd       0.00000000       0.00000000       0.35636364       0.00000000       0.00000000   11231.76953125
2
Properties=species:S:1:pos:R:3:forces:R:3 energy=494.8761527811278 pbc="F F F"
Nd       0.00000000       0.00000000       0.00000000       0.00000000       0.00000000   -5307.07128906
Nd       0.00000000       0.00000000       0.41515152       0.00000000       0.00000000    5307.07128906
2
Properties=species:S:1:pos:R:3:forces:R:3 energy=270.8154838484866 pbc="F F F"
Nd       0.00000000       0.00000000       0.00000000       0.00000000       0.00000000   -2652.45581055
Nd       0.00000000       0.00000000       0.47393939       0.00000000       0.00000000    2652.45581055
2
Properties=species:S:1:pos:R:3:forces:R:3 energy=156.36489182014228 pbc="F F F"
Nd       0.00000000       0.00000000       0.00000000       0.00000000       0.00000000   -1390.46569824
Nd       0.00000000       0.00000000       0.53272727       0.00000000       0.00000000    1390.46569824
2
Properties=species:S:1:pos:R:3:forces:R:3 energy=95.21721729760925 pbc="F F F"
Nd       0.00000000       0.00000000       0.00000000       0.00000000       0.00000000    -759.58300781
Nd       0.00000000       0.00000000       0.59151515       0.00000000       0.00000000     759.58300781
2
Properties=species:S:1:pos:R:3:forces:R:3 energy=61.268807314114724 pbc="F F F"
Nd       0.00000000       0.00000000       0.00000000       0.00000000       0.00000000    -429.52029419
Nd       0.00000000       0.00000000       0.65030303       0.00000000       0.00000000     429.52029419
2
Properties=species:S:1:pos:R:3:forces:R:3 energy=41.8237123278866 pbc="F F F"
Nd       0.00000000       0.00000000       0.00000000       0.00000000       0.00000000    -249.48616028
Nd       0.00000000       0.00000000       0.70909091       0.00000000       0.00000000     249.48616028
2
Properties=species:S:1:pos:R:3:forces:R:3 energy=30.42525776311921 pbc="F F F"
Nd       0.00000000       0.00000000       0.00000000       0.00000000       0.00000000    -147.63742065
Nd       0.00000000       0.00000000       0.76787879       0.00000000       0.00000000     147.63742065
2
Properties=species:S:1:pos:R:3:forces:R:3 energy=23.639548559413736 pbc="F F F"
Nd       0.00000000       0.00000000       0.00000000       0.00000000       0.00000000     -88.46271515
Nd       0.00000000       0.00000000       0.82666667       0.00000000       0.00000000      88.46271515
2
Properties=species:S:1:pos:R:3:forces:R:3 energy=19.5481467590065 pbc="F F F"
Nd       0.00000000       0.00000000       0.00000000       0.00000000       0.00000000     -53.85383987
Nd       0.00000000       0.00000000       0.88545455       0.00000000       0.00000000      53.85383987
2
Properties=species:S:1:pos:R:3:forces:R:3 energy=17.01422682571664 pbc="F F F"
Nd       0.00000000       0.00000000       0.00000000       0.00000000       0.00000000     -34.35758591
Nd       0.00000000       0.00000000       0.94424242       0.00000000       0.00000000      34.35758591
2
Properties=species:S:1:pos:R:3:forces:R:3 energy=15.312115096678344 pbc="F F F"
Nd       0.00000000       0.00000000       0.00000000       0.00000000       0.00000000     -24.95307732
Nd       0.00000000       0.00000000       1.00303030       0.00000000       0.00000000      24.95307732
2
Properties=species:S:1:pos:R:3:forces:R:3 energy=13.939511372796874 pbc="F F F"
Nd       0.00000000       0.00000000       0.00000000       0.00000000       0.00000000     -22.74871635
Nd       0.00000000       0.00000000       1.06181818       0.00000000       0.00000000      22.74871635
2
Properties=species:S:1:pos:R:3:forces:R:3 energy=12.543424575288835 pbc="F F F"
Nd       0.00000000       0.00000000       0.00000000       0.00000000       0.00000000     -25.32678413
Nd       0.00000000       0.00000000       1.12060606       0.00000000       0.00000000      25.32678413
2
Properties=species:S:1:pos:R:3:forces:R:3 energy=10.91993060110481 pbc="F F F"
Nd       0.00000000       0.00000000       0.00000000       0.00000000       0.00000000     -30.05307388
Nd       0.00000000       0.00000000       1.17939394       0.00000000       0.00000000      30.05307388
2
Properties=species:S:1:pos:R:3:forces:R:3 energy=9.010742834059833 pbc="F F F"
Nd       0.00000000       0.00000000       0.00000000       0.00000000       0.00000000     -34.78760529
Nd       0.00000000       0.00000000       1.23818182       0.00000000       0.00000000      34.78760529
2
Properties=species:S:1:pos:R:3:forces:R:3 energy=6.847533325724071 pbc="F F F"
Nd       0.00000000       0.00000000       0.00000000       0.00000000       0.00000000     -38.61109161
Nd       0.00000000       0.00000000       1.29696970       0.00000000       0.00000000      38.61109161
2
Properties=species:S:1:pos:R:3:forces:R:3 energy=4.507052970791757 pbc="F F F"
Nd       0.00000000       0.00000000       0.00000000       0.00000000       0.00000000     -40.56011963
Nd       0.00000000       0.00000000       1.35575758       0.00000000       0.00000000      40.56011963
2
Properties=species:S:1:pos:R:3:forces:R:3 energy=2.1446997246176243 pbc="F F F"
Nd       0.00000000       0.00000000       0.00000000       0.00000000       0.00000000     -39.21404266
Nd       0.00000000       0.00000000       1.41454545       0.00000000       0.00000000      39.21404266
2
Properties=species:S:1:pos:R:3:forces:R:3 energy=-0.04307129692567474 pbc="F F F"
Nd       0.00000000       0.00000000       0.00000000       0.00000000       0.00000000     -34.82949066
Nd       0.00000000       0.00000000       1.47333333       0.00000000       0.00000000      34.82949066
2
Properties=species:S:1:pos:R:3:forces:R:3 energy=-1.922764598300842 pbc="F F F"
Nd       0.00000000       0.00000000       0.00000000       0.00000000       0.00000000     -29.02545547
Nd       0.00000000       0.00000000       1.53212121       0.00000000       0.00000000      29.02545547
2
Properties=species:S:1:pos:R:3:forces:R:3 energy=-3.458216233208419 pbc="F F F"
Nd       0.00000000       0.00000000       0.00000000       0.00000000       0.00000000     -23.31824303
Nd       0.00000000       0.00000000       1.59090909       0.00000000       0.00000000      23.31824303
2
Properties=species:S:1:pos:R:3:forces:R:3 energy=-4.6805525360976805 pbc="F F F"
Nd       0.00000000       0.00000000       0.00000000       0.00000000       0.00000000     -18.39888573
Nd       0.00000000       0.00000000       1.64969697       0.00000000       0.00000000      18.39888573
2
Properties=species:S:1:pos:R:3:forces:R:3 energy=-5.634472019437969 pbc="F F F"
Nd       0.00000000       0.00000000       0.00000000       0.00000000       0.00000000     -14.16638279
Nd       0.00000000       0.00000000       1.70848485       0.00000000       0.00000000      14.16638279
2
Properties=species:S:1:pos:R:3:forces:R:3 energy=-6.366126067834519 pbc="F F F"
Nd       0.00000000       0.00000000       0.00000000       0.00000000       0.00000000     -10.96221066
Nd       0.00000000       0.00000000       1.76727273       0.00000000       0.00000000      10.96221066
2
Properties=species:S:1:pos:R:3:forces:R:3 energy=-6.952961365422594 pbc="F F F"
Nd       0.00000000       0.00000000       0.00000000       0.00000000       0.00000000      -9.21646595
Nd       0.00000000       0.00000000       1.82606061       0.00000000       0.00000000       9.21646595
2
Properties=species:S:1:pos:R:3:forces:R:3 energy=-7.465879052666803 pbc="F F F"
Nd       0.00000000       0.00000000       0.00000000       0.00000000       0.00000000      -8.29670334
Nd       0.00000000       0.00000000       1.88484848       0.00000000       0.00000000       8.29670334
2
Properties=species:S:1:pos:R:3:forces:R:3 energy=-7.930146852621406 pbc="F F F"
Nd       0.00000000       0.00000000       0.00000000       0.00000000       0.00000000      -7.48186731
Nd       0.00000000       0.00000000       1.94363636       0.00000000       0.00000000       7.48186731
2
Properties=species:S:1:pos:R:3:forces:R:3 energy=-8.34248806237631 pbc="F F F"
Nd       0.00000000       0.00000000       0.00000000       0.00000000       0.00000000      -6.51806831
Nd       0.00000000       0.00000000       2.00242424       0.00000000       0.00000000       6.51806831
2
Properties=species:S:1:pos:R:3:forces:R:3 energy=-8.69366784804452 pbc="F F F"
Nd       0.00000000       0.00000000       0.00000000       0.00000000       0.00000000      -5.41015148
Nd       0.00000000       0.00000000       2.06121212       0.00000000       0.00000000       5.41015148
2
Properties=species:S:1:pos:R:3:forces:R:3 energy=-8.976887975603587 pbc="F F F"
Nd       0.00000000       0.00000000       0.00000000       0.00000000       0.00000000      -4.21510649
Nd       0.00000000       0.00000000       2.12000000       0.00000000       0.00000000       4.21510649
2
Properties=species:S:1:pos:R:3:forces:R:3 energy=-9.188742379889373 pbc="F F F"
Nd       0.00000000       0.00000000       0.00000000       0.00000000       0.00000000      -2.99521494
Nd       0.00000000       0.00000000       2.17878788       0.00000000       0.00000000       2.99521494
2
Properties=species:S:1:pos:R:3:forces:R:3 energy=-9.330568495759808 pbc="F F F"
Nd       0.00000000       0.00000000       0.00000000       0.00000000       0.00000000      -1.85358489
Nd       0.00000000       0.00000000       2.23757576       0.00000000       0.00000000       1.85358489
2
Properties=species:S:1:pos:R:3:forces:R:3 energy=-9.410619791544113 pbc="F F F"
Nd       0.00000000       0.00000000       0.00000000       0.00000000       0.00000000      -0.91086471
Nd       0.00000000       0.00000000       2.29636364       0.00000000       0.00000000       0.91086471
2
Properties=species:S:1:pos:R:3:forces:R:3 energy=-9.442847850913015 pbc="F F F"
Nd       0.00000000       0.00000000       0.00000000       0.00000000       0.00000000      -0.22966063
Nd       0.00000000       0.00000000       2.35515152       0.00000000       0.00000000       0.22966063
2
Properties=species:S:1:pos:R:3:forces:R:3 energy=-9.442425850980118 pbc="F F F"
Nd       0.00000000       0.00000000       0.00000000       0.00000000       0.00000000       0.20773134
Nd       0.00000000       0.00000000       2.41393939       0.00000000       0.00000000      -0.20773134
2
Properties=species:S:1:pos:R:3:forces:R:3 energy=-9.422061644723382 pbc="F F F"
Nd       0.00000000       0.00000000       0.00000000       0.00000000       0.00000000       0.45928863
Nd       0.00000000       0.00000000       2.47272727       0.00000000       0.00000000      -0.45928863
2
Properties=species:S:1:pos:R:3:forces:R:3 energy=-9.390929683764611 pbc="F F F"
Nd       0.00000000       0.00000000       0.00000000       0.00000000       0.00000000       0.58252430
Nd       0.00000000       0.00000000       2.53151515       0.00000000       0.00000000      -0.58252430
2
Properties=species:S:1:pos:R:3:forces:R:3 energy=-9.355214498688223 pbc="F F F"
Nd       0.00000000       0.00000000       0.00000000       0.00000000       0.00000000       0.62158799
Nd       0.00000000       0.00000000       2.59030303       0.00000000       0.00000000      -0.62158799
2
Properties=species:S:1:pos:R:3:forces:R:3 energy=-9.318812755393568 pbc="F F F"
Nd       0.00000000       0.00000000       0.00000000       0.00000000       0.00000000       0.61113071
Nd       0.00000000       0.00000000       2.64909091       0.00000000       0.00000000      -0.61113071
2
Properties=species:S:1:pos:R:3:forces:R:3 energy=-9.283749858715748 pbc="F F F"
Nd       0.00000000       0.00000000       0.00000000       0.00000000       0.00000000       0.58053464
Nd       0.00000000       0.00000000       2.70787879       0.00000000       0.00000000      -0.58053464
2
Properties=species:S:1:pos:R:3:forces:R:3 energy=-9.25050145471184 pbc="F F F"
Nd       0.00000000       0.00000000       0.00000000       0.00000000       0.00000000       0.55237985
Nd       0.00000000       0.00000000       2.76666667       0.00000000       0.00000000      -0.55237985
2
Properties=species:S:1:pos:R:3:forces:R:3 energy=-9.218514022796052 pbc="F F F"
Nd       0.00000000       0.00000000       0.00000000       0.00000000       0.00000000       0.53864807
Nd       0.00000000       0.00000000       2.82545455       0.00000000       0.00000000      -0.53864807
2
Properties=species:S:1:pos:R:3:forces:R:3 energy=-9.186856298654279 pbc="F F F"
Nd       0.00000000       0.00000000       0.00000000       0.00000000       0.00000000       0.54075265
Nd       0.00000000       0.00000000       2.88424242       0.00000000       0.00000000      -0.54075265
2
Properties=species:S:1:pos:R:3:forces:R:3 energy=-9.154704681799858 pbc="F F F"
Nd       0.00000000       0.00000000       0.00000000       0.00000000       0.00000000       0.55462849
Nd       0.00000000       0.00000000       2.94303030       0.00000000       0.00000000      -0.55462849
2
Properties=species:S:1:pos:R:3:forces:R:3 energy=-9.121493013126404 pbc="F F F"
Nd       0.00000000       0.00000000       0.00000000       0.00000000       0.00000000       0.57637417
Nd       0.00000000       0.00000000       3.00181818       0.00000000       0.00000000      -0.57637417
2
Properties=species:S:1:pos:R:3:forces:R:3 energy=-9.08682081943281 pbc="F F F"
Nd       0.00000000       0.00000000       0.00000000       0.00000000       0.00000000       0.60403323
Nd       0.00000000       0.00000000       3.06060606       0.00000000       0.00000000      -0.60403323
2
Properties=species:S:1:pos:R:3:forces:R:3 energy=-9.050389670669832 pbc="F F F"
Nd       0.00000000       0.00000000       0.00000000       0.00000000       0.00000000       0.63589388
Nd       0.00000000       0.00000000       3.11939394       0.00000000       0.00000000      -0.63589388
2
Properties=species:S:1:pos:R:3:forces:R:3 energy=-9.012032566445843 pbc="F F F"
Nd       0.00000000       0.00000000       0.00000000       0.00000000       0.00000000       0.66892749
Nd       0.00000000       0.00000000       3.17818182       0.00000000       0.00000000      -0.66892749
2
Properties=species:S:1:pos:R:3:forces:R:3 energy=-8.971787495662092 pbc="F F F"
Nd       0.00000000       0.00000000       0.00000000       0.00000000       0.00000000       0.69955921
Nd       0.00000000       0.00000000       3.23696970       0.00000000       0.00000000      -0.69955921
2
Properties=species:S:1:pos:R:3:forces:R:3 energy=-8.929868610871303 pbc="F F F"
Nd       0.00000000       0.00000000       0.00000000       0.00000000       0.00000000       0.72579998
Nd       0.00000000       0.00000000       3.29575758       0.00000000       0.00000000      -0.72579998
2
Properties=species:S:1:pos:R:3:forces:R:3 energy=-8.886523417884696 pbc="F F F"
Nd       0.00000000       0.00000000       0.00000000       0.00000000       0.00000000       0.74842626
Nd       0.00000000       0.00000000       3.35454545       0.00000000       0.00000000      -0.74842626
2
Properties=species:S:1:pos:R:3:forces:R:3 energy=-8.841888669579902 pbc="F F F"
Nd       0.00000000       0.00000000       0.00000000       0.00000000       0.00000000       0.77017558
Nd       0.00000000       0.00000000       3.41333333       0.00000000       0.00000000      -0.77017558
2
Properties=species:S:1:pos:R:3:forces:R:3 energy=-8.795935943108486 pbc="F F F"
Nd       0.00000000       0.00000000       0.00000000       0.00000000       0.00000000       0.79354066
Nd       0.00000000       0.00000000       3.47212121       0.00000000       0.00000000      -0.79354066
2
Properties=species:S:1:pos:R:3:forces:R:3 energy=-8.748552828925723 pbc="F F F"
Nd       0.00000000       0.00000000       0.00000000       0.00000000       0.00000000       0.81858796
Nd       0.00000000       0.00000000       3.53090909       0.00000000       0.00000000      -0.81858796
2
Properties=species:S:1:pos:R:3:forces:R:3 energy=-8.699717326477623 pbc="F F F"
Nd       0.00000000       0.00000000       0.00000000       0.00000000       0.00000000       0.84216553
Nd       0.00000000       0.00000000       3.58969697       0.00000000       0.00000000      -0.84216553
2
Properties=species:S:1:pos:R:3:forces:R:3 energy=-8.64966486391918 pbc="F F F"
Nd       0.00000000       0.00000000       0.00000000       0.00000000       0.00000000       0.85909939
Nd       0.00000000       0.00000000       3.64848485       0.00000000       0.00000000      -0.85909939
2
Properties=species:S:1:pos:R:3:forces:R:3 energy=-8.598930272455583 pbc="F F F"
Nd       0.00000000       0.00000000       0.00000000       0.00000000       0.00000000       0.86481655
Nd       0.00000000       0.00000000       3.70727273       0.00000000       0.00000000      -0.86481655
2
Properties=species:S:1:pos:R:3:forces:R:3 energy=-8.548232328393492 pbc="F F F"
Nd       0.00000000       0.00000000       0.00000000       0.00000000       0.00000000       0.85794735
Nd       0.00000000       0.00000000       3.76606061       0.00000000       0.00000000      -0.85794735
2
Properties=species:S:1:pos:R:3:forces:R:3 energy=-8.498250656707445 pbc="F F F"
Nd       0.00000000       0.00000000       0.00000000       0.00000000       0.00000000       0.84128642
Nd       0.00000000       0.00000000       3.82484848       0.00000000       0.00000000      -0.84128642
2
Properties=species:S:1:pos:R:3:forces:R:3 energy=-8.44939880723769 pbc="F F F"
Nd       0.00000000       0.00000000       0.00000000       0.00000000       0.00000000       0.82050216
Nd       0.00000000       0.00000000       3.88363636       0.00000000       0.00000000      -0.82050216
2
Properties=species:S:1:pos:R:3:forces:R:3 energy=-8.401743154359451 pbc="F F F"
Nd       0.00000000       0.00000000       0.00000000       0.00000000       0.00000000       0.80147266
Nd       0.00000000       0.00000000       3.94242424       0.00000000       0.00000000      -0.80147266
2
Properties=species:S:1:pos:R:3:forces:R:3 energy=-8.355058184750682 pbc="F F F"
Nd       0.00000000       0.00000000       0.00000000       0.00000000       0.00000000       0.78782111
Nd       0.00000000       0.00000000       4.00121212       0.00000000       0.00000000      -0.78782111
2
Properties=species:S:1:pos:R:3:forces:R:3 energy=-8.309001197190016 pbc="F F F"
Nd       0.00000000       0.00000000       0.00000000       0.00000000       0.00000000       0.77985770
Nd       0.00000000       0.00000000       4.06000000       0.00000000       0.00000000      -0.77985770
2
Properties=species:S:1:pos:R:3:forces:R:3 energy=-8.263303915066633 pbc="F F F"
Nd       0.00000000       0.00000000       0.00000000       0.00000000       0.00000000       0.77502298
Nd       0.00000000       0.00000000       4.11878788       0.00000000       0.00000000      -0.77502298
2
Properties=species:S:1:pos:R:3:forces:R:3 energy=-8.217895523038363 pbc="F F F"
Nd       0.00000000       0.00000000       0.00000000       0.00000000       0.00000000       0.76927269
Nd       0.00000000       0.00000000       4.17757576       0.00000000       0.00000000      -0.76927269
2
Properties=species:S:1:pos:R:3:forces:R:3 energy=-8.172950515474259 pbc="F F F"
Nd       0.00000000       0.00000000       0.00000000       0.00000000       0.00000000       0.75869429
Nd       0.00000000       0.00000000       4.23636364       0.00000000       0.00000000      -0.75869429
2
Properties=species:S:1:pos:R:3:forces:R:3 energy=-8.128834273662118 pbc="F F F"
Nd       0.00000000       0.00000000       0.00000000       0.00000000       0.00000000       0.74084538
Nd       0.00000000       0.00000000       4.29515152       0.00000000       0.00000000      -0.74084538
2
Properties=species:S:1:pos:R:3:forces:R:3 energy=-8.085993996812139 pbc="F F F"
Nd       0.00000000       0.00000000       0.00000000       0.00000000       0.00000000       0.71550775
Nd       0.00000000       0.00000000       4.35393939       0.00000000       0.00000000      -0.71550775
2
Properties=species:S:1:pos:R:3:forces:R:3 energy=-8.044816541227334 pbc="F F F"
Nd       0.00000000       0.00000000       0.00000000       0.00000000       0.00000000       0.68474871
Nd       0.00000000       0.00000000       4.41272727       0.00000000       0.00000000      -0.68474871
2
Properties=species:S:1:pos:R:3:forces:R:3 energy=-8.005514684305917 pbc="F F F"
Nd       0.00000000       0.00000000       0.00000000       0.00000000       0.00000000       0.65243202
Nd       0.00000000       0.00000000       4.47151515       0.00000000       0.00000000      -0.65243202
2
Properties=species:S:1:pos:R:3:forces:R:3 energy=-7.968044492328749 pbc="F F F"
Nd       0.00000000       0.00000000       0.00000000       0.00000000       0.00000000       0.62320995
Nd       0.00000000       0.00000000       4.53030303       0.00000000       0.00000000      -0.62320995
2
Properties=species:S:1:pos:R:3:forces:R:3 energy=-7.932097868462865 pbc="F F F"
Nd       0.00000000       0.00000000       0.00000000       0.00000000       0.00000000       0.60119808
Nd       0.00000000       0.00000000       4.58909091       0.00000000       0.00000000      -0.60119808
2
Properties=species:S:1:pos:R:3:forces:R:3 energy=-7.897172673166288 pbc="F F F"
Nd       0.00000000       0.00000000       0.00000000       0.00000000       0.00000000       0.58858520
Nd       0.00000000       0.00000000       4.64787879       0.00000000       0.00000000      -0.58858520
2
Properties=species:S:1:pos:R:3:forces:R:3 energy=-7.862723881567195 pbc="F F F"
Nd       0.00000000       0.00000000       0.00000000       0.00000000       0.00000000       0.58453679
Nd       0.00000000       0.00000000       4.70666667       0.00000000       0.00000000      -0.58453679
2
Properties=species:S:1:pos:R:3:forces:R:3 energy=-7.828355888222835 pbc="F F F"
Nd       0.00000000       0.00000000       0.00000000       0.00000000       0.00000000       0.58496875
Nd       0.00000000       0.00000000       4.76545455       0.00000000       0.00000000      -0.58496875
2
Properties=species:S:1:pos:R:3:forces:R:3 energy=-7.7939807663709075 pbc="F F F"
Nd       0.00000000       0.00000000       0.00000000       0.00000000       0.00000000       0.58353311
Nd       0.00000000       0.00000000       4.82424242       0.00000000       0.00000000      -0.58353311
2
Properties=species:S:1:pos:R:3:forces:R:3 energy=-7.759912293548742 pbc="F F F"
Nd       0.00000000       0.00000000       0.00000000       0.00000000       0.00000000       0.57382160
Nd       0.00000000       0.00000000       4.88303030       0.00000000       0.00000000      -0.57382160
2
Properties=species:S:1:pos:R:3:forces:R:3 energy=-7.726752439007073 pbc="F F F"
Nd       0.00000000       0.00000000       0.00000000       0.00000000       0.00000000       0.55213785
Nd       0.00000000       0.00000000       4.94181818       0.00000000       0.00000000      -0.55213785
2
Properties=species:S:1:pos:R:3:forces:R:3 energy=-7.695208258241288 pbc="F F F"
Nd       0.00000000       0.00000000       0.00000000       0.00000000       0.00000000       0.51962101
Nd       0.00000000       0.00000000       5.00060606       0.00000000       0.00000000      -0.51962101
2
Properties=species:S:1:pos:R:3:forces:R:3 energy=-7.665752963142254 pbc="F F F"
Nd       0.00000000       0.00000000       0.00000000       0.00000000       0.00000000       0.48224685
Nd       0.00000000       0.00000000       5.05939394       0.00000000       0.00000000      -0.48224685
2
Properties=species:S:1:pos:R:3:forces:R:3 energy=-7.638445576180208 pbc="F F F"
Nd       0.00000000       0.00000000       0.00000000       0.00000000       0.00000000       0.44788891
Nd       0.00000000       0.00000000       5.11818182       0.00000000       0.00000000      -0.44788891
2
Properties=species:S:1:pos:R:3:forces:R:3 energy=-7.612943252143138 pbc="F F F"
Nd       0.00000000       0.00000000       0.00000000       0.00000000       0.00000000       0.42088068
Nd       0.00000000       0.00000000       5.17696970       0.00000000       0.00000000      -0.42088068
2
Properties=species:S:1:pos:R:3:forces:R:3 energy=-7.588895278677992 pbc="F F F"
Nd       0.00000000       0.00000000       0.00000000       0.00000000       0.00000000       0.39690971
Nd       0.00000000       0.00000000       5.23575758       0.00000000       0.00000000      -0.39690971
2
Properties=species:S:1:pos:R:3:forces:R:3 energy=-7.56644156285416 pbc="F F F"
Nd       0.00000000       0.00000000       0.00000000       0.00000000       0.00000000       0.36486536
Nd       0.00000000       0.00000000       5.29454545       0.00000000       0.00000000      -0.36486536
2
Properties=species:S:1:pos:R:3:forces:R:3 energy=-7.546172741568941 pbc="F F F"
Nd       0.00000000       0.00000000       0.00000000       0.00000000       0.00000000       0.32509816
Nd       0.00000000       0.00000000       5.35333333       0.00000000       0.00000000      -0.32509816
2
Properties=species:S:1:pos:R:3:forces:R:3 energy=-7.5277418678255295 pbc="F F F"
Nd       0.00000000       0.00000000       0.00000000       0.00000000       0.00000000       0.30962855
Nd       0.00000000       0.00000000       5.41212121       0.00000000       0.00000000      -0.30962855
2
Properties=species:S:1:pos:R:3:forces:R:3 energy=-7.508800078517685 pbc="F F F"
Nd       0.00000000       0.00000000       0.00000000       0.00000000       0.00000000       0.34005293
Nd       0.00000000       0.00000000       5.47090909       0.00000000       0.00000000      -0.34005293
2
Properties=species:S:1:pos:R:3:forces:R:3 energy=-7.487878026342084 pbc="F F F"
Nd       0.00000000       0.00000000       0.00000000       0.00000000       0.00000000       0.36489773
Nd       0.00000000       0.00000000       5.52969697       0.00000000       0.00000000      -0.36489773
2
Properties=species:S:1:pos:R:3:forces:R:3 energy=-7.466850104539836 pbc="F F F"
Nd       0.00000000       0.00000000       0.00000000       0.00000000       0.00000000       0.34468845
Nd       0.00000000       0.00000000       5.58848485       0.00000000       0.00000000      -0.34468845
2
Properties=species:S:1:pos:R:3:forces:R:3 energy=-7.4473647108816365 pbc="F F F"
Nd       0.00000000       0.00000000       0.00000000       0.00000000       0.00000000       0.32517311
Nd       0.00000000       0.00000000       5.64727273       0.00000000       0.00000000      -0.32517311
2
Properties=species:S:1:pos:R:3:forces:R:3 energy=-7.427292135620852 pbc="F F F"
Nd       0.00000000       0.00000000       0.00000000       0.00000000       0.00000000       0.36949459
Nd       0.00000000       0.00000000       5.70606061       0.00000000       0.00000000      -0.36949459
2
Properties=species:S:1:pos:R:3:forces:R:3 energy=-7.4033567532919555 pbc="F F F"
Nd       0.00000000       0.00000000       0.00000000       0.00000000       0.00000000       0.43574798
Nd       0.00000000       0.00000000       5.76484848       0.00000000       0.00000000      -0.43574798
2
Properties=species:S:1:pos:R:3:forces:R:3 energy=-7.378219301287633 pbc="F F F"
Nd       0.00000000       0.00000000       0.00000000       0.00000000       0.00000000       0.39614049
Nd       0.00000000       0.00000000       5.82363636       0.00000000       0.00000000      -0.39614049
2
Properties=species:S:1:pos:R:3:forces:R:3 energy=-7.359078634919824 pbc="F F F"
Nd       0.00000000       0.00000000       0.00000000       0.00000000       0.00000000       0.24751496
Nd       0.00000000       0.00000000       5.88242424       0.00000000       0.00000000      -0.24751496
2
Properties=species:S:1:pos:R:3:forces:R:3 energy=-7.349048743634952 pbc="F F F"
Nd       0.00000000       0.00000000       0.00000000       0.00000000       0.00000000       0.10179411
Nd       0.00000000       0.00000000       5.94121212       0.00000000       0.00000000      -0.10179411
2
Properties=species:S:1:pos:R:3:forces:R:3 energy=-7.345314059781998 pbc="F F F"
Nd       0.00000000       0.00000000       0.00000000       0.00000000       0.00000000       0.04415693
Nd       0.00000000       0.00000000       6.00000000       0.00000000       0.00000000      -0.04415693
