2
Properties=species:S:1:pos:R:3:forces:R:3 energy=803.3561750152371 pbc="F F F"
Ne       0.00000000       0.00000000       0.00000000       0.00000000       0.00000000  -11240.26855469
Ne       0.00000000       0.00000000       0.18000000       0.00000000       0.00000000   11240.26855469
2
Properties=species:S:1:pos:R:3:forces:R:3 energy=378.43957955625274 pbc="F F F"
Ne       0.00000000       0.00000000       0.00000000       0.00000000       0.00000000   -4464.12109375
Ne       0.00000000       0.00000000       0.23878788       0.00000000       0.00000000    4464.12109375
2
Properties=species:S:1:pos:R:3:forces:R:3 energy=197.52119882053194 pbc="F F F"
Ne       0.00000000       0.00000000       0.00000000       0.00000000       0.00000000   -2060.20654297
Ne       0.00000000       0.00000000       0.29757576       0.00000000       0.00000000    2060.20654297
2
Properties=species:S:1:pos:R:3:forces:R:3 energy=109.90316446209472 pbc="F F F"
Ne       0.00000000       0.00000000       0.00000000       0.00000000       0.00000000   -1053.34497070
Ne       0.00000000       0.00000000       0.35636364       0.00000000       0.00000000    1053.34497070
2
Properties=species:S:1:pos:R:3:forces:R:3 energy=63.565258587809126 pbc="F F F"
Ne       0.00000000       0.00000000       0.00000000       0.00000000       0.00000000    -577.96191406
Ne       0.00000000       0.00000000       0.41515152       0.00000000       0.00000000     577.96191406
2
Properties=species:S:1:pos:R:3:forces:R:3 energy=37.54556332443766 pbc="F F F"
Ne       0.00000000       0.00000000       0.00000000       0.00000000       0.00000000    -332.53588867
Ne       0.00000000       0.00000000       0.47393939       0.00000000       0.00000000     332.53588867
2
Properties=species:S:1:pos:R:3:forces:R:3 energy=22.34933342459132 pbc="F F F"
Ne       0.00000000       0.00000000       0.00000000       0.00000000       0.00000000    -197.17483521
Ne       0.00000000       0.00000000       0.53272727       0.00000000       0.00000000     197.17483521
2
Properties=species:S:1:pos:R:3:forces:R:3 energy=13.259948452918088 pbc="F F F"
Ne       0.00000000       0.00000000       0.00000000       0.00000000       0.00000000    -118.90784454
Ne       0.00000000       0.00000000       0.59151515       0.00000000       0.00000000     118.90784454
2
Properties=species:S:1:pos:R:3:forces:R:3 energy=7.759874644132898 pbc="F F F"
Ne       0.00000000       0.00000000       0.00000000       0.00000000       0.00000000     -72.09621429
Ne       0.00000000       0.00000000       0.65030303       0.00000000       0.00000000      72.09621429
2
Properties=species:S:1:pos:R:3:forces:R:3 energy=4.429881554142188 pbc="F F F"
Ne       0.00000000       0.00000000       0.00000000       0.00000000       0.00000000     -43.49779892
Ne       0.00000000       0.00000000       0.70909091       0.00000000       0.00000000      43.49779892
2
Properties=species:S:1:pos:R:3:forces:R:3 energy=2.433191997656962 pbc="F F F"
Ne       0.00000000       0.00000000       0.00000000       0.00000000       0.00000000     -25.83611298
Ne       0.00000000       0.00000000       0.76787879       0.00000000       0.00000000      25.83611298
2
Properties=species:S:1:pos:R:3:forces:R:3 energy=1.2613942408608916 pbc="F F F"
Ne       0.00000000       0.00000000       0.00000000       0.00000000       0.00000000     -14.90240383
Ne       0.00000000       0.00000000       0.82666667       0.00000000       0.00000000      14.90240383
2
Properties=species:S:1:pos:R:3:forces:R:3 energy=0.5991222336117518 pbc="F F F"
Ne       0.00000000       0.00000000       0.00000000       0.00000000       0.00000000      -8.18035412
Ne       0.00000000       0.00000000       0.88545455       0.00000000       0.00000000       8.18035412
2
Properties=species:S:1:pos:R:3:forces:R:3 energy=0.2474783342419349 pbc="F F F"
Ne       0.00000000       0.00000000       0.00000000       0.00000000       0.00000000      -4.13565731
Ne       0.00000000       0.00000000       0.94424242       0.00000000       0.00000000       4.13565731
2
Properties=species:S:1:pos:R:3:forces:R:3 energy=0.0794334612501425 pbc="F F F"
Ne       0.00000000       0.00000000       0.00000000       0.00000000       0.00000000      -1.80845785
Ne       0.00000000       0.00000000       1.00303030       0.00000000       0.00000000       1.80845785
2
Properties=species:S:1:pos:R:3:forces:R:3 energy=0.01330474762194433 pbc="F F F"
Ne       0.00000000       0.00000000       0.00000000       0.00000000       0.00000000      -0.58749002
Ne       0.00000000       0.00000000       1.06181818       0.00000000       0.00000000       0.58749002
2
Properties=species:S:1:pos:R:3:forces:R:3 energy=-0.003459608527679703 pbc="F F F"
Ne       0.00000000       0.00000000       0.00000000       0.00000000       0.00000000      -0.07608224
Ne       0.00000000       0.00000000       1.12060606       0.00000000       0.00000000       0.07608224
2
Properties=species:S:1:pos:R:3:forces:R:3 energy=-0.00423962484119254 pbc="F F F"
Ne       0.00000000       0.00000000       0.00000000       0.00000000       0.00000000       0.00430835
Ne       0.00000000       0.00000000       1.17939394       0.00000000       0.00000000      -0.00430835
2
Properties=species:S:1:pos:R:3:forces:R:3 energy=-0.004030161591478136 pbc="F F F"
Ne       0.00000000       0.00000000       0.00000000       0.00000000       0.00000000       0.00228481
Ne       0.00000000       0.00000000       1.23818182       0.00000000       0.00000000      -0.00228481
2
Properties=species:S:1:pos:R:3:forces:R:3 energy=-0.004023065209897059 pbc="F F F"
Ne       0.00000000       0.00000000       0.00000000       0.00000000       0.00000000      -0.00239015
Ne       0.00000000       0.00000000       1.29696970       0.00000000       0.00000000       0.00239015
2
Properties=species:S:1:pos:R:3:forces:R:3 energy=-0.004340176881572927 pbc="F F F"
Ne       0.00000000       0.00000000       0.00000000       0.00000000       0.00000000      -0.00854552
Ne       0.00000000       0.00000000       1.35575758       0.00000000       0.00000000       0.00854552
2
Properties=species:S:1:pos:R:3:forces:R:3 energy=-0.0050340455891758834 pbc="F F F"
Ne       0.00000000       0.00000000       0.00000000       0.00000000       0.00000000      -0.01502537
Ne       0.00000000       0.00000000       1.41454545       0.00000000       0.00000000       0.01502537
2
Properties=species:S:1:pos:R:3:forces:R:3 energy=-0.0060939871803493435 pbc="F F F"
Ne       0.00000000       0.00000000       0.00000000       0.00000000       0.00000000      -0.02086187
Ne       0.00000000       0.00000000       1.47333333       0.00000000       0.00000000       0.02086187
2
Properties=species:S:1:pos:R:3:forces:R:3 energy=-0.007461257871073407 pbc="F F F"
Ne       0.00000000       0.00000000       0.00000000       0.00000000       0.00000000      -0.02540339
Ne       0.00000000       0.00000000       1.53212121       0.00000000       0.00000000       0.02540339
2
Properties=species:S:1:pos:R:3:forces:R:3 energy=-0.009049707416569904 pbc="F F F"
Ne       0.00000000       0.00000000       0.00000000       0.00000000       0.00000000      -0.02836932
Ne       0.00000000       0.00000000       1.59090909       0.00000000       0.00000000       0.02836932
2
Properties=species:S:1:pos:R:3:forces:R:3 energy=-0.010766827397466483 pbc="F F F"
Ne       0.00000000       0.00000000       0.00000000       0.00000000       0.00000000      -0.02981219
Ne       0.00000000       0.00000000       1.64969697       0.00000000       0.00000000       0.02981219
2
Properties=species:S:1:pos:R:3:forces:R:3 energy=-0.012530201031064996 pbc="F F F"
Ne       0.00000000       0.00000000       0.00000000       0.00000000       0.00000000      -0.02999651
Ne       0.00000000       0.00000000       1.70848485       0.00000000       0.00000000       0.02999651
2
Properties=species:S:1:pos:R:3:forces:R:3 energy=-0.014275441368989759 pbc="F F F"
Ne       0.00000000       0.00000000       0.00000000       0.00000000       0.00000000      -0.02924777
Ne       0.00000000       0.00000000       1.76727273       0.00000000       0.00000000       0.02924777
2
Properties=species:S:1:pos:R:3:forces:R:3 energy=-0.015956369832387803 pbc="F F F"
Ne       0.00000000       0.00000000       0.00000000       0.00000000       0.00000000      -0.02785036
Ne       0.00000000       0.00000000       1.82606061       0.00000000       0.00000000       0.02785036
2
Properties=species:S:1:pos:R:3:forces:R:3 energy=-0.017541552997128302 pbc="F F F"
Ne       0.00000000       0.00000000       0.00000000       0.00000000       0.00000000      -0.02602272
Ne       0.00000000       0.00000000       1.88484848       0.00000000       0.00000000       0.02602272
2
Properties=species:S:1:pos:R:3:forces:R:3 energy=-0.019010887389674765 pbc="F F F"
Ne       0.00000000       0.00000000       0.00000000       0.00000000       0.00000000      -0.02393333
Ne       0.00000000       0.00000000       1.94363636       0.00000000       0.00000000       0.02393333
2
Properties=species:S:1:pos:R:3:forces:R:3 energy=-0.02035305588364339 pbc="F F F"
Ne       0.00000000       0.00000000       0.00000000       0.00000000       0.00000000      -0.02171553
Ne       0.00000000       0.00000000       2.00242424       0.00000000       0.00000000       0.02171553
2
Properties=species:S:1:pos:R:3:forces:R:3 energy=-0.021563607898872655 pbc="F F F"
Ne       0.00000000       0.00000000       0.00000000       0.00000000       0.00000000      -0.01947123
Ne       0.00000000       0.00000000       2.06121212       0.00000000       0.00000000       0.01947123
2
Properties=species:S:1:pos:R:3:forces:R:3 energy=-0.022643301045525692 pbc="F F F"
Ne       0.00000000       0.00000000       0.00000000       0.00000000       0.00000000      -0.01727228
Ne       0.00000000       0.00000000       2.12000000       0.00000000       0.00000000       0.01727228
2
Properties=species:S:1:pos:R:3:forces:R:3 energy=-0.023596243721772353 pbc="F F F"
Ne       0.00000000       0.00000000       0.00000000       0.00000000       0.00000000      -0.01516549
Ne       0.00000000       0.00000000       2.17878788       0.00000000       0.00000000       0.01516549
2
Properties=species:S:1:pos:R:3:forces:R:3 energy=-0.024428754506873058 pbc="F F F"
Ne       0.00000000       0.00000000       0.00000000       0.00000000       0.00000000      -0.01317889
Ne       0.00000000       0.00000000       2.23757576       0.00000000       0.00000000       0.01317889
2
Properties=species:S:1:pos:R:3:forces:R:3 energy=-0.025148396430542536 pbc="F F F"
Ne       0.00000000       0.00000000       0.00000000       0.00000000       0.00000000      -0.01132742
Ne       0.00000000       0.00000000       2.29636364       0.00000000       0.00000000       0.01132742
2
Properties=species:S:1:pos:R:3:forces:R:3 energy=-0.025763351343170718 pbc="F F F"
Ne       0.00000000       0.00000000       0.00000000       0.00000000       0.00000000      -0.00961701
Ne       0.00000000       0.00000000       2.35515152       0.00000000       0.00000000       0.00961701
2
Properties=species:S:1:pos:R:3:forces:R:3 energy=-0.026281905062556333 pbc="F F F"
Ne       0.00000000       0.00000000       0.00000000       0.00000000       0.00000000      -0.00804764
Ne       0.00000000       0.00000000       2.41393939       0.00000000       0.00000000       0.00804764
2
Properties=species:S:1:pos:R:3:forces:R:3 energy=-0.026712241396754488 pbc="F F F"
Ne       0.00000000       0.00000000       0.00000000       0.00000000       0.00000000      -0.00661529
Ne       0.00000000       0.00000000       2.47272727       0.00000000       0.00000000       0.00661529
2
Properties=species:S:1:pos:R:3:forces:R:3 energy=-0.027062256934754995 pbc="F F F"
Ne       0.00000000       0.00000000       0.00000000       0.00000000       0.00000000      -0.00531351
Ne       0.00000000       0.00000000       2.53151515       0.00000000       0.00000000       0.00531351
2
Properties=species:S:1:pos:R:3:forces:R:3 energy=-0.02733939089981228 pbc="F F F"
Ne       0.00000000       0.00000000       0.00000000       0.00000000       0.00000000      -0.00413465
Ne       0.00000000       0.00000000       2.59030303       0.00000000       0.00000000       0.00413465
2
Properties=species:S:1:pos:R:3:forces:R:3 energy=-0.02755063905291392 pbc="F F F"
Ne       0.00000000       0.00000000       0.00000000       0.00000000       0.00000000      -0.00307048
Ne       0.00000000       0.00000000       2.64909091       0.00000000       0.00000000       0.00307048
2
Properties=species:S:1:pos:R:3:forces:R:3 energy=-0.027702498238154315 pbc="F F F"
Ne       0.00000000       0.00000000       0.00000000       0.00000000       0.00000000      -0.00211280
Ne       0.00000000       0.00000000       2.70787879       0.00000000       0.00000000       0.00211280
2
Properties=species:S:1:pos:R:3:forces:R:3 energy=-0.02780098818475646 pbc="F F F"
Ne       0.00000000       0.00000000       0.00000000       0.00000000       0.00000000      -0.00125375
Ne       0.00000000       0.00000000       2.76666667       0.00000000       0.00000000       0.00125375
2
Properties=species:S:1:pos:R:3:forces:R:3 energy=-0.027851700691302883 pbc="F F F"
Ne       0.00000000       0.00000000       0.00000000       0.00000000       0.00000000      -0.00048614
Ne       0.00000000       0.00000000       2.82545455       0.00000000       0.00000000       0.00048614
2
Properties=species:S:1:pos:R:3:forces:R:3 energy=-0.027859813427456925 pbc="F F F"
Ne       0.00000000       0.00000000       0.00000000       0.00000000       0.00000000       0.00019630
Ne       0.00000000       0.00000000       2.88424242       0.00000000       0.00000000      -0.00019630
2
Properties=species:S:1:pos:R:3:forces:R:3 energy=-0.027830189982577174 pbc="F F F"
Ne       0.00000000       0.00000000       0.00000000       0.00000000       0.00000000       0.00079864
Ne       0.00000000       0.00000000       2.94303030       0.00000000       0.00000000      -0.00079864
2
Properties=species:S:1:pos:R:3:forces:R:3 energy=-0.027767412778361398 pbc="F F F"
Ne       0.00000000       0.00000000       0.00000000       0.00000000       0.00000000       0.00132451
Ne       0.00000000       0.00000000       3.00181818       0.00000000       0.00000000      -0.00132451
2
Properties=species:S:1:pos:R:3:forces:R:3 energy=-0.02767590781631908 pbc="F F F"
Ne       0.00000000       0.00000000       0.00000000       0.00000000       0.00000000       0.00177622
Ne       0.00000000       0.00000000       3.06060606       0.00000000       0.00000000      -0.00177622
2
Properties=species:S:1:pos:R:3:forces:R:3 energy=-0.027560002568007506 pbc="F F F"
Ne       0.00000000       0.00000000       0.00000000       0.00000000       0.00000000       0.00215483
Ne       0.00000000       0.00000000       3.11939394       0.00000000       0.00000000      -0.00215483
2
Properties=species:S:1:pos:R:3:forces:R:3 energy=-0.0274239826330878 pbc="F F F"
Ne       0.00000000       0.00000000       0.00000000       0.00000000       0.00000000       0.00246053
Ne       0.00000000       0.00000000       3.17818182       0.00000000       0.00000000      -0.00246053
2
Properties=species:S:1:pos:R:3:forces:R:3 energy=-0.02727213631231091 pbc="F F F"
Ne       0.00000000       0.00000000       0.00000000       0.00000000       0.00000000       0.00269325
Ne       0.00000000       0.00000000       3.23696970       0.00000000       0.00000000      -0.00269325
2
Properties=species:S:1:pos:R:3:forces:R:3 energy=-0.027108746549716387 pbc="F F F"
Ne       0.00000000       0.00000000       0.00000000       0.00000000       0.00000000       0.00285325
Ne       0.00000000       0.00000000       3.29575758       0.00000000       0.00000000      -0.00285325
2
Properties=species:S:1:pos:R:3:forces:R:3 energy=-0.026938064232883342 pbc="F F F"
Ne       0.00000000       0.00000000       0.00000000       0.00000000       0.00000000       0.00294173
Ne       0.00000000       0.00000000       3.35454545       0.00000000       0.00000000      -0.00294173
2
Properties=species:S:1:pos:R:3:forces:R:3 energy=-0.026764221338816643 pbc="F F F"
Ne       0.00000000       0.00000000       0.00000000       0.00000000       0.00000000       0.00296133
Ne       0.00000000       0.00000000       3.41333333       0.00000000       0.00000000      -0.00296133
2
Properties=species:S:1:pos:R:3:forces:R:3 energy=-0.0265911483470952 pbc="F F F"
Ne       0.00000000       0.00000000       0.00000000       0.00000000       0.00000000       0.00291643
Ne       0.00000000       0.00000000       3.47212121       0.00000000       0.00000000      -0.00291643
2
Properties=species:S:1:pos:R:3:forces:R:3 energy=-0.026422462363919305 pbc="F F F"
Ne       0.00000000       0.00000000       0.00000000       0.00000000       0.00000000       0.00281333
Ne       0.00000000       0.00000000       3.53090909       0.00000000       0.00000000      -0.00281333
2
Properties=species:S:1:pos:R:3:forces:R:3 energy=-0.026261349155502153 pbc="F F F"
Ne       0.00000000       0.00000000       0.00000000       0.00000000       0.00000000       0.00266033
Ne       0.00000000       0.00000000       3.58969697       0.00000000       0.00000000      -0.00266033
2
Properties=species:S:1:pos:R:3:forces:R:3 energy=-0.026110451246119753 pbc="F F F"
Ne       0.00000000       0.00000000       0.00000000       0.00000000       0.00000000       0.00246761
Ne       0.00000000       0.00000000       3.64848485       0.00000000       0.00000000      -0.00246761
2
Properties=species:S:1:pos:R:3:forces:R:3 energy=-0.025971765358136903 pbc="F F F"
Ne       0.00000000       0.00000000       0.00000000       0.00000000       0.00000000       0.00224698
Ne       0.00000000       0.00000000       3.70727273       0.00000000       0.00000000      -0.00224698
2
Properties=species:S:1:pos:R:3:forces:R:3 energy=-0.02584655404973221 pbc="F F F"
Ne       0.00000000       0.00000000       0.00000000       0.00000000       0.00000000       0.00201145
Ne       0.00000000       0.00000000       3.76606061       0.00000000       0.00000000      -0.00201145
2
Properties=species:S:1:pos:R:3:forces:R:3 energy=-0.025735297468616698 pbc="F F F"
Ne       0.00000000       0.00000000       0.00000000       0.00000000       0.00000000       0.00177445
Ne       0.00000000       0.00000000       3.82484848       0.00000000       0.00000000      -0.00177445
2
Properties=species:S:1:pos:R:3:forces:R:3 energy=-0.025637696116130034 pbc="F F F"
Ne       0.00000000       0.00000000       0.00000000       0.00000000       0.00000000       0.00154888
Ne       0.00000000       0.00000000       3.88363636       0.00000000       0.00000000      -0.00154888
2
Properties=species:S:1:pos:R:3:forces:R:3 energy=-0.025552743816134968 pbc="F F F"
Ne       0.00000000       0.00000000       0.00000000       0.00000000       0.00000000       0.00134579
Ne       0.00000000       0.00000000       3.94242424       0.00000000       0.00000000      -0.00134579
2
Properties=species:S:1:pos:R:3:forces:R:3 energy=-0.02547886359961985 pbc="F F F"
Ne       0.00000000       0.00000000       0.00000000       0.00000000       0.00000000       0.00117323
Ne       0.00000000       0.00000000       4.00121212       0.00000000       0.00000000      -0.00117323
2
Properties=species:S:1:pos:R:3:forces:R:3 energy=-0.025414118738571002 pbc="F F F"
Ne       0.00000000       0.00000000       0.00000000       0.00000000       0.00000000       0.00103526
Ne       0.00000000       0.00000000       4.06000000       0.00000000       0.00000000      -0.00103526
2
Properties=species:S:1:pos:R:3:forces:R:3 energy=-0.02535646832958645 pbc="F F F"
Ne       0.00000000       0.00000000       0.00000000       0.00000000       0.00000000       0.00093153
Ne       0.00000000       0.00000000       4.11878788       0.00000000       0.00000000      -0.00093153
2
Properties=species:S:1:pos:R:3:forces:R:3 energy=-0.025304006051187385 pbc="F F F"
Ne       0.00000000       0.00000000       0.00000000       0.00000000       0.00000000       0.00085771
Ne       0.00000000       0.00000000       4.17757576       0.00000000       0.00000000      -0.00085771
2
Properties=species:S:1:pos:R:3:forces:R:3 energy=-0.02525517897125191 pbc="F F F"
Ne       0.00000000       0.00000000       0.00000000       0.00000000       0.00000000       0.00080648
Ne       0.00000000       0.00000000       4.23636364       0.00000000       0.00000000      -0.00080648
2
Properties=species:S:1:pos:R:3:forces:R:3 energy=-0.02520890969488984 pbc="F F F"
Ne       0.00000000       0.00000000       0.00000000       0.00000000       0.00000000       0.00076922
Ne       0.00000000       0.00000000       4.29515152       0.00000000       0.00000000      -0.00076922
2
Properties=species:S:1:pos:R:3:forces:R:3 energy=-0.02516462645074975 pbc="F F F"
Ne       0.00000000       0.00000000       0.00000000       0.00000000       0.00000000       0.00073765
Ne       0.00000000       0.00000000       4.35393939       0.00000000       0.00000000      -0.00073765
2
Properties=species:S:1:pos:R:3:forces:R:3 energy=-0.025122195014601157 pbc="F F F"
Ne       0.00000000       0.00000000       0.00000000       0.00000000       0.00000000       0.00070537
Ne       0.00000000       0.00000000       4.41272727       0.00000000       0.00000000      -0.00070537
2
Properties=species:S:1:pos:R:3:forces:R:3 energy=-0.02508177969091074 pbc="F F F"
Ne       0.00000000       0.00000000       0.00000000       0.00000000       0.00000000       0.00066873
Ne       0.00000000       0.00000000       4.47151515       0.00000000       0.00000000      -0.00066873
2
Properties=species:S:1:pos:R:3:forces:R:3 energy=-0.02504366909689904 pbc="F F F"
Ne       0.00000000       0.00000000       0.00000000       0.00000000       0.00000000       0.00062709
Ne       0.00000000       0.00000000       4.53030303       0.00000000       0.00000000      -0.00062709
2
Properties=species:S:1:pos:R:3:forces:R:3 energy=-0.025008104421458188 pbc="F F F"
Ne       0.00000000       0.00000000       0.00000000       0.00000000       0.00000000       0.00058264
Ne       0.00000000       0.00000000       4.58909091       0.00000000       0.00000000      -0.00058264
2
Properties=species:S:1:pos:R:3:forces:R:3 energy=-0.02497513917579695 pbc="F F F"
Ne       0.00000000       0.00000000       0.00000000       0.00000000       0.00000000       0.00053953
Ne       0.00000000       0.00000000       4.64787879       0.00000000       0.00000000      -0.00053953
2
Properties=species:S:1:pos:R:3:forces:R:3 energy=-0.024944544229786064 pbc="F F F"
Ne       0.00000000       0.00000000       0.00000000       0.00000000       0.00000000       0.00050286
Ne       0.00000000       0.00000000       4.70666667       0.00000000       0.00000000      -0.00050286
2
Properties=species:S:1:pos:R:3:forces:R:3 energy=-0.02491579601087274 pbc="F F F"
Ne       0.00000000       0.00000000       0.00000000       0.00000000       0.00000000       0.00047730
Ne       0.00000000       0.00000000       4.76545455       0.00000000       0.00000000      -0.00047730
2
Properties=species:S:1:pos:R:3:forces:R:3 energy=-0.024888148281040096 pbc="F F F"
Ne       0.00000000       0.00000000       0.00000000       0.00000000       0.00000000       0.00046576
Ne       0.00000000       0.00000000       4.82424242       0.00000000       0.00000000      -0.00046576
2
Properties=species:S:1:pos:R:3:forces:R:3 energy=-0.024860755096135626 pbc="F F F"
Ne       0.00000000       0.00000000       0.00000000       0.00000000       0.00000000       0.00046836
Ne       0.00000000       0.00000000       4.88303030       0.00000000       0.00000000      -0.00046836
2
Properties=species:S:1:pos:R:3:forces:R:3 energy=-0.024832860876421618 pbc="F F F"
Ne       0.00000000       0.00000000       0.00000000       0.00000000       0.00000000       0.00048212
Ne       0.00000000       0.00000000       4.94181818       0.00000000       0.00000000      -0.00048212
2
Properties=species:S:1:pos:R:3:forces:R:3 energy=-0.02480395540210029 pbc="F F F"
Ne       0.00000000       0.00000000       0.00000000       0.00000000       0.00000000       0.00050168
Ne       0.00000000       0.00000000       5.00060606       0.00000000       0.00000000      -0.00050168
2
Properties=species:S:1:pos:R:3:forces:R:3 energy=-0.024773881549749143 pbc="F F F"
Ne       0.00000000       0.00000000       0.00000000       0.00000000       0.00000000       0.00052086
Ne       0.00000000       0.00000000       5.05939394       0.00000000       0.00000000      -0.00052086
2
Properties=species:S:1:pos:R:3:forces:R:3 energy=-0.024742822309801474 pbc="F F F"
Ne       0.00000000       0.00000000       0.00000000       0.00000000       0.00000000       0.00053468
Ne       0.00000000       0.00000000       5.11818182       0.00000000       0.00000000      -0.00053468
2
Properties=species:S:1:pos:R:3:forces:R:3 energy=-0.024711164912444947 pbc="F F F"
Ne       0.00000000       0.00000000       0.00000000       0.00000000       0.00000000       0.00054107
Ne       0.00000000       0.00000000       5.17696970       0.00000000       0.00000000      -0.00054107
2
Properties=species:S:1:pos:R:3:forces:R:3 energy=-0.024679331005181052 pbc="F F F"
Ne       0.00000000       0.00000000       0.00000000       0.00000000       0.00000000       0.00054119
Ne       0.00000000       0.00000000       5.23575758       0.00000000       0.00000000      -0.00054119
2
Properties=species:S:1:pos:R:3:forces:R:3 energy=-0.02464759631685125 pbc="F F F"
Ne       0.00000000       0.00000000       0.00000000       0.00000000       0.00000000       0.00053810
Ne       0.00000000       0.00000000       5.29454545       0.00000000       0.00000000      -0.00053810
2
Properties=species:S:1:pos:R:3:forces:R:3 energy=-0.02461608362778275 pbc="F F F"
Ne       0.00000000       0.00000000       0.00000000       0.00000000       0.00000000       0.00053374
Ne       0.00000000       0.00000000       5.35333333       0.00000000       0.00000000      -0.00053374
2
Properties=species:S:1:pos:R:3:forces:R:3 energy=-0.024584916280397027 pbc="F F F"
Ne       0.00000000       0.00000000       0.00000000       0.00000000       0.00000000       0.00052551
Ne       0.00000000       0.00000000       5.41212121       0.00000000       0.00000000      -0.00052551
2
Properties=species:S:1:pos:R:3:forces:R:3 energy=-0.024554498869409313 pbc="F F F"
Ne       0.00000000       0.00000000       0.00000000       0.00000000       0.00000000       0.00050704
Ne       0.00000000       0.00000000       5.47090909       0.00000000       0.00000000      -0.00050704
2
Properties=species:S:1:pos:R:3:forces:R:3 energy=-0.02452556928452404 pbc="F F F"
Ne       0.00000000       0.00000000       0.00000000       0.00000000       0.00000000       0.00047477
Ne       0.00000000       0.00000000       5.52969697       0.00000000       0.00000000      -0.00047477
2
Properties=species:S:1:pos:R:3:forces:R:3 energy=-0.02449894482147649 pbc="F F F"
Ne       0.00000000       0.00000000       0.00000000       0.00000000       0.00000000       0.00042885
Ne       0.00000000       0.00000000       5.58848485       0.00000000       0.00000000      -0.00042885
2
Properties=species:S:1:pos:R:3:forces:R:3 energy=-0.02447538570159039 pbc="F F F"
Ne       0.00000000       0.00000000       0.00000000       0.00000000       0.00000000       0.00037139
Ne       0.00000000       0.00000000       5.64727273       0.00000000       0.00000000      -0.00037139
2
Properties=species:S:1:pos:R:3:forces:R:3 energy=-0.024455441988395128 pbc="F F F"
Ne       0.00000000       0.00000000       0.00000000       0.00000000       0.00000000       0.00030590
Ne       0.00000000       0.00000000       5.70606061       0.00000000       0.00000000      -0.00030590
2
Properties=species:S:1:pos:R:3:forces:R:3 energy=-0.024439462739985526 pbc="F F F"
Ne       0.00000000       0.00000000       0.00000000       0.00000000       0.00000000       0.00023736
Ne       0.00000000       0.00000000       5.76484848       0.00000000       0.00000000      -0.00023736
2
Properties=species:S:1:pos:R:3:forces:R:3 energy=-0.02442737392114841 pbc="F F F"
Ne       0.00000000       0.00000000       0.00000000       0.00000000       0.00000000       0.00017616
Ne       0.00000000       0.00000000       5.82363636       0.00000000       0.00000000      -0.00017616
2
Properties=species:S:1:pos:R:3:forces:R:3 energy=-0.024418459960346466 pbc="F F F"
Ne       0.00000000       0.00000000       0.00000000       0.00000000       0.00000000       0.00013020
Ne       0.00000000       0.00000000       5.88242424       0.00000000       0.00000000      -0.00013020
2
Properties=species:S:1:pos:R:3:forces:R:3 energy=-0.02441175324054332 pbc="F F F"
Ne       0.00000000       0.00000000       0.00000000       0.00000000       0.00000000       0.00010039
Ne       0.00000000       0.00000000       5.94121212       0.00000000       0.00000000      -0.00010039
2
Properties=species:S:1:pos:R:3:forces:R:3 energy=-0.024406344498918132 pbc="F F F"
Ne       0.00000000       0.00000000       0.00000000       0.00000000       0.00000000       0.00008638
Ne       0.00000000       0.00000000       6.00000000       0.00000000       0.00000000      -0.00008638
