2
Properties=species:S:1:pos:R:3:forces:R:3 energy=4001.0746778999937 pbc="F F F"
Ni       0.00000000       0.00000000       0.00000000       0.00000000       0.00000000  -59126.03515625
Ni       0.00000000       0.00000000       0.18000000       0.00000000       0.00000000   59126.03515625
2
Properties=species:S:1:pos:R:3:forces:R:3 energy=1852.7217726265562 pbc="F F F"
Ni       0.00000000       0.00000000       0.00000000       0.00000000       0.00000000  -21460.03320312
Ni       0.00000000       0.00000000       0.23878788       0.00000000       0.00000000   21460.03320312
2
Properties=species:S:1:pos:R:3:forces:R:3 energy=1011.5676588570251 pbc="F F F"
Ni       0.00000000       0.00000000       0.00000000       0.00000000       0.00000000   -9184.71093750
Ni       0.00000000       0.00000000       0.29757576       0.00000000       0.00000000    9184.71093750
2
Properties=species:S:1:pos:R:3:forces:R:3 energy=632.6440748758179 pbc="F F F"
Ni       0.00000000       0.00000000       0.00000000       0.00000000       0.00000000   -4391.85839844
Ni       0.00000000       0.00000000       0.35636364       0.00000000       0.00000000    4391.85839844
2
Properties=species:S:1:pos:R:3:forces:R:3 energy=444.0644850384035 pbc="F F F"
Ni       0.00000000       0.00000000       0.00000000       0.00000000       0.00000000   -2295.11108398
Ni       0.00000000       0.00000000       0.41515152       0.00000000       0.00000000    2295.11108398
2
Properties=species:S:1:pos:R:3:forces:R:3 energy=341.39010761283635 pbc="F F F"
Ni       0.00000000       0.00000000       0.00000000       0.00000000       0.00000000   -1318.37463379
Ni       0.00000000       0.00000000       0.47393939       0.00000000       0.00000000    1318.37463379
2
Properties=species:S:1:pos:R:3:forces:R:3 energy=279.16473532689366 pbc="F F F"
Ni       0.00000000       0.00000000       0.00000000       0.00000000       0.00000000    -856.53192139
Ni       0.00000000       0.00000000       0.53272727       0.00000000       0.00000000     856.53192139
2
Properties=species:S:1:pos:R:3:forces:R:3 energy=235.80493312831723 pbc="F F F"
Ni       0.00000000       0.00000000       0.00000000       0.00000000       0.00000000    -647.66601562
Ni       0.00000000       0.00000000       0.59151515       0.00000000       0.00000000     647.66601562
2
Properties=species:S:1:pos:R:3:forces:R:3 energy=200.5922562118953 pbc="F F F"
Ni       0.00000000       0.00000000       0.00000000       0.00000000       0.00000000    -564.25427246
Ni       0.00000000       0.00000000       0.65030303       0.00000000       0.00000000     564.25427246
2
Properties=species:S:1:pos:R:3:forces:R:3 energy=168.25174120505727 pbc="F F F"
Ni       0.00000000       0.00000000       0.00000000       0.00000000       0.00000000    -542.94470215
Ni       0.00000000       0.00000000       0.70909091       0.00000000       0.00000000     542.94470215
2
Properties=species:S:1:pos:R:3:forces:R:3 energy=137.4391345899388 pbc="F F F"
Ni       0.00000000       0.00000000       0.00000000       0.00000000       0.00000000    -493.24194336
Ni       0.00000000       0.00000000       0.76787879       0.00000000       0.00000000     493.24194336
2
Properties=species:S:1:pos:R:3:forces:R:3 energy=110.02718572366359 pbc="F F F"
Ni       0.00000000       0.00000000       0.00000000       0.00000000       0.00000000    -451.91326904
Ni       0.00000000       0.00000000       0.82666667       0.00000000       0.00000000     451.91326904
2
Properties=species:S:1:pos:R:3:forces:R:3 energy=84.00438950462109 pbc="F F F"
Ni       0.00000000       0.00000000       0.00000000       0.00000000       0.00000000    -416.93258667
Ni       0.00000000       0.00000000       0.88545455       0.00000000       0.00000000     416.93258667
2
Properties=species:S:1:pos:R:3:forces:R:3 energy=61.88043531455115 pbc="F F F"
Ni       0.00000000       0.00000000       0.00000000       0.00000000       0.00000000    -335.74951172
Ni       0.00000000       0.00000000       0.94424242       0.00000000       0.00000000     335.74951172
2
Properties=species:S:1:pos:R:3:forces:R:3 energy=44.35548036649843 pbc="F F F"
Ni       0.00000000       0.00000000       0.00000000       0.00000000       0.00000000    -258.36511230
Ni       0.00000000       0.00000000       1.00303030       0.00000000       0.00000000     258.36511230
2
Properties=species:S:1:pos:R:3:forces:R:3 energy=32.09089404438203 pbc="F F F"
Ni       0.00000000       0.00000000       0.00000000       0.00000000       0.00000000    -158.98284912
Ni       0.00000000       0.00000000       1.06181818       0.00000000       0.00000000     158.98284912
2
Properties=species:S:1:pos:R:3:forces:R:3 energy=24.670485319987648 pbc="F F F"
Ni       0.00000000       0.00000000       0.00000000       0.00000000       0.00000000    -104.07308197
Ni       0.00000000       0.00000000       1.12060606       0.00000000       0.00000000     104.07308197
2
Properties=species:S:1:pos:R:3:forces:R:3 energy=19.096955097181816 pbc="F F F"
Ni       0.00000000       0.00000000       0.00000000       0.00000000       0.00000000     -88.22666931
Ni       0.00000000       0.00000000       1.17939394       0.00000000       0.00000000      88.22666931
2
Properties=species:S:1:pos:R:3:forces:R:3 energy=14.202202163437047 pbc="F F F"
Ni       0.00000000       0.00000000       0.00000000       0.00000000       0.00000000     -77.90512085
Ni       0.00000000       0.00000000       1.23818182       0.00000000       0.00000000      77.90512085
2
Properties=species:S:1:pos:R:3:forces:R:3 energy=10.025642949134149 pbc="F F F"
Ni       0.00000000       0.00000000       0.00000000       0.00000000       0.00000000     -63.62115479
Ni       0.00000000       0.00000000       1.29696970       0.00000000       0.00000000      63.62115479
2
Properties=species:S:1:pos:R:3:forces:R:3 energy=6.721125303893379 pbc="F F F"
Ni       0.00000000       0.00000000       0.00000000       0.00000000       0.00000000     -49.28810120
Ni       0.00000000       0.00000000       1.35575758       0.00000000       0.00000000      49.28810120
2
Properties=species:S:1:pos:R:3:forces:R:3 energy=4.157450461867515 pbc="F F F"
Ni       0.00000000       0.00000000       0.00000000       0.00000000       0.00000000     -38.49061966
Ni       0.00000000       0.00000000       1.41454545       0.00000000       0.00000000      38.49061966
2
Properties=species:S:1:pos:R:3:forces:R:3 energy=2.1481396743689807 pbc="F F F"
Ni       0.00000000       0.00000000       0.00000000       0.00000000       0.00000000     -30.15131569
Ni       0.00000000       0.00000000       1.47333333       0.00000000       0.00000000      30.15131569
2
Properties=species:S:1:pos:R:3:forces:R:3 energy=0.5825279174869257 pbc="F F F"
Ni       0.00000000       0.00000000       0.00000000       0.00000000       0.00000000     -23.37008095
Ni       0.00000000       0.00000000       1.53212121       0.00000000       0.00000000      23.37008095
2
Properties=species:S:1:pos:R:3:forces:R:3 energy=-0.6304886989237458 pbc="F F F"
Ni       0.00000000       0.00000000       0.00000000       0.00000000       0.00000000     -18.14686394
Ni       0.00000000       0.00000000       1.59090909       0.00000000       0.00000000      18.14686394
2
Properties=species:S:1:pos:R:3:forces:R:3 energy=-1.576335682059958 pbc="F F F"
Ni       0.00000000       0.00000000       0.00000000       0.00000000       0.00000000     -14.20511532
Ni       0.00000000       0.00000000       1.64969697       0.00000000       0.00000000      14.20511532
2
Properties=species:S:1:pos:R:3:forces:R:3 energy=-2.3164391587318685 pbc="F F F"
Ni       0.00000000       0.00000000       0.00000000       0.00000000       0.00000000     -11.07489681
Ni       0.00000000       0.00000000       1.70848485       0.00000000       0.00000000      11.07489681
2
Properties=species:S:1:pos:R:3:forces:R:3 energy=-2.8878173262968283 pbc="F F F"
Ni       0.00000000       0.00000000       0.00000000       0.00000000       0.00000000      -8.42779350
Ni       0.00000000       0.00000000       1.76727273       0.00000000       0.00000000       8.42779350
2
Properties=species:S:1:pos:R:3:forces:R:3 energy=-3.3138993810318946 pbc="F F F"
Ni       0.00000000       0.00000000       0.00000000       0.00000000       0.00000000      -6.11824799
Ni       0.00000000       0.00000000       1.82606061       0.00000000       0.00000000       6.11824799
2
Properties=species:S:1:pos:R:3:forces:R:3 energy=-3.612834440406139 pbc="F F F"
Ni       0.00000000       0.00000000       0.00000000       0.00000000       0.00000000      -4.09874105
Ni       0.00000000       0.00000000       1.88484848       0.00000000       0.00000000       4.09874105
2
Properties=species:S:1:pos:R:3:forces:R:3 energy=-3.8013855162366648 pbc="F F F"
Ni       0.00000000       0.00000000       0.00000000       0.00000000       0.00000000      -2.36446333
Ni       0.00000000       0.00000000       1.94363636       0.00000000       0.00000000       2.36446333
2
Properties=species:S:1:pos:R:3:forces:R:3 energy=-3.896782799902315 pbc="F F F"
Ni       0.00000000       0.00000000       0.00000000       0.00000000       0.00000000      -0.93379575
Ni       0.00000000       0.00000000       2.00242424       0.00000000       0.00000000       0.93379575
2
Properties=species:S:1:pos:R:3:forces:R:3 energy=-3.9175774890994997 pbc="F F F"
Ni       0.00000000       0.00000000       0.00000000       0.00000000       0.00000000       0.17117058
Ni       0.00000000       0.00000000       2.06121212       0.00000000       0.00000000      -0.17117058
2
Properties=species:S:1:pos:R:3:forces:R:3 energy=-3.883015515517299 pbc="F F F"
Ni       0.00000000       0.00000000       0.00000000       0.00000000       0.00000000       0.95316702
Ni       0.00000000       0.00000000       2.12000000       0.00000000       0.00000000      -0.95316702
2
Properties=species:S:1:pos:R:3:forces:R:3 energy=-3.8110343194361973 pbc="F F F"
Ni       0.00000000       0.00000000       0.00000000       0.00000000       0.00000000       1.45404565
Ni       0.00000000       0.00000000       2.17878788       0.00000000       0.00000000      -1.45404565
2
Properties=species:S:1:pos:R:3:forces:R:3 energy=-3.7162628191950255 pbc="F F F"
Ni       0.00000000       0.00000000       0.00000000       0.00000000       0.00000000       1.74009275
Ni       0.00000000       0.00000000       2.23757576       0.00000000       0.00000000      -1.74009275
2
Properties=species:S:1:pos:R:3:forces:R:3 energy=-3.6093593660448247 pbc="F F F"
Ni       0.00000000       0.00000000       0.00000000       0.00000000       0.00000000       1.87704968
Ni       0.00000000       0.00000000       2.29636364       0.00000000       0.00000000      -1.87704968
2
Properties=species:S:1:pos:R:3:forces:R:3 energy=-3.4972404869297535 pbc="F F F"
Ni       0.00000000       0.00000000       0.00000000       0.00000000       0.00000000       1.92987370
Ni       0.00000000       0.00000000       2.35515152       0.00000000       0.00000000      -1.92987370
2
Properties=species:S:1:pos:R:3:forces:R:3 energy=-3.3823131119880596 pbc="F F F"
Ni       0.00000000       0.00000000       0.00000000       0.00000000       0.00000000       1.98917866
Ni       0.00000000       0.00000000       2.41393939       0.00000000       0.00000000      -1.98917866
2
Properties=species:S:1:pos:R:3:forces:R:3 energy=-3.2620903047302092 pbc="F F F"
Ni       0.00000000       0.00000000       0.00000000       0.00000000       0.00000000       2.10735321
Ni       0.00000000       0.00000000       2.47272727       0.00000000       0.00000000      -2.10735321
2
Properties=species:S:1:pos:R:3:forces:R:3 energy=-3.1347420779918314 pbc="F F F"
Ni       0.00000000       0.00000000       0.00000000       0.00000000       0.00000000       2.21691155
Ni       0.00000000       0.00000000       2.53151515       0.00000000       0.00000000      -2.21691155
2
Properties=species:S:1:pos:R:3:forces:R:3 energy=-3.002598698073256 pbc="F F F"
Ni       0.00000000       0.00000000       0.00000000       0.00000000       0.00000000       2.26940274
Ni       0.00000000       0.00000000       2.59030303       0.00000000       0.00000000      -2.26940274
2
Properties=species:S:1:pos:R:3:forces:R:3 energy=-2.8688077221129373 pbc="F F F"
Ni       0.00000000       0.00000000       0.00000000       0.00000000       0.00000000       2.27617931
Ni       0.00000000       0.00000000       2.64909091       0.00000000       0.00000000      -2.27617931
2
Properties=species:S:1:pos:R:3:forces:R:3 energy=-2.735582191342875 pbc="F F F"
Ni       0.00000000       0.00000000       0.00000000       0.00000000       0.00000000       2.25172448
Ni       0.00000000       0.00000000       2.70787879       0.00000000       0.00000000      -2.25172448
2
Properties=species:S:1:pos:R:3:forces:R:3 energy=-2.6045442362557827 pbc="F F F"
Ni       0.00000000       0.00000000       0.00000000       0.00000000       0.00000000       2.20248270
Ni       0.00000000       0.00000000       2.76666667       0.00000000       0.00000000      -2.20248270
2
Properties=species:S:1:pos:R:3:forces:R:3 energy=-2.477024691580708 pbc="F F F"
Ni       0.00000000       0.00000000       0.00000000       0.00000000       0.00000000       2.13280082
Ni       0.00000000       0.00000000       2.82545455       0.00000000       0.00000000      -2.13280082
2
Properties=species:S:1:pos:R:3:forces:R:3 energy=-2.35408050835102 pbc="F F F"
Ni       0.00000000       0.00000000       0.00000000       0.00000000       0.00000000       2.04771113
Ni       0.00000000       0.00000000       2.88424242       0.00000000       0.00000000      -2.04771113
2
Properties=species:S:1:pos:R:3:forces:R:3 energy=-2.236451328035576 pbc="F F F"
Ni       0.00000000       0.00000000       0.00000000       0.00000000       0.00000000       1.95299613
Ni       0.00000000       0.00000000       2.94303030       0.00000000       0.00000000      -1.95299613
2
Properties=species:S:1:pos:R:3:forces:R:3 energy=-2.1245270366868287 pbc="F F F"
Ni       0.00000000       0.00000000       0.00000000       0.00000000       0.00000000       1.85460281
Ni       0.00000000       0.00000000       3.00181818       0.00000000       0.00000000      -1.85460281
2
Properties=species:S:1:pos:R:3:forces:R:3 energy=-2.018361176090332 pbc="F F F"
Ni       0.00000000       0.00000000       0.00000000       0.00000000       0.00000000       1.75792181
Ni       0.00000000       0.00000000       3.06060606       0.00000000       0.00000000      -1.75792181
2
Properties=species:S:1:pos:R:3:forces:R:3 energy=-1.9177269434605764 pbc="F F F"
Ni       0.00000000       0.00000000       0.00000000       0.00000000       0.00000000       1.66687310
Ni       0.00000000       0.00000000       3.11939394       0.00000000       0.00000000      -1.66687310
2
Properties=species:S:1:pos:R:3:forces:R:3 energy=-1.8222316980513065 pbc="F F F"
Ni       0.00000000       0.00000000       0.00000000       0.00000000       0.00000000       1.58316457
Ni       0.00000000       0.00000000       3.17818182       0.00000000       0.00000000      -1.58316457
2
Properties=species:S:1:pos:R:3:forces:R:3 energy=-1.7314517258414641 pbc="F F F"
Ni       0.00000000       0.00000000       0.00000000       0.00000000       0.00000000       1.50621867
Ni       0.00000000       0.00000000       3.23696970       0.00000000       0.00000000      -1.50621867
2
Properties=species:S:1:pos:R:3:forces:R:3 energy=-1.6450463735104432 pbc="F F F"
Ni       0.00000000       0.00000000       0.00000000       0.00000000       0.00000000       1.43389153
Ni       0.00000000       0.00000000       3.29575758       0.00000000       0.00000000      -1.43389153
2
Properties=species:S:1:pos:R:3:forces:R:3 energy=-1.5628202526805615 pbc="F F F"
Ni       0.00000000       0.00000000       0.00000000       0.00000000       0.00000000       1.36365056
Ni       0.00000000       0.00000000       3.35454545       0.00000000       0.00000000      -1.36365056
2
Properties=species:S:1:pos:R:3:forces:R:3 energy=-1.4847113189881054 pbc="F F F"
Ni       0.00000000       0.00000000       0.00000000       0.00000000       0.00000000       1.29357874
Ni       0.00000000       0.00000000       3.41333333       0.00000000       0.00000000      -1.29357874
2
Properties=species:S:1:pos:R:3:forces:R:3 energy=-1.4107386112332096 pbc="F F F"
Ni       0.00000000       0.00000000       0.00000000       0.00000000       0.00000000       1.22292936
Ni       0.00000000       0.00000000       3.47212121       0.00000000       0.00000000      -1.22292936
2
Properties=species:S:1:pos:R:3:forces:R:3 energy=-1.3409278256013586 pbc="F F F"
Ni       0.00000000       0.00000000       0.00000000       0.00000000       0.00000000       1.15216649
Ni       0.00000000       0.00000000       3.53090909       0.00000000       0.00000000      -1.15216649
2
Properties=species:S:1:pos:R:3:forces:R:3 energy=-1.2752496931322375 pbc="F F F"
Ni       0.00000000       0.00000000       0.00000000       0.00000000       0.00000000       1.08252883
Ni       0.00000000       0.00000000       3.58969697       0.00000000       0.00000000      -1.08252883
2
Properties=species:S:1:pos:R:3:forces:R:3 energy=-1.213598497872988 pbc="F F F"
Ni       0.00000000       0.00000000       0.00000000       0.00000000       0.00000000       1.01540351
Ni       0.00000000       0.00000000       3.64848485       0.00000000       0.00000000      -1.01540351
2
Properties=species:S:1:pos:R:3:forces:R:3 energy=-1.1557951763197367 pbc="F F F"
Ni       0.00000000       0.00000000       0.00000000       0.00000000       0.00000000       0.95174015
Ni       0.00000000       0.00000000       3.70727273       0.00000000       0.00000000      -0.95174015
2
Properties=species:S:1:pos:R:3:forces:R:3 energy=-1.1016245614010893 pbc="F F F"
Ni       0.00000000       0.00000000       0.00000000       0.00000000       0.00000000       0.89171767
Ni       0.00000000       0.00000000       3.76606061       0.00000000       0.00000000      -0.89171767
2
Properties=species:S:1:pos:R:3:forces:R:3 energy=-1.0508897735923874 pbc="F F F"
Ni       0.00000000       0.00000000       0.00000000       0.00000000       0.00000000       0.83476770
Ni       0.00000000       0.00000000       3.82484848       0.00000000       0.00000000      -0.83476770
2
Properties=species:S:1:pos:R:3:forces:R:3 energy=-1.003436906158135 pbc="F F F"
Ni       0.00000000       0.00000000       0.00000000       0.00000000       0.00000000       0.77982360
Ni       0.00000000       0.00000000       3.88363636       0.00000000       0.00000000      -0.77982360
2
Properties=species:S:1:pos:R:3:forces:R:3 energy=-0.9591854983806147 pbc="F F F"
Ni       0.00000000       0.00000000       0.00000000       0.00000000       0.00000000       0.72568816
Ni       0.00000000       0.00000000       3.94242424       0.00000000       0.00000000      -0.72568816
2
Properties=species:S:1:pos:R:3:forces:R:3 energy=-0.9181185994231905 pbc="F F F"
Ni       0.00000000       0.00000000       0.00000000       0.00000000       0.00000000       0.67134148
Ni       0.00000000       0.00000000       4.00121212       0.00000000       0.00000000      -0.67134148
2
Properties=species:S:1:pos:R:3:forces:R:3 energy=-0.880269337110348 pbc="F F F"
Ni       0.00000000       0.00000000       0.00000000       0.00000000       0.00000000       0.61613435
Ni       0.00000000       0.00000000       4.06000000       0.00000000       0.00000000      -0.61613435
2
Properties=species:S:1:pos:R:3:forces:R:3 energy=-0.8456971624329009 pbc="F F F"
Ni       0.00000000       0.00000000       0.00000000       0.00000000       0.00000000       0.55987012
Ni       0.00000000       0.00000000       4.11878788       0.00000000       0.00000000      -0.55987012
2
Properties=species:S:1:pos:R:3:forces:R:3 energy=-0.8144575686365165 pbc="F F F"
Ni       0.00000000       0.00000000       0.00000000       0.00000000       0.00000000       0.50282127
Ni       0.00000000       0.00000000       4.17757576       0.00000000       0.00000000      -0.50282127
2
Properties=species:S:1:pos:R:3:forces:R:3 energy=-0.7865779179104322 pbc="F F F"
Ni       0.00000000       0.00000000       0.00000000       0.00000000       0.00000000       0.44574118
Ni       0.00000000       0.00000000       4.23636364       0.00000000       0.00000000      -0.44574118
2
Properties=species:S:1:pos:R:3:forces:R:3 energy=-0.7620257230448868 pbc="F F F"
Ni       0.00000000       0.00000000       0.00000000       0.00000000       0.00000000       0.38984150
Ni       0.00000000       0.00000000       4.29515152       0.00000000       0.00000000      -0.38984150
2
Properties=species:S:1:pos:R:3:forces:R:3 energy=-0.7406880964999614 pbc="F F F"
Ni       0.00000000       0.00000000       0.00000000       0.00000000       0.00000000       0.33671504
Ni       0.00000000       0.00000000       4.35393939       0.00000000       0.00000000      -0.33671504
2
Properties=species:S:1:pos:R:3:forces:R:3 energy=-0.7223480757701747 pbc="F F F"
Ni       0.00000000       0.00000000       0.00000000       0.00000000       0.00000000       0.28811181
Ni       0.00000000       0.00000000       4.41272727       0.00000000       0.00000000      -0.28811181
2
Properties=species:S:1:pos:R:3:forces:R:3 energy=-0.7066920276157002 pbc="F F F"
Ni       0.00000000       0.00000000       0.00000000       0.00000000       0.00000000       0.24564828
Ni       0.00000000       0.00000000       4.47151515       0.00000000       0.00000000      -0.24564828
2
Properties=species:S:1:pos:R:3:forces:R:3 energy=-0.6933226559621096 pbc="F F F"
Ni       0.00000000       0.00000000       0.00000000       0.00000000       0.00000000       0.21044379
Ni       0.00000000       0.00000000       4.53030303       0.00000000       0.00000000      -0.21044379
2
Properties=species:S:1:pos:R:3:forces:R:3 energy=-0.6817995750724264 pbc="F F F"
Ni       0.00000000       0.00000000       0.00000000       0.00000000       0.00000000       0.18283528
Ni       0.00000000       0.00000000       4.58909091       0.00000000       0.00000000      -0.18283528
2
Properties=species:S:1:pos:R:3:forces:R:3 energy=-0.6716876984312402 pbc="F F F"
Ni       0.00000000       0.00000000       0.00000000       0.00000000       0.00000000       0.16226052
Ni       0.00000000       0.00000000       4.64787879       0.00000000       0.00000000      -0.16226052
2
Properties=species:S:1:pos:R:3:forces:R:3 energy=-0.6626100706347336 pbc="F F F"
Ni       0.00000000       0.00000000       0.00000000       0.00000000       0.00000000       0.14735730
Ni       0.00000000       0.00000000       4.70666667       0.00000000       0.00000000      -0.14735730
2
Properties=species:S:1:pos:R:3:forces:R:3 energy=-0.654286612409656 pbc="F F F"
Ni       0.00000000       0.00000000       0.00000000       0.00000000       0.00000000       0.13629842
Ni       0.00000000       0.00000000       4.76545455       0.00000000       0.00000000      -0.13629842
2
Properties=species:S:1:pos:R:3:forces:R:3 energy=-0.6465458633123201 pbc="F F F"
Ni       0.00000000       0.00000000       0.00000000       0.00000000       0.00000000       0.12722956
Ni       0.00000000       0.00000000       4.82424242       0.00000000       0.00000000      -0.12722956
2
Properties=species:S:1:pos:R:3:forces:R:3 energy=-0.6393171677684683 pbc="F F F"
Ni       0.00000000       0.00000000       0.00000000       0.00000000       0.00000000       0.11873140
Ni       0.00000000       0.00000000       4.88303030       0.00000000       0.00000000      -0.11873140
2
Properties=species:S:1:pos:R:3:forces:R:3 energy=-0.6325893342083998 pbc="F F F"
Ni       0.00000000       0.00000000       0.00000000       0.00000000       0.00000000       0.11009213
Ni       0.00000000       0.00000000       4.94181818       0.00000000       0.00000000      -0.11009213
2
Properties=species:S:1:pos:R:3:forces:R:3 energy=-0.6263751619678148 pbc="F F F"
Ni       0.00000000       0.00000000       0.00000000       0.00000000       0.00000000       0.10131159
Ni       0.00000000       0.00000000       5.00060606       0.00000000       0.00000000      -0.10131159
2
Properties=species:S:1:pos:R:3:forces:R:3 energy=-0.620671893482035 pbc="F F F"
Ni       0.00000000       0.00000000       0.00000000       0.00000000       0.00000000       0.09280557
Ni       0.00000000       0.00000000       5.05939394       0.00000000       0.00000000      -0.09280557
2
Properties=species:S:1:pos:R:3:forces:R:3 energy=-0.6154507327880135 pbc="F F F"
Ni       0.00000000       0.00000000       0.00000000       0.00000000       0.00000000       0.08493429
Ni       0.00000000       0.00000000       5.11818182       0.00000000       0.00000000      -0.08493429
2
Properties=species:S:1:pos:R:3:forces:R:3 energy=-0.6106758437349247 pbc="F F F"
Ni       0.00000000       0.00000000       0.00000000       0.00000000       0.00000000       0.07755564
Ni       0.00000000       0.00000000       5.17696970       0.00000000       0.00000000      -0.07755564
2
Properties=species:S:1:pos:R:3:forces:R:3 energy=-0.6063389872023985 pbc="F F F"
Ni       0.00000000       0.00000000       0.00000000       0.00000000       0.00000000       0.06983852
Ni       0.00000000       0.00000000       5.23575758       0.00000000       0.00000000      -0.06983852
2
Properties=species:S:1:pos:R:3:forces:R:3 energy=-0.6024922699770564 pbc="F F F"
Ni       0.00000000       0.00000000       0.00000000       0.00000000       0.00000000       0.06076552
Ni       0.00000000       0.00000000       5.29454545       0.00000000       0.00000000      -0.06076552
2
Properties=species:S:1:pos:R:3:forces:R:3 energy=-0.5992119231354843 pbc="F F F"
Ni       0.00000000       0.00000000       0.00000000       0.00000000       0.00000000       0.05093616
Ni       0.00000000       0.00000000       5.35333333       0.00000000       0.00000000      -0.05093616
2
Properties=species:S:1:pos:R:3:forces:R:3 energy=-0.5964382372304999 pbc="F F F"
Ni       0.00000000       0.00000000       0.00000000       0.00000000       0.00000000       0.04442138
Ni       0.00000000       0.00000000       5.41212121       0.00000000       0.00000000      -0.04442138
2
Properties=species:S:1:pos:R:3:forces:R:3 energy=-0.5938624180042094 pbc="F F F"
Ni       0.00000000       0.00000000       0.00000000       0.00000000       0.00000000       0.04390645
Ni       0.00000000       0.00000000       5.47090909       0.00000000       0.00000000      -0.04390645
2
Properties=species:S:1:pos:R:3:forces:R:3 energy=-0.5912992789766534 pbc="F F F"
Ni       0.00000000       0.00000000       0.00000000       0.00000000       0.00000000       0.04226600
Ni       0.00000000       0.00000000       5.52969697       0.00000000       0.00000000      -0.04226600
2
Properties=species:S:1:pos:R:3:forces:R:3 energy=-0.5890284859567017 pbc="F F F"
Ni       0.00000000       0.00000000       0.00000000       0.00000000       0.00000000       0.03424622
Ni       0.00000000       0.00000000       5.58848485       0.00000000       0.00000000      -0.03424622
2
Properties=species:S:1:pos:R:3:forces:R:3 energy=-0.5872590088927874 pbc="F F F"
Ni       0.00000000       0.00000000       0.00000000       0.00000000       0.00000000       0.02695921
Ni       0.00000000       0.00000000       5.64727273       0.00000000       0.00000000      -0.02695921
2
Properties=species:S:1:pos:R:3:forces:R:3 energy=-0.5856706597843401 pbc="F F F"
Ni       0.00000000       0.00000000       0.00000000       0.00000000       0.00000000       0.02883879
Ni       0.00000000       0.00000000       5.70606061       0.00000000       0.00000000      -0.02883879
2
Properties=species:S:1:pos:R:3:forces:R:3 energy=-0.5837508547570098 pbc="F F F"
Ni       0.00000000       0.00000000       0.00000000       0.00000000       0.00000000       0.03608792
Ni       0.00000000       0.00000000       5.76484848       0.00000000       0.00000000      -0.03608792
2
Properties=species:S:1:pos:R:3:forces:R:3 energy=-0.5816052489029659 pbc="F F F"
Ni       0.00000000       0.00000000       0.00000000       0.00000000       0.00000000       0.03491668
Ni       0.00000000       0.00000000       5.82363636       0.00000000       0.00000000      -0.03491668
2
Properties=species:S:1:pos:R:3:forces:R:3 energy=-0.5798391121583959 pbc="F F F"
Ni       0.00000000       0.00000000       0.00000000       0.00000000       0.00000000       0.02447474
Ni       0.00000000       0.00000000       5.88242424       0.00000000       0.00000000      -0.02447474
2
Properties=species:S:1:pos:R:3:forces:R:3 energy=-0.5787216925666189 pbc="F F F"
Ni       0.00000000       0.00000000       0.00000000       0.00000000       0.00000000       0.01410682
Ni       0.00000000       0.00000000       5.94121212       0.00000000       0.00000000      -0.01410682
2
Properties=species:S:1:pos:R:3:forces:R:3 energy=-0.5780584191679543 pbc="F F F"
Ni       0.00000000       0.00000000       0.00000000       0.00000000       0.00000000       0.00971282
Ni       0.00000000       0.00000000       6.00000000       0.00000000       0.00000000      -0.00971282
