2
Properties=species:S:1:pos:R:3:forces:R:3 energy=20185.69404447352 pbc="F F F"
Np       0.00000000       0.00000000       0.00000000       0.00000000       0.00000000 -362678.90625000
Np       0.00000000       0.00000000       0.18000000       0.00000000       0.00000000  362678.90625000
2
Properties=species:S:1:pos:R:3:forces:R:3 energy=7649.50410306727 pbc="F F F"
Np       0.00000000       0.00000000       0.00000000       0.00000000       0.00000000 -116723.38281250
Np       0.00000000       0.00000000       0.23878788       0.00000000       0.00000000  116723.38281250
2
Properties=species:S:1:pos:R:3:forces:R:3 energy=3305.706007364145 pbc="F F F"
Np       0.00000000       0.00000000       0.00000000       0.00000000       0.00000000  -44145.57421875
Np       0.00000000       0.00000000       0.29757576       0.00000000       0.00000000   44145.57421875
2
Properties=species:S:1:pos:R:3:forces:R:3 energy=1584.3631118563324 pbc="F F F"
Np       0.00000000       0.00000000       0.00000000       0.00000000       0.00000000  -18507.08398438
Np       0.00000000       0.00000000       0.35636364       0.00000000       0.00000000   18507.08398438
2
Properties=species:S:1:pos:R:3:forces:R:3 energy=836.6850112703949 pbc="F F F"
Np       0.00000000       0.00000000       0.00000000       0.00000000       0.00000000   -8402.04492188
Np       0.00000000       0.00000000       0.41515152       0.00000000       0.00000000    8402.04492188
2
Properties=species:S:1:pos:R:3:forces:R:3 energy=486.1784805086761 pbc="F F F"
Np       0.00000000       0.00000000       0.00000000       0.00000000       0.00000000   -4103.52539062
Np       0.00000000       0.00000000       0.47393939       0.00000000       0.00000000    4103.52539062
2
Properties=species:S:1:pos:R:3:forces:R:3 energy=309.25819244808116 pbc="F F F"
Np       0.00000000       0.00000000       0.00000000       0.00000000       0.00000000   -2160.55468750
Np       0.00000000       0.00000000       0.53272727       0.00000000       0.00000000    2160.55468750
2
Properties=species:S:1:pos:R:3:forces:R:3 energy=212.70394749097787 pbc="F F F"
Np       0.00000000       0.00000000       0.00000000       0.00000000       0.00000000   -1233.33557129
Np       0.00000000       0.00000000       0.59151515       0.00000000       0.00000000    1233.33557129
2
Properties=species:S:1:pos:R:3:forces:R:3 energy=155.38130044693645 pbc="F F F"
Np       0.00000000       0.00000000       0.00000000       0.00000000       0.00000000    -768.19586182
Np       0.00000000       0.00000000       0.65030303       0.00000000       0.00000000     768.19586182
2
Properties=species:S:1:pos:R:3:forces:R:3 energy=118.06527574269074 pbc="F F F"
Np       0.00000000       0.00000000       0.00000000       0.00000000       0.00000000    -527.19482422
Np       0.00000000       0.00000000       0.70909091       0.00000000       0.00000000     527.19482422
2
Properties=species:S:1:pos:R:3:forces:R:3 energy=91.21274442362687 pbc="F F F"
Np       0.00000000       0.00000000       0.00000000       0.00000000       0.00000000    -399.09991455
Np       0.00000000       0.00000000       0.76787879       0.00000000       0.00000000     399.09991455
2
Properties=species:S:1:pos:R:3:forces:R:3 energy=70.03916061664992 pbc="F F F"
Np       0.00000000       0.00000000       0.00000000       0.00000000       0.00000000    -329.50036621
Np       0.00000000       0.00000000       0.82666667       0.00000000       0.00000000     329.50036621
2
Properties=species:S:1:pos:R:3:forces:R:3 energy=51.43155591494951 pbc="F F F"
Np       0.00000000       0.00000000       0.00000000       0.00000000       0.00000000    -309.67398071
Np       0.00000000       0.00000000       0.88545455       0.00000000       0.00000000     309.67398071
2
Properties=species:S:1:pos:R:3:forces:R:3 energy=32.67957644186474 pbc="F F F"
Np       0.00000000       0.00000000       0.00000000       0.00000000       0.00000000    -329.63430786
Np       0.00000000       0.00000000       0.94424242       0.00000000       0.00000000     329.63430786
2
Properties=species:S:1:pos:R:3:forces:R:3 energy=27.408454957285226 pbc="F F F"
Np       0.00000000       0.00000000       0.00000000       0.00000000       0.00000000      -7.16473436
Np       0.00000000       0.00000000       1.00303030       0.00000000       0.00000000       7.16473436
2
Properties=species:S:1:pos:R:3:forces:R:3 energy=23.106144685260006 pbc="F F F"
Np       0.00000000       0.00000000       0.00000000       0.00000000       0.00000000     -80.05263519
Np       0.00000000       0.00000000       1.06181818       0.00000000       0.00000000      80.05263519
2
Properties=species:S:1:pos:R:3:forces:R:3 energy=18.213735293929897 pbc="F F F"
Np       0.00000000       0.00000000       0.00000000       0.00000000       0.00000000     -84.26891327
Np       0.00000000       0.00000000       1.12060606       0.00000000       0.00000000      84.26891327
2
Properties=species:S:1:pos:R:3:forces:R:3 energy=13.785123750643036 pbc="F F F"
Np       0.00000000       0.00000000       0.00000000       0.00000000       0.00000000     -66.41488647
Np       0.00000000       0.00000000       1.17939394       0.00000000       0.00000000      66.41488647
2
Properties=species:S:1:pos:R:3:forces:R:3 energy=10.084798351642002 pbc="F F F"
Np       0.00000000       0.00000000       0.00000000       0.00000000       0.00000000     -62.90009689
Np       0.00000000       0.00000000       1.23818182       0.00000000       0.00000000      62.90009689
2
Properties=species:S:1:pos:R:3:forces:R:3 energy=6.145265124015369 pbc="F F F"
Np       0.00000000       0.00000000       0.00000000       0.00000000       0.00000000     -70.87892914
Np       0.00000000       0.00000000       1.29696970       0.00000000       0.00000000      70.87892914
2
Properties=species:S:1:pos:R:3:forces:R:3 energy=1.8859063024842235 pbc="F F F"
Np       0.00000000       0.00000000       0.00000000       0.00000000       0.00000000     -72.90349579
Np       0.00000000       0.00000000       1.35575758       0.00000000       0.00000000      72.90349579
2
Properties=species:S:1:pos:R:3:forces:R:3 energy=-2.335859010275363 pbc="F F F"
Np       0.00000000       0.00000000       0.00000000       0.00000000       0.00000000     -70.29194641
Np       0.00000000       0.00000000       1.41454545       0.00000000       0.00000000      70.29194641
2
Properties=species:S:1:pos:R:3:forces:R:3 energy=-6.347975468447281 pbc="F F F"
Np       0.00000000       0.00000000       0.00000000       0.00000000       0.00000000     -65.81898499
Np       0.00000000       0.00000000       1.47333333       0.00000000       0.00000000      65.81898499
2
Properties=species:S:1:pos:R:3:forces:R:3 energy=-9.962893328911614 pbc="F F F"
Np       0.00000000       0.00000000       0.00000000       0.00000000       0.00000000     -55.69807816
Np       0.00000000       0.00000000       1.53212121       0.00000000       0.00000000      55.69807816
2
Properties=species:S:1:pos:R:3:forces:R:3 energy=-12.73670181551544 pbc="F F F"
Np       0.00000000       0.00000000       0.00000000       0.00000000       0.00000000     -37.90592194
Np       0.00000000       0.00000000       1.59090909       0.00000000       0.00000000      37.90592194
2
Properties=species:S:1:pos:R:3:forces:R:3 energy=-14.444740831121948 pbc="F F F"
Np       0.00000000       0.00000000       0.00000000       0.00000000       0.00000000     -21.27154160
Np       0.00000000       0.00000000       1.64969697       0.00000000       0.00000000      21.27154160
2
Properties=species:S:1:pos:R:3:forces:R:3 energy=-15.395621101799504 pbc="F F F"
Np       0.00000000       0.00000000       0.00000000       0.00000000       0.00000000     -12.29747009
Np       0.00000000       0.00000000       1.70848485       0.00000000       0.00000000      12.29747009
2
Properties=species:S:1:pos:R:3:forces:R:3 energy=-15.989643341065308 pbc="F F F"
Np       0.00000000       0.00000000       0.00000000       0.00000000       0.00000000      -8.41123867
Np       0.00000000       0.00000000       1.76727273       0.00000000       0.00000000       8.41123867
2
Properties=species:S:1:pos:R:3:forces:R:3 energy=-16.420480429343684 pbc="F F F"
Np       0.00000000       0.00000000       0.00000000       0.00000000       0.00000000      -6.44603062
Np       0.00000000       0.00000000       1.82606061       0.00000000       0.00000000       6.44603062
2
Properties=species:S:1:pos:R:3:forces:R:3 energy=-16.767531171410422 pbc="F F F"
Np       0.00000000       0.00000000       0.00000000       0.00000000       0.00000000      -5.51728439
Np       0.00000000       0.00000000       1.88484848       0.00000000       0.00000000       5.51728439
2
Properties=species:S:1:pos:R:3:forces:R:3 energy=-17.085213801654795 pbc="F F F"
Np       0.00000000       0.00000000       0.00000000       0.00000000       0.00000000      -5.39100218
Np       0.00000000       0.00000000       1.94363636       0.00000000       0.00000000       5.39100218
2
Properties=species:S:1:pos:R:3:forces:R:3 energy=-17.405760224484045 pbc="F F F"
Np       0.00000000       0.00000000       0.00000000       0.00000000       0.00000000      -5.47465849
Np       0.00000000       0.00000000       2.00242424       0.00000000       0.00000000       5.47465849
2
Properties=species:S:1:pos:R:3:forces:R:3 energy=-17.715501948771625 pbc="F F F"
Np       0.00000000       0.00000000       0.00000000       0.00000000       0.00000000      -4.89533710
Np       0.00000000       0.00000000       2.06121212       0.00000000       0.00000000       4.89533710
2
Properties=species:S:1:pos:R:3:forces:R:3 energy=-17.961379894083564 pbc="F F F"
Np       0.00000000       0.00000000       0.00000000       0.00000000       0.00000000      -3.33359098
Np       0.00000000       0.00000000       2.12000000       0.00000000       0.00000000       3.33359098
2
Properties=species:S:1:pos:R:3:forces:R:3 energy=-18.099261295559728 pbc="F F F"
Np       0.00000000       0.00000000       0.00000000       0.00000000       0.00000000      -1.35665345
Np       0.00000000       0.00000000       2.17878788       0.00000000       0.00000000       1.35665345
2
Properties=species:S:1:pos:R:3:forces:R:3 energy=-18.126839623837636 pbc="F F F"
Np       0.00000000       0.00000000       0.00000000       0.00000000       0.00000000       0.33515421
Np       0.00000000       0.00000000       2.23757576       0.00000000       0.00000000      -0.33515421
2
Properties=species:S:1:pos:R:3:forces:R:3 energy=-18.070670235024934 pbc="F F F"
Np       0.00000000       0.00000000       0.00000000       0.00000000       0.00000000       1.48567891
Np       0.00000000       0.00000000       2.29636364       0.00000000       0.00000000      -1.48567891
2
Properties=species:S:1:pos:R:3:forces:R:3 energy=-17.961561847337855 pbc="F F F"
Np       0.00000000       0.00000000       0.00000000       0.00000000       0.00000000       2.15791583
Np       0.00000000       0.00000000       2.35515152       0.00000000       0.00000000      -2.15791583
2
Properties=species:S:1:pos:R:3:forces:R:3 energy=-17.823780897154354 pbc="F F F"
Np       0.00000000       0.00000000       0.00000000       0.00000000       0.00000000       2.47931719
Np       0.00000000       0.00000000       2.41393939       0.00000000       0.00000000      -2.47931719
2
Properties=species:S:1:pos:R:3:forces:R:3 energy=-17.675425404688724 pbc="F F F"
Np       0.00000000       0.00000000       0.00000000       0.00000000       0.00000000       2.52542877
Np       0.00000000       0.00000000       2.47272727       0.00000000       0.00000000      -2.52542877
2
Properties=species:S:1:pos:R:3:forces:R:3 energy=-17.53127063678143 pbc="F F F"
Np       0.00000000       0.00000000       0.00000000       0.00000000       0.00000000       2.34881449
Np       0.00000000       0.00000000       2.53151515       0.00000000       0.00000000      -2.34881449
2
Properties=species:S:1:pos:R:3:forces:R:3 energy=-17.40139216591297 pbc="F F F"
Np       0.00000000       0.00000000       0.00000000       0.00000000       0.00000000       2.06534982
Np       0.00000000       0.00000000       2.59030303       0.00000000       0.00000000      -2.06534982
2
Properties=species:S:1:pos:R:3:forces:R:3 energy=-17.287383433138274 pbc="F F F"
Np       0.00000000       0.00000000       0.00000000       0.00000000       0.00000000       1.83338797
Np       0.00000000       0.00000000       2.64909091       0.00000000       0.00000000      -1.83338797
2
Properties=species:S:1:pos:R:3:forces:R:3 energy=-17.18273351715758 pbc="F F F"
Np       0.00000000       0.00000000       0.00000000       0.00000000       0.00000000       1.75576079
Np       0.00000000       0.00000000       2.70787879       0.00000000       0.00000000      -1.75576079
2
Properties=species:S:1:pos:R:3:forces:R:3 energy=-17.077843397864292 pbc="F F F"
Np       0.00000000       0.00000000       0.00000000       0.00000000       0.00000000       1.83362579
Np       0.00000000       0.00000000       2.76666667       0.00000000       0.00000000      -1.83362579
2
Properties=species:S:1:pos:R:3:forces:R:3 energy=-16.965730696721547 pbc="F F F"
Np       0.00000000       0.00000000       0.00000000       0.00000000       0.00000000       1.98234224
Np       0.00000000       0.00000000       2.82545455       0.00000000       0.00000000      -1.98234224
2
Properties=species:S:1:pos:R:3:forces:R:3 energy=-16.84576272550401 pbc="F F F"
Np       0.00000000       0.00000000       0.00000000       0.00000000       0.00000000       2.08176517
Np       0.00000000       0.00000000       2.88424242       0.00000000       0.00000000      -2.08176517
2
Properties=species:S:1:pos:R:3:forces:R:3 energy=-16.723537863215256 pbc="F F F"
Np       0.00000000       0.00000000       0.00000000       0.00000000       0.00000000       2.05330324
Np       0.00000000       0.00000000       2.94303030       0.00000000       0.00000000      -2.05330324
2
Properties=species:S:1:pos:R:3:forces:R:3 energy=-16.60662846798093 pbc="F F F"
Np       0.00000000       0.00000000       0.00000000       0.00000000       0.00000000       1.91058469
Np       0.00000000       0.00000000       3.00181818       0.00000000       0.00000000      -1.91058469
2
Properties=species:S:1:pos:R:3:forces:R:3 energy=-16.49963711809153 pbc="F F F"
Np       0.00000000       0.00000000       0.00000000       0.00000000       0.00000000       1.72965515
Np       0.00000000       0.00000000       3.06060606       0.00000000       0.00000000      -1.72965515
2
Properties=species:S:1:pos:R:3:forces:R:3 energy=-16.40272015943385 pbc="F F F"
Np       0.00000000       0.00000000       0.00000000       0.00000000       0.00000000       1.57443166
Np       0.00000000       0.00000000       3.11939394       0.00000000       0.00000000      -1.57443166
2
Properties=species:S:1:pos:R:3:forces:R:3 energy=-16.313739397489407 pbc="F F F"
Np       0.00000000       0.00000000       0.00000000       0.00000000       0.00000000       1.45804644
Np       0.00000000       0.00000000       3.17818182       0.00000000       0.00000000      -1.45804644
2
Properties=species:S:1:pos:R:3:forces:R:3 energy=-16.23089585435672 pbc="F F F"
Np       0.00000000       0.00000000       0.00000000       0.00000000       0.00000000       1.36195290
Np       0.00000000       0.00000000       3.23696970       0.00000000       0.00000000      -1.36195290
2
Properties=species:S:1:pos:R:3:forces:R:3 energy=-16.153519727867515 pbc="F F F"
Np       0.00000000       0.00000000       0.00000000       0.00000000       0.00000000       1.27101839
Np       0.00000000       0.00000000       3.29575758       0.00000000       0.00000000      -1.27101839
2
Properties=species:S:1:pos:R:3:forces:R:3 energy=-16.08131105141895 pbc="F F F"
Np       0.00000000       0.00000000       0.00000000       0.00000000       0.00000000       1.18781352
Np       0.00000000       0.00000000       3.35454545       0.00000000       0.00000000      -1.18781352
2
Properties=species:S:1:pos:R:3:forces:R:3 energy=-16.013439438090224 pbc="F F F"
Np       0.00000000       0.00000000       0.00000000       0.00000000       0.00000000       1.12614560
Np       0.00000000       0.00000000       3.41333333       0.00000000       0.00000000      -1.12614560
2
Properties=species:S:1:pos:R:3:forces:R:3 energy=-15.94819040685536 pbc="F F F"
Np       0.00000000       0.00000000       0.00000000       0.00000000       0.00000000       1.10077059
Np       0.00000000       0.00000000       3.47212121       0.00000000       0.00000000      -1.10077059
2
Properties=species:S:1:pos:R:3:forces:R:3 energy=-15.883091178893954 pbc="F F F"
Np       0.00000000       0.00000000       0.00000000       0.00000000       0.00000000       1.12237012
Np       0.00000000       0.00000000       3.53090909       0.00000000       0.00000000      -1.12237012
2
Properties=species:S:1:pos:R:3:forces:R:3 energy=-15.815220621744006 pbc="F F F"
Np       0.00000000       0.00000000       0.00000000       0.00000000       0.00000000       1.19489670
Np       0.00000000       0.00000000       3.58969697       0.00000000       0.00000000      -1.19489670
2
Properties=species:S:1:pos:R:3:forces:R:3 energy=-15.741747184972809 pbc="F F F"
Np       0.00000000       0.00000000       0.00000000       0.00000000       0.00000000       1.31034315
Np       0.00000000       0.00000000       3.64848485       0.00000000       0.00000000      -1.31034315
2
Properties=species:S:1:pos:R:3:forces:R:3 energy=-15.660801575532917 pbc="F F F"
Np       0.00000000       0.00000000       0.00000000       0.00000000       0.00000000       1.44333446
Np       0.00000000       0.00000000       3.70727273       0.00000000       0.00000000      -1.44333446
2
Properties=species:S:1:pos:R:3:forces:R:3 energy=-15.572491403878345 pbc="F F F"
Np       0.00000000       0.00000000       0.00000000       0.00000000       0.00000000       1.55347908
Np       0.00000000       0.00000000       3.76606061       0.00000000       0.00000000      -1.55347908
2
Properties=species:S:1:pos:R:3:forces:R:3 energy=-15.479428591204131 pbc="F F F"
Np       0.00000000       0.00000000       0.00000000       0.00000000       0.00000000       1.59895551
Np       0.00000000       0.00000000       3.82484848       0.00000000       0.00000000      -1.59895551
2
Properties=species:S:1:pos:R:3:forces:R:3 energy=-15.386269736439687 pbc="F F F"
Np       0.00000000       0.00000000       0.00000000       0.00000000       0.00000000       1.55477762
Np       0.00000000       0.00000000       3.88363636       0.00000000       0.00000000      -1.55477762
2
Properties=species:S:1:pos:R:3:forces:R:3 energy=-15.298337128529848 pbc="F F F"
Np       0.00000000       0.00000000       0.00000000       0.00000000       0.00000000       1.42412972
Np       0.00000000       0.00000000       3.94242424       0.00000000       0.00000000      -1.42412972
2
Properties=species:S:1:pos:R:3:forces:R:3 energy=-15.219963167821604 pbc="F F F"
Np       0.00000000       0.00000000       0.00000000       0.00000000       0.00000000       1.23592949
Np       0.00000000       0.00000000       4.00121212       0.00000000       0.00000000      -1.23592949
2
Properties=species:S:1:pos:R:3:forces:R:3 energy=-15.153346058254707 pbc="F F F"
Np       0.00000000       0.00000000       0.00000000       0.00000000       0.00000000       1.03100812
Np       0.00000000       0.00000000       4.06000000       0.00000000       0.00000000      -1.03100812
2
Properties=species:S:1:pos:R:3:forces:R:3 energy=-15.098344742041078 pbc="F F F"
Np       0.00000000       0.00000000       0.00000000       0.00000000       0.00000000       0.84582859
Np       0.00000000       0.00000000       4.11878788       0.00000000       0.00000000      -0.84582859
2
Properties=species:S:1:pos:R:3:forces:R:3 energy=-15.053074043123393 pbc="F F F"
Np       0.00000000       0.00000000       0.00000000       0.00000000       0.00000000       0.70208657
Np       0.00000000       0.00000000       4.17757576       0.00000000       0.00000000      -0.70208657
2
Properties=species:S:1:pos:R:3:forces:R:3 energy=-15.01487086597049 pbc="F F F"
Np       0.00000000       0.00000000       0.00000000       0.00000000       0.00000000       0.60511935
Np       0.00000000       0.00000000       4.23636364       0.00000000       0.00000000      -0.60511935
2
Properties=species:S:1:pos:R:3:forces:R:3 energy=-14.981134306622387 pbc="F F F"
Np       0.00000000       0.00000000       0.00000000       0.00000000       0.00000000       0.54833394
Np       0.00000000       0.00000000       4.29515152       0.00000000       0.00000000      -0.54833394
2
Properties=species:S:1:pos:R:3:forces:R:3 energy=-14.949856085679542 pbc="F F F"
Np       0.00000000       0.00000000       0.00000000       0.00000000       0.00000000       0.51928318
Np       0.00000000       0.00000000       4.35393939       0.00000000       0.00000000      -0.51928318
2
Properties=species:S:1:pos:R:3:forces:R:3 energy=-14.919807354427263 pbc="F F F"
Np       0.00000000       0.00000000       0.00000000       0.00000000       0.00000000       0.50421929
Np       0.00000000       0.00000000       4.41272727       0.00000000       0.00000000      -0.50421929
2
Properties=species:S:1:pos:R:3:forces:R:3 energy=-14.890544670307381 pbc="F F F"
Np       0.00000000       0.00000000       0.00000000       0.00000000       0.00000000       0.49062866
Np       0.00000000       0.00000000       4.47151515       0.00000000       0.00000000      -0.49062866
2
Properties=species:S:1:pos:R:3:forces:R:3 energy=-14.862289694570212 pbc="F F F"
Np       0.00000000       0.00000000       0.00000000       0.00000000       0.00000000       0.46852064
Np       0.00000000       0.00000000       4.53030303       0.00000000       0.00000000      -0.46852064
2
Properties=species:S:1:pos:R:3:forces:R:3 energy=-14.835753855584501 pbc="F F F"
Np       0.00000000       0.00000000       0.00000000       0.00000000       0.00000000       0.43147051
Np       0.00000000       0.00000000       4.58909091       0.00000000       0.00000000      -0.43147051
2
Properties=species:S:1:pos:R:3:forces:R:3 energy=-14.811894303247106 pbc="F F F"
Np       0.00000000       0.00000000       0.00000000       0.00000000       0.00000000       0.37756014
Np       0.00000000       0.00000000       4.64787879       0.00000000       0.00000000      -0.37756014
2
Properties=species:S:1:pos:R:3:forces:R:3 energy=-14.79163628205095 pbc="F F F"
Np       0.00000000       0.00000000       0.00000000       0.00000000       0.00000000       0.30981401
Np       0.00000000       0.00000000       4.70666667       0.00000000       0.00000000      -0.30981401
2
Properties=species:S:1:pos:R:3:forces:R:3 energy=-14.77559386923708 pbc="F F F"
Np       0.00000000       0.00000000       0.00000000       0.00000000       0.00000000       0.23569632
Np       0.00000000       0.00000000       4.76545455       0.00000000       0.00000000      -0.23569632
2
Properties=species:S:1:pos:R:3:forces:R:3 energy=-14.763849612671127 pbc="F F F"
Np       0.00000000       0.00000000       0.00000000       0.00000000       0.00000000       0.16532484
Np       0.00000000       0.00000000       4.82424242       0.00000000       0.00000000      -0.16532484
2
Properties=species:S:1:pos:R:3:forces:R:3 energy=-14.755884079321138 pbc="F F F"
Np       0.00000000       0.00000000       0.00000000       0.00000000       0.00000000       0.10869511
Np       0.00000000       0.00000000       4.88303030       0.00000000       0.00000000      -0.10869511
2
Properties=species:S:1:pos:R:3:forces:R:3 energy=-14.750666283255235 pbc="F F F"
Np       0.00000000       0.00000000       0.00000000       0.00000000       0.00000000       0.07249895
Np       0.00000000       0.00000000       4.94181818       0.00000000       0.00000000      -0.07249895
2
Properties=species:S:1:pos:R:3:forces:R:3 energy=-14.746931306238 pbc="F F F"
Np       0.00000000       0.00000000       0.00000000       0.00000000       0.00000000       0.05797309
Np       0.00000000       0.00000000       5.00060606       0.00000000       0.00000000      -0.05797309
2
Properties=species:S:1:pos:R:3:forces:R:3 energy=-14.74350930903399 pbc="F F F"
Np       0.00000000       0.00000000       0.00000000       0.00000000       0.00000000       0.06074973
Np       0.00000000       0.00000000       5.05939394       0.00000000       0.00000000      -0.06074973
2
Properties=species:S:1:pos:R:3:forces:R:3 energy=-14.739597189203739 pbc="F F F"
Np       0.00000000       0.00000000       0.00000000       0.00000000       0.00000000       0.07331364
Np       0.00000000       0.00000000       5.11818182       0.00000000       0.00000000      -0.07331364
2
Properties=species:S:1:pos:R:3:forces:R:3 energy=-14.734832001354832 pbc="F F F"
Np       0.00000000       0.00000000       0.00000000       0.00000000       0.00000000       0.08893660
Np       0.00000000       0.00000000       5.17696970       0.00000000       0.00000000      -0.08893660
2
Properties=species:S:1:pos:R:3:forces:R:3 energy=-14.72914126195245 pbc="F F F"
Np       0.00000000       0.00000000       0.00000000       0.00000000       0.00000000       0.10466417
Np       0.00000000       0.00000000       5.23575758       0.00000000       0.00000000      -0.10466417
2
Properties=species:S:1:pos:R:3:forces:R:3 energy=-14.722527114812939 pbc="F F F"
Np       0.00000000       0.00000000       0.00000000       0.00000000       0.00000000       0.12020908
Np       0.00000000       0.00000000       5.29454545       0.00000000       0.00000000      -0.12020908
2
Properties=species:S:1:pos:R:3:forces:R:3 energy=-14.715096034391788 pbc="F F F"
Np       0.00000000       0.00000000       0.00000000       0.00000000       0.00000000       0.13071582
Np       0.00000000       0.00000000       5.35333333       0.00000000       0.00000000      -0.13071582
2
Properties=species:S:1:pos:R:3:forces:R:3 energy=-14.707582234592236 pbc="F F F"
Np       0.00000000       0.00000000       0.00000000       0.00000000       0.00000000       0.11982770
Np       0.00000000       0.00000000       5.41212121       0.00000000       0.00000000      -0.11982770
2
Properties=species:S:1:pos:R:3:forces:R:3 energy=-14.701538181880993 pbc="F F F"
Np       0.00000000       0.00000000       0.00000000       0.00000000       0.00000000       0.08391857
Np       0.00000000       0.00000000       5.47090909       0.00000000       0.00000000      -0.08391857
2
Properties=species:S:1:pos:R:3:forces:R:3 energy=-14.69747308637907 pbc="F F F"
Np       0.00000000       0.00000000       0.00000000       0.00000000       0.00000000       0.05902245
Np       0.00000000       0.00000000       5.52969697       0.00000000       0.00000000      -0.05902245
2
Properties=species:S:1:pos:R:3:forces:R:3 energy=-14.694137500404642 pbc="F F F"
Np       0.00000000       0.00000000       0.00000000       0.00000000       0.00000000       0.05635515
Np       0.00000000       0.00000000       5.58848485       0.00000000       0.00000000      -0.05635515
2
Properties=species:S:1:pos:R:3:forces:R:3 energy=-14.690843475036349 pbc="F F F"
Np       0.00000000       0.00000000       0.00000000       0.00000000       0.00000000       0.05482553
Np       0.00000000       0.00000000       5.64727273       0.00000000       0.00000000      -0.05482553
2
Properties=species:S:1:pos:R:3:forces:R:3 energy=-14.687682888175294 pbc="F F F"
Np       0.00000000       0.00000000       0.00000000       0.00000000       0.00000000       0.05526629
Np       0.00000000       0.00000000       5.70606061       0.00000000       0.00000000      -0.05526629
2
Properties=species:S:1:pos:R:3:forces:R:3 energy=-14.683600024402091 pbc="F F F"
Np       0.00000000       0.00000000       0.00000000       0.00000000       0.00000000       0.09185900
Np       0.00000000       0.00000000       5.76484848       0.00000000       0.00000000      -0.09185900
2
Properties=species:S:1:pos:R:3:forces:R:3 energy=-14.676447772069436 pbc="F F F"
Np       0.00000000       0.00000000       0.00000000       0.00000000       0.00000000       0.14671589
Np       0.00000000       0.00000000       5.82363636       0.00000000       0.00000000      -0.14671589
2
Properties=species:S:1:pos:R:3:forces:R:3 energy=-14.667823560040786 pbc="F F F"
Np       0.00000000       0.00000000       0.00000000       0.00000000       0.00000000       0.13319384
Np       0.00000000       0.00000000       5.88242424       0.00000000       0.00000000      -0.13319384
2
Properties=species:S:1:pos:R:3:forces:R:3 energy=-14.661818251028835 pbc="F F F"
Np       0.00000000       0.00000000       0.00000000       0.00000000       0.00000000       0.06952752
Np       0.00000000       0.00000000       5.94121212       0.00000000       0.00000000      -0.06952752
2
Properties=species:S:1:pos:R:3:forces:R:3 energy=-14.658961085962607 pbc="F F F"
Np       0.00000000       0.00000000       0.00000000       0.00000000       0.00000000       0.03771560
Np       0.00000000       0.00000000       6.00000000       0.00000000       0.00000000      -0.03771560
