2
Properties=species:S:1:pos:R:3:forces:R:3 energy=15781.905846305026 pbc="F F F"
Os       0.00000000       0.00000000       0.00000000       0.00000000       0.00000000 -269948.53125000
Os       0.00000000       0.00000000       0.18000000       0.00000000       0.00000000  269948.53125000
2
Properties=species:S:1:pos:R:3:forces:R:3 energy=6363.807213492525 pbc="F F F"
Os       0.00000000       0.00000000       0.00000000       0.00000000       0.00000000  -88901.48437500
Os       0.00000000       0.00000000       0.23878788       0.00000000       0.00000000   88901.48437500
2
Properties=species:S:1:pos:R:3:forces:R:3 energy=3021.904137326986 pbc="F F F"
Os       0.00000000       0.00000000       0.00000000       0.00000000       0.00000000  -34437.62500000
Os       0.00000000       0.00000000       0.29757576       0.00000000       0.00000000   34437.62500000
2
Properties=species:S:1:pos:R:3:forces:R:3 energy=1665.949547483236 pbc="F F F"
Os       0.00000000       0.00000000       0.00000000       0.00000000       0.00000000  -14756.76660156
Os       0.00000000       0.00000000       0.35636364       0.00000000       0.00000000   14756.76660156
2
Properties=species:S:1:pos:R:3:forces:R:3 energy=1065.3915640847986 pbc="F F F"
Os       0.00000000       0.00000000       0.00000000       0.00000000       0.00000000   -6801.90185547
Os       0.00000000       0.00000000       0.41515152       0.00000000       0.00000000    6801.90185547
2
Properties=species:S:1:pos:R:3:forces:R:3 energy=780.7528311809781 pbc="F F F"
Os       0.00000000       0.00000000       0.00000000       0.00000000       0.00000000   -3338.55200195
Os       0.00000000       0.00000000       0.47393939       0.00000000       0.00000000    3338.55200195
2
Properties=species:S:1:pos:R:3:forces:R:3 energy=637.0749137195163 pbc="F F F"
Os       0.00000000       0.00000000       0.00000000       0.00000000       0.00000000   -1747.91638184
Os       0.00000000       0.00000000       0.53272727       0.00000000       0.00000000    1747.91638184
2
Properties=species:S:1:pos:R:3:forces:R:3 energy=559.1400992917338 pbc="F F F"
Os       0.00000000       0.00000000       0.00000000       0.00000000       0.00000000    -997.17138672
Os       0.00000000       0.00000000       0.59151515       0.00000000       0.00000000     997.17138672
2
Properties=species:S:1:pos:R:3:forces:R:3 energy=511.8537834117789 pbc="F F F"
Os       0.00000000       0.00000000       0.00000000       0.00000000       0.00000000    -658.10284424
Os       0.00000000       0.00000000       0.65030303       0.00000000       0.00000000     658.10284424
2
Properties=species:S:1:pos:R:3:forces:R:3 energy=474.6005791421035 pbc="F F F"
Os       0.00000000       0.00000000       0.00000000       0.00000000       0.00000000    -604.61059570
Os       0.00000000       0.00000000       0.70909091       0.00000000       0.00000000     604.61059570
2
Properties=species:S:1:pos:R:3:forces:R:3 energy=438.1210565320601 pbc="F F F"
Os       0.00000000       0.00000000       0.00000000       0.00000000       0.00000000    -663.22601318
Os       0.00000000       0.00000000       0.76787879       0.00000000       0.00000000     663.22601318
2
Properties=species:S:1:pos:R:3:forces:R:3 energy=396.4782954536468 pbc="F F F"
Os       0.00000000       0.00000000       0.00000000       0.00000000       0.00000000    -762.04223633
Os       0.00000000       0.00000000       0.82666667       0.00000000       0.00000000     762.04223633
2
Properties=species:S:1:pos:R:3:forces:R:3 energy=347.2821286768712 pbc="F F F"
Os       0.00000000       0.00000000       0.00000000       0.00000000       0.00000000    -904.44091797
Os       0.00000000       0.00000000       0.88545455       0.00000000       0.00000000     904.44091797
2
Properties=species:S:1:pos:R:3:forces:R:3 energy=293.3708740981696 pbc="F F F"
Os       0.00000000       0.00000000       0.00000000       0.00000000       0.00000000    -917.29602051
Os       0.00000000       0.00000000       0.94424242       0.00000000       0.00000000     917.29602051
2
Properties=species:S:1:pos:R:3:forces:R:3 energy=239.62583362276746 pbc="F F F"
Os       0.00000000       0.00000000       0.00000000       0.00000000       0.00000000    -923.04333496
Os       0.00000000       0.00000000       1.00303030       0.00000000       0.00000000     923.04333496
2
Properties=species:S:1:pos:R:3:forces:R:3 energy=187.91594953674948 pbc="F F F"
Os       0.00000000       0.00000000       0.00000000       0.00000000       0.00000000    -822.25445557
Os       0.00000000       0.00000000       1.06181818       0.00000000       0.00000000     822.25445557
2
Properties=species:S:1:pos:R:3:forces:R:3 energy=143.3775896886524 pbc="F F F"
Os       0.00000000       0.00000000       0.00000000       0.00000000       0.00000000    -692.53289795
Os       0.00000000       0.00000000       1.12060606       0.00000000       0.00000000     692.53289795
2
Properties=species:S:1:pos:R:3:forces:R:3 energy=106.54923678250567 pbc="F F F"
Os       0.00000000       0.00000000       0.00000000       0.00000000       0.00000000    -556.64166260
Os       0.00000000       0.00000000       1.17939394       0.00000000       0.00000000     556.64166260
2
Properties=species:S:1:pos:R:3:forces:R:3 energy=78.26720222516563 pbc="F F F"
Os       0.00000000       0.00000000       0.00000000       0.00000000       0.00000000    -408.22262573
Os       0.00000000       0.00000000       1.23818182       0.00000000       0.00000000     408.22262573
2
Properties=species:S:1:pos:R:3:forces:R:3 energy=57.46833756561445 pbc="F F F"
Os       0.00000000       0.00000000       0.00000000       0.00000000       0.00000000    -310.61172485
Os       0.00000000       0.00000000       1.29696970       0.00000000       0.00000000     310.61172485
2
Properties=species:S:1:pos:R:3:forces:R:3 energy=40.92288367941037 pbc="F F F"
Os       0.00000000       0.00000000       0.00000000       0.00000000       0.00000000    -254.66229248
Os       0.00000000       0.00000000       1.35575758       0.00000000       0.00000000     254.66229248
2
Properties=species:S:1:pos:R:3:forces:R:3 energy=27.464886055905197 pbc="F F F"
Os       0.00000000       0.00000000       0.00000000       0.00000000       0.00000000    -203.84918213
Os       0.00000000       0.00000000       1.41454545       0.00000000       0.00000000     203.84918213
2
Properties=species:S:1:pos:R:3:forces:R:3 energy=16.80897493292583 pbc="F F F"
Os       0.00000000       0.00000000       0.00000000       0.00000000       0.00000000    -159.19488525
Os       0.00000000       0.00000000       1.47333333       0.00000000       0.00000000     159.19488525
2
Properties=species:S:1:pos:R:3:forces:R:3 energy=8.771529958961718 pbc="F F F"
Os       0.00000000       0.00000000       0.00000000       0.00000000       0.00000000    -114.31268311
Os       0.00000000       0.00000000       1.53212121       0.00000000       0.00000000     114.31268311
2
Properties=species:S:1:pos:R:3:forces:R:3 energy=3.2228945007169605 pbc="F F F"
Os       0.00000000       0.00000000       0.00000000       0.00000000       0.00000000     -76.86373138
Os       0.00000000       0.00000000       1.59090909       0.00000000       0.00000000      76.86373138
2
Properties=species:S:1:pos:R:3:forces:R:3 energy=-0.5799337488058617 pbc="F F F"
Os       0.00000000       0.00000000       0.00000000       0.00000000       0.00000000     -54.75429535
Os       0.00000000       0.00000000       1.64969697       0.00000000       0.00000000      54.75429535
2
Properties=species:S:1:pos:R:3:forces:R:3 energy=-3.3897951438314124 pbc="F F F"
Os       0.00000000       0.00000000       0.00000000       0.00000000       0.00000000     -41.73933411
Os       0.00000000       0.00000000       1.70848485       0.00000000       0.00000000      41.73933411
2
Properties=species:S:1:pos:R:3:forces:R:3 energy=-5.559920526702469 pbc="F F F"
Os       0.00000000       0.00000000       0.00000000       0.00000000       0.00000000     -32.52948761
Os       0.00000000       0.00000000       1.76727273       0.00000000       0.00000000      32.52948761
2
Properties=species:S:1:pos:R:3:forces:R:3 energy=-7.252683891699258 pbc="F F F"
Os       0.00000000       0.00000000       0.00000000       0.00000000       0.00000000     -25.29169273
Os       0.00000000       0.00000000       1.82606061       0.00000000       0.00000000      25.29169273
2
Properties=species:S:1:pos:R:3:forces:R:3 energy=-8.5542755733894 pbc="F F F"
Os       0.00000000       0.00000000       0.00000000       0.00000000       0.00000000     -19.12826920
Os       0.00000000       0.00000000       1.88484848       0.00000000       0.00000000      19.12826920
2
Properties=species:S:1:pos:R:3:forces:R:3 energy=-9.515854939304228 pbc="F F F"
Os       0.00000000       0.00000000       0.00000000       0.00000000       0.00000000     -13.69534779
Os       0.00000000       0.00000000       1.94363636       0.00000000       0.00000000      13.69534779
2
Properties=species:S:1:pos:R:3:forces:R:3 energy=-10.177435375437257 pbc="F F F"
Os       0.00000000       0.00000000       0.00000000       0.00000000       0.00000000      -8.92644215
Os       0.00000000       0.00000000       2.00242424       0.00000000       0.00000000       8.92644215
2
Properties=species:S:1:pos:R:3:forces:R:3 energy=-10.579794255784261 pbc="F F F"
Os       0.00000000       0.00000000       0.00000000       0.00000000       0.00000000      -4.89240217
Os       0.00000000       0.00000000       2.06121212       0.00000000       0.00000000       4.89240217
2
Properties=species:S:1:pos:R:3:forces:R:3 energy=-10.7684465767742 pbc="F F F"
Os       0.00000000       0.00000000       0.00000000       0.00000000       0.00000000      -1.66013801
Os       0.00000000       0.00000000       2.12000000       0.00000000       0.00000000       1.66013801
2
Properties=species:S:1:pos:R:3:forces:R:3 energy=-10.7901812563417 pbc="F F F"
Os       0.00000000       0.00000000       0.00000000       0.00000000       0.00000000       0.79987645
Os       0.00000000       0.00000000       2.17878788       0.00000000       0.00000000      -0.79987645
2
Properties=species:S:1:pos:R:3:forces:R:3 energy=-10.687231896046816 pbc="F F F"
Os       0.00000000       0.00000000       0.00000000       0.00000000       0.00000000       2.60589790
Os       0.00000000       0.00000000       2.23757576       0.00000000       0.00000000      -2.60589790
2
Properties=species:S:1:pos:R:3:forces:R:3 energy=-10.493794177563723 pbc="F F F"
Os       0.00000000       0.00000000       0.00000000       0.00000000       0.00000000       3.89950633
Os       0.00000000       0.00000000       2.29636364       0.00000000       0.00000000      -3.89950633
2
Properties=species:S:1:pos:R:3:forces:R:3 energy=-10.236952332960964 pbc="F F F"
Os       0.00000000       0.00000000       0.00000000       0.00000000       0.00000000       4.77190542
Os       0.00000000       0.00000000       2.35515152       0.00000000       0.00000000      -4.77190542
2
Properties=species:S:1:pos:R:3:forces:R:3 energy=-9.940413685007917 pbc="F F F"
Os       0.00000000       0.00000000       0.00000000       0.00000000       0.00000000       5.25286722
Os       0.00000000       0.00000000       2.41393939       0.00000000       0.00000000      -5.25286722
2
Properties=species:S:1:pos:R:3:forces:R:3 energy=-9.626321099262515 pbc="F F F"
Os       0.00000000       0.00000000       0.00000000       0.00000000       0.00000000       5.38013935
Os       0.00000000       0.00000000       2.47272727       0.00000000       0.00000000      -5.38013935
2
Properties=species:S:1:pos:R:3:forces:R:3 energy=-9.31285195065393 pbc="F F F"
Os       0.00000000       0.00000000       0.00000000       0.00000000       0.00000000       5.25248718
Os       0.00000000       0.00000000       2.53151515       0.00000000       0.00000000      -5.25248718
2
Properties=species:S:1:pos:R:3:forces:R:3 energy=-9.011287760117492 pbc="F F F"
Os       0.00000000       0.00000000       0.00000000       0.00000000       0.00000000       4.99378633
Os       0.00000000       0.00000000       2.59030303       0.00000000       0.00000000      -4.99378633
2
Properties=species:S:1:pos:R:3:forces:R:3 energy=-8.726697655671188 pbc="F F F"
Os       0.00000000       0.00000000       0.00000000       0.00000000       0.00000000       4.68200731
Os       0.00000000       0.00000000       2.64909091       0.00000000       0.00000000      -4.68200731
2
Properties=species:S:1:pos:R:3:forces:R:3 energy=-8.461517397909699 pbc="F F F"
Os       0.00000000       0.00000000       0.00000000       0.00000000       0.00000000       4.33303976
Os       0.00000000       0.00000000       2.70787879       0.00000000       0.00000000      -4.33303976
2
Properties=species:S:1:pos:R:3:forces:R:3 energy=-8.217951222946775 pbc="F F F"
Os       0.00000000       0.00000000       0.00000000       0.00000000       0.00000000       3.94879603
Os       0.00000000       0.00000000       2.76666667       0.00000000       0.00000000      -3.94879603
2
Properties=species:S:1:pos:R:3:forces:R:3 energy=-7.997393754555473 pbc="F F F"
Os       0.00000000       0.00000000       0.00000000       0.00000000       0.00000000       3.55683112
Os       0.00000000       0.00000000       2.82545455       0.00000000       0.00000000      -3.55683112
2
Properties=species:S:1:pos:R:3:forces:R:3 energy=-7.799148996815946 pbc="F F F"
Os       0.00000000       0.00000000       0.00000000       0.00000000       0.00000000       3.19499660
Os       0.00000000       0.00000000       2.88424242       0.00000000       0.00000000      -3.19499660
2
Properties=species:S:1:pos:R:3:forces:R:3 energy=-7.6207463651409535 pbc="F F F"
Os       0.00000000       0.00000000       0.00000000       0.00000000       0.00000000       2.88304210
Os       0.00000000       0.00000000       2.94303030       0.00000000       0.00000000      -2.88304210
2
Properties=species:S:1:pos:R:3:forces:R:3 energy=-7.45922349532537 pbc="F F F"
Os       0.00000000       0.00000000       0.00000000       0.00000000       0.00000000       2.61926770
Os       0.00000000       0.00000000       3.00181818       0.00000000       0.00000000      -2.61926770
2
Properties=species:S:1:pos:R:3:forces:R:3 energy=-7.312029374790118 pbc="F F F"
Os       0.00000000       0.00000000       0.00000000       0.00000000       0.00000000       2.39430642
Os       0.00000000       0.00000000       3.06060606       0.00000000       0.00000000      -2.39430642
2
Properties=species:S:1:pos:R:3:forces:R:3 energy=-7.177010910486579 pbc="F F F"
Os       0.00000000       0.00000000       0.00000000       0.00000000       0.00000000       2.20534325
Os       0.00000000       0.00000000       3.11939394       0.00000000       0.00000000      -2.20534325
2
Properties=species:S:1:pos:R:3:forces:R:3 energy=-7.051984115282744 pbc="F F F"
Os       0.00000000       0.00000000       0.00000000       0.00000000       0.00000000       2.05433083
Os       0.00000000       0.00000000       3.17818182       0.00000000       0.00000000      -2.05433083
2
Properties=species:S:1:pos:R:3:forces:R:3 energy=-6.934843648877543 pbc="F F F"
Os       0.00000000       0.00000000       0.00000000       0.00000000       0.00000000       1.93486810
Os       0.00000000       0.00000000       3.23696970       0.00000000       0.00000000      -1.93486810
2
Properties=species:S:1:pos:R:3:forces:R:3 energy=-6.824227524323572 pbc="F F F"
Os       0.00000000       0.00000000       0.00000000       0.00000000       0.00000000       1.82882822
Os       0.00000000       0.00000000       3.29575758       0.00000000       0.00000000      -1.82882822
2
Properties=species:S:1:pos:R:3:forces:R:3 energy=-6.719912798906534 pbc="F F F"
Os       0.00000000       0.00000000       0.00000000       0.00000000       0.00000000       1.71839750
Os       0.00000000       0.00000000       3.35454545       0.00000000       0.00000000      -1.71839750
2
Properties=species:S:1:pos:R:3:forces:R:3 energy=-6.6223905882126655 pbc="F F F"
Os       0.00000000       0.00000000       0.00000000       0.00000000       0.00000000       1.59794903
Os       0.00000000       0.00000000       3.41333333       0.00000000       0.00000000      -1.59794903
2
Properties=species:S:1:pos:R:3:forces:R:3 energy=-6.532120257807411 pbc="F F F"
Os       0.00000000       0.00000000       0.00000000       0.00000000       0.00000000       1.47305918
Os       0.00000000       0.00000000       3.47212121       0.00000000       0.00000000      -1.47305918
2
Properties=species:S:1:pos:R:3:forces:R:3 energy=-6.449130977440498 pbc="F F F"
Os       0.00000000       0.00000000       0.00000000       0.00000000       0.00000000       1.35126650
Os       0.00000000       0.00000000       3.53090909       0.00000000       0.00000000      -1.35126650
2
Properties=species:S:1:pos:R:3:forces:R:3 energy=-6.373120123730739 pbc="F F F"
Os       0.00000000       0.00000000       0.00000000       0.00000000       0.00000000       1.23562956
Os       0.00000000       0.00000000       3.58969697       0.00000000       0.00000000      -1.23562956
2
Properties=species:S:1:pos:R:3:forces:R:3 energy=-6.303748935043235 pbc="F F F"
Os       0.00000000       0.00000000       0.00000000       0.00000000       0.00000000       1.12513399
Os       0.00000000       0.00000000       3.64848485       0.00000000       0.00000000      -1.12513399
2
Properties=species:S:1:pos:R:3:forces:R:3 energy=-6.240761332640785 pbc="F F F"
Os       0.00000000       0.00000000       0.00000000       0.00000000       0.00000000       1.01837504
Os       0.00000000       0.00000000       3.70727273       0.00000000       0.00000000      -1.01837504
2
Properties=species:S:1:pos:R:3:forces:R:3 energy=-6.1839219223498505 pbc="F F F"
Os       0.00000000       0.00000000       0.00000000       0.00000000       0.00000000       0.91633588
Os       0.00000000       0.00000000       3.76606061       0.00000000       0.00000000      -0.91633588
2
Properties=species:S:1:pos:R:3:forces:R:3 energy=-6.132860634346006 pbc="F F F"
Os       0.00000000       0.00000000       0.00000000       0.00000000       0.00000000       0.82258034
Os       0.00000000       0.00000000       3.82484848       0.00000000       0.00000000      -0.82258034
2
Properties=species:S:1:pos:R:3:forces:R:3 energy=-6.086956397062091 pbc="F F F"
Os       0.00000000       0.00000000       0.00000000       0.00000000       0.00000000       0.74153262
Os       0.00000000       0.00000000       3.88363636       0.00000000       0.00000000      -0.74153262
2
Properties=species:S:1:pos:R:3:forces:R:3 energy=-6.045360565565402 pbc="F F F"
Os       0.00000000       0.00000000       0.00000000       0.00000000       0.00000000       0.67637306
Os       0.00000000       0.00000000       3.94242424       0.00000000       0.00000000      -0.67637306
2
Properties=species:S:1:pos:R:3:forces:R:3 energy=-6.007109477301789 pbc="F F F"
Os       0.00000000       0.00000000       0.00000000       0.00000000       0.00000000       0.62757987
Os       0.00000000       0.00000000       4.00121212       0.00000000       0.00000000      -0.62757987
2
Properties=species:S:1:pos:R:3:forces:R:3 energy=-5.971301819679392 pbc="F F F"
Os       0.00000000       0.00000000       0.00000000       0.00000000       0.00000000       0.59252310
Os       0.00000000       0.00000000       4.06000000       0.00000000       0.00000000      -0.59252310
2
Properties=species:S:1:pos:R:3:forces:R:3 energy=-5.937275695045443 pbc="F F F"
Os       0.00000000       0.00000000       0.00000000       0.00000000       0.00000000       0.56595695
Os       0.00000000       0.00000000       4.11878788       0.00000000       0.00000000      -0.56595695
2
Properties=species:S:1:pos:R:3:forces:R:3 energy=-5.904725350755361 pbc="F F F"
Os       0.00000000       0.00000000       0.00000000       0.00000000       0.00000000       0.54108828
Os       0.00000000       0.00000000       4.17757576       0.00000000       0.00000000      -0.54108828
2
Properties=species:S:1:pos:R:3:forces:R:3 energy=-5.873760878852193 pbc="F F F"
Os       0.00000000       0.00000000       0.00000000       0.00000000       0.00000000       0.51091123
Os       0.00000000       0.00000000       4.23636364       0.00000000       0.00000000      -0.51091123
2
Properties=species:S:1:pos:R:3:forces:R:3 energy=-5.844875238274963 pbc="F F F"
Os       0.00000000       0.00000000       0.00000000       0.00000000       0.00000000       0.46950778
Os       0.00000000       0.00000000       4.29515152       0.00000000       0.00000000      -0.46950778
2
Properties=species:S:1:pos:R:3:forces:R:3 energy=-5.81885371281942 pbc="F F F"
Os       0.00000000       0.00000000       0.00000000       0.00000000       0.00000000       0.41315264
Os       0.00000000       0.00000000       4.35393939       0.00000000       0.00000000      -0.41315264
2
Properties=species:S:1:pos:R:3:forces:R:3 energy=-5.796610298971966 pbc="F F F"
Os       0.00000000       0.00000000       0.00000000       0.00000000       0.00000000       0.34105581
Os       0.00000000       0.00000000       4.41272727       0.00000000       0.00000000      -0.34105581
2
Properties=species:S:1:pos:R:3:forces:R:3 energy=-5.77901366668256 pbc="F F F"
Os       0.00000000       0.00000000       0.00000000       0.00000000       0.00000000       0.25577655
Os       0.00000000       0.00000000       4.47151515       0.00000000       0.00000000      -0.25577655
2
Properties=species:S:1:pos:R:3:forces:R:3 energy=-5.766683454863505 pbc="F F F"
Os       0.00000000       0.00000000       0.00000000       0.00000000       0.00000000       0.16310543
Os       0.00000000       0.00000000       4.53030303       0.00000000       0.00000000      -0.16310543
2
Properties=species:S:1:pos:R:3:forces:R:3 energy=-5.759819036164492 pbc="F F F"
Os       0.00000000       0.00000000       0.00000000       0.00000000       0.00000000       0.07137847
Os       0.00000000       0.00000000       4.58909091       0.00000000       0.00000000      -0.07137847
2
Properties=species:S:1:pos:R:3:forces:R:3 energy=-5.758084125548143 pbc="F F F"
Os       0.00000000       0.00000000       0.00000000       0.00000000       0.00000000      -0.00979194
Os       0.00000000       0.00000000       4.64787879       0.00000000       0.00000000       0.00979194
2
Properties=species:S:1:pos:R:3:forces:R:3 energy=-5.760581785184981 pbc="F F F"
Os       0.00000000       0.00000000       0.00000000       0.00000000       0.00000000      -0.07119966
Os       0.00000000       0.00000000       4.70666667       0.00000000       0.00000000       0.07119966
2
Properties=species:S:1:pos:R:3:forces:R:3 energy=-5.765928845896165 pbc="F F F"
Os       0.00000000       0.00000000       0.00000000       0.00000000       0.00000000      -0.10586110
Os       0.00000000       0.00000000       4.76545455       0.00000000       0.00000000       0.10586110
2
Properties=species:S:1:pos:R:3:forces:R:3 energy=-5.772441247920378 pbc="F F F"
Os       0.00000000       0.00000000       0.00000000       0.00000000       0.00000000      -0.11072038
Os       0.00000000       0.00000000       4.82424242       0.00000000       0.00000000       0.11072038
2
Properties=species:S:1:pos:R:3:forces:R:3 energy=-5.778399152870331 pbc="F F F"
Os       0.00000000       0.00000000       0.00000000       0.00000000       0.00000000      -0.08783694
Os       0.00000000       0.00000000       4.88303030       0.00000000       0.00000000       0.08783694
2
Properties=species:S:1:pos:R:3:forces:R:3 energy=-5.782369086078905 pbc="F F F"
Os       0.00000000       0.00000000       0.00000000       0.00000000       0.00000000      -0.04474452
Os       0.00000000       0.00000000       4.94181818       0.00000000       0.00000000       0.04474452
2
Properties=species:S:1:pos:R:3:forces:R:3 energy=-5.783499149485242 pbc="F F F"
Os       0.00000000       0.00000000       0.00000000       0.00000000       0.00000000       0.00649914
Os       0.00000000       0.00000000       5.00060606       0.00000000       0.00000000      -0.00649914
2
Properties=species:S:1:pos:R:3:forces:R:3 energy=-5.781718241364378 pbc="F F F"
Os       0.00000000       0.00000000       0.00000000       0.00000000       0.00000000       0.05202888
Os       0.00000000       0.00000000       5.05939394       0.00000000       0.00000000      -0.05202888
2
Properties=species:S:1:pos:R:3:forces:R:3 energy=-5.777721180924593 pbc="F F F"
Os       0.00000000       0.00000000       0.00000000       0.00000000       0.00000000       0.08050234
Os       0.00000000       0.00000000       5.11818182       0.00000000       0.00000000      -0.08050234
2
Properties=species:S:1:pos:R:3:forces:R:3 energy=-5.77267068666744 pbc="F F F"
Os       0.00000000       0.00000000       0.00000000       0.00000000       0.00000000       0.08804666
Os       0.00000000       0.00000000       5.17696970       0.00000000       0.00000000      -0.08804666
2
Properties=species:S:1:pos:R:3:forces:R:3 energy=-5.767663309267093 pbc="F F F"
Os       0.00000000       0.00000000       0.00000000       0.00000000       0.00000000       0.08083059
Os       0.00000000       0.00000000       5.23575758       0.00000000       0.00000000      -0.08083059
2
Properties=species:S:1:pos:R:3:forces:R:3 energy=-5.763218171853823 pbc="F F F"
Os       0.00000000       0.00000000       0.00000000       0.00000000       0.00000000       0.07072239
Os       0.00000000       0.00000000       5.29454545       0.00000000       0.00000000      -0.07072239
2
Properties=species:S:1:pos:R:3:forces:R:3 energy=-5.759329974966288 pbc="F F F"
Os       0.00000000       0.00000000       0.00000000       0.00000000       0.00000000       0.06058372
Os       0.00000000       0.00000000       5.35333333       0.00000000       0.00000000      -0.06058372
2
Properties=species:S:1:pos:R:3:forces:R:3 energy=-5.756476033864062 pbc="F F F"
Os       0.00000000       0.00000000       0.00000000       0.00000000       0.00000000       0.03103493
Os       0.00000000       0.00000000       5.41212121       0.00000000       0.00000000      -0.03103493
2
Properties=species:S:1:pos:R:3:forces:R:3 energy=-5.756318664413397 pbc="F F F"
Os       0.00000000       0.00000000       0.00000000       0.00000000       0.00000000      -0.02829876
Os       0.00000000       0.00000000       5.47090909       0.00000000       0.00000000       0.02829876
2
Properties=species:S:1:pos:R:3:forces:R:3 energy=-5.759481255763054 pbc="F F F"
Os       0.00000000       0.00000000       0.00000000       0.00000000       0.00000000      -0.07206037
Os       0.00000000       0.00000000       5.52969697       0.00000000       0.00000000       0.07206037
2
Properties=species:S:1:pos:R:3:forces:R:3 energy=-5.763896536522602 pbc="F F F"
Os       0.00000000       0.00000000       0.00000000       0.00000000       0.00000000      -0.07275287
Os       0.00000000       0.00000000       5.58848485       0.00000000       0.00000000       0.07275287
2
Properties=species:S:1:pos:R:3:forces:R:3 energy=-5.767823052960847 pbc="F F F"
Os       0.00000000       0.00000000       0.00000000       0.00000000       0.00000000      -0.06236107
Os       0.00000000       0.00000000       5.64727273       0.00000000       0.00000000       0.06236107
2
Properties=species:S:1:pos:R:3:forces:R:3 energy=-5.771557998172413 pbc="F F F"
Os       0.00000000       0.00000000       0.00000000       0.00000000       0.00000000      -0.06690382
Os       0.00000000       0.00000000       5.70606061       0.00000000       0.00000000       0.06690382
2
Properties=species:S:1:pos:R:3:forces:R:3 energy=-5.775566635342998 pbc="F F F"
Os       0.00000000       0.00000000       0.00000000       0.00000000       0.00000000      -0.06413198
Os       0.00000000       0.00000000       5.76484848       0.00000000       0.00000000       0.06413198
2
Properties=species:S:1:pos:R:3:forces:R:3 energy=-5.77841905346014 pbc="F F F"
Os       0.00000000       0.00000000       0.00000000       0.00000000       0.00000000      -0.02946249
Os       0.00000000       0.00000000       5.82363636       0.00000000       0.00000000       0.02946249
2
Properties=species:S:1:pos:R:3:forces:R:3 energy=-5.779112359521931 pbc="F F F"
Os       0.00000000       0.00000000       0.00000000       0.00000000       0.00000000       0.00183378
Os       0.00000000       0.00000000       5.88242424       0.00000000       0.00000000      -0.00183378
2
Properties=species:S:1:pos:R:3:forces:R:3 energy=-5.7786614912440735 pbc="F F F"
Os       0.00000000       0.00000000       0.00000000       0.00000000       0.00000000       0.01079741
Os       0.00000000       0.00000000       5.94121212       0.00000000       0.00000000      -0.01079741
2
Properties=species:S:1:pos:R:3:forces:R:3 energy=-5.777999216711681 pbc="F F F"
Os       0.00000000       0.00000000       0.00000000       0.00000000       0.00000000       0.01128462
Os       0.00000000       0.00000000       6.00000000       0.00000000       0.00000000      -0.01128462
