2
Properties=species:S:1:pos:R:3:forces:R:3 energy=16960.755400824975 pbc="F F F"
Pb       0.00000000       0.00000000       0.00000000       0.00000000       0.00000000 -301832.78125000
Pb       0.00000000       0.00000000       0.18000000       0.00000000       0.00000000  301832.78125000
2
Properties=species:S:1:pos:R:3:forces:R:3 energy=6466.447783637477 pbc="F F F"
Pb       0.00000000       0.00000000       0.00000000       0.00000000       0.00000000  -98560.75781250
Pb       0.00000000       0.00000000       0.23878788       0.00000000       0.00000000   98560.75781250
2
Properties=species:S:1:pos:R:3:forces:R:3 energy=2775.3025199656017 pbc="F F F"
Pb       0.00000000       0.00000000       0.00000000       0.00000000       0.00000000  -37839.66796875
Pb       0.00000000       0.00000000       0.29757576       0.00000000       0.00000000   37839.66796875
2
Properties=species:S:1:pos:R:3:forces:R:3 energy=1290.9563285593517 pbc="F F F"
Pb       0.00000000       0.00000000       0.00000000       0.00000000       0.00000000  -16077.60839844
Pb       0.00000000       0.00000000       0.35636364       0.00000000       0.00000000   16077.60839844
2
Properties=species:S:1:pos:R:3:forces:R:3 energy=638.7254935984142 pbc="F F F"
Pb       0.00000000       0.00000000       0.00000000       0.00000000       0.00000000   -7358.23681641
Pb       0.00000000       0.00000000       0.41515152       0.00000000       0.00000000    7358.23681641
2
Properties=species:S:1:pos:R:3:forces:R:3 energy=331.84448164185926 pbc="F F F"
Pb       0.00000000       0.00000000       0.00000000       0.00000000       0.00000000   -3580.83422852
Pb       0.00000000       0.00000000       0.47393939       0.00000000       0.00000000    3580.83422852
2
Properties=species:S:1:pos:R:3:forces:R:3 energy=178.87596053636648 pbc="F F F"
Pb       0.00000000       0.00000000       0.00000000       0.00000000       0.00000000   -1836.61450195
Pb       0.00000000       0.00000000       0.53272727       0.00000000       0.00000000    1836.61450195
2
Properties=species:S:1:pos:R:3:forces:R:3 energy=98.86518785029529 pbc="F F F"
Pb       0.00000000       0.00000000       0.00000000       0.00000000       0.00000000    -981.68768311
Pb       0.00000000       0.00000000       0.59151515       0.00000000       0.00000000     981.68768311
2
Properties=species:S:1:pos:R:3:forces:R:3 energy=55.59021687367273 pbc="F F F"
Pb       0.00000000       0.00000000       0.00000000       0.00000000       0.00000000    -536.19189453
Pb       0.00000000       0.00000000       0.65030303       0.00000000       0.00000000     536.19189453
2
Properties=species:S:1:pos:R:3:forces:R:3 energy=31.9971306816821 pbc="F F F"
Pb       0.00000000       0.00000000       0.00000000       0.00000000       0.00000000    -289.36499023
Pb       0.00000000       0.00000000       0.70909091       0.00000000       0.00000000     289.36499023
2
Properties=species:S:1:pos:R:3:forces:R:3 energy=19.810603505512567 pbc="F F F"
Pb       0.00000000       0.00000000       0.00000000       0.00000000       0.00000000    -129.33947754
Pb       0.00000000       0.00000000       0.76787879       0.00000000       0.00000000     129.33947754
2
Properties=species:S:1:pos:R:3:forces:R:3 energy=16.774707318284634 pbc="F F F"
Pb       0.00000000       0.00000000       0.00000000       0.00000000       0.00000000       9.72647381
Pb       0.00000000       0.00000000       0.82666667       0.00000000       0.00000000      -9.72647381
2
Properties=species:S:1:pos:R:3:forces:R:3 energy=18.390220330911774 pbc="F F F"
Pb       0.00000000       0.00000000       0.00000000       0.00000000       0.00000000      32.37459564
Pb       0.00000000       0.00000000       0.88545455       0.00000000       0.00000000     -32.37459564
2
Properties=species:S:1:pos:R:3:forces:R:3 energy=20.082302010410984 pbc="F F F"
Pb       0.00000000       0.00000000       0.00000000       0.00000000       0.00000000      29.36674881
Pb       0.00000000       0.00000000       0.94424242       0.00000000       0.00000000     -29.36674881
2
Properties=species:S:1:pos:R:3:forces:R:3 energy=21.27884506072572 pbc="F F F"
Pb       0.00000000       0.00000000       0.00000000       0.00000000       0.00000000      -4.98998165
Pb       0.00000000       0.00000000       1.00303030       0.00000000       0.00000000       4.98998165
2
Properties=species:S:1:pos:R:3:forces:R:3 energy=21.32137554186052 pbc="F F F"
Pb       0.00000000       0.00000000       0.00000000       0.00000000       0.00000000       8.92530060
Pb       0.00000000       0.00000000       1.06181818       0.00000000       0.00000000      -8.92530060
2
Properties=species:S:1:pos:R:3:forces:R:3 energy=22.140544196553172 pbc="F F F"
Pb       0.00000000       0.00000000       0.00000000       0.00000000       0.00000000      17.28965187
Pb       0.00000000       0.00000000       1.12060606       0.00000000       0.00000000     -17.28965187
2
Properties=species:S:1:pos:R:3:forces:R:3 energy=23.168260611303488 pbc="F F F"
Pb       0.00000000       0.00000000       0.00000000       0.00000000       0.00000000      16.95172119
Pb       0.00000000       0.00000000       1.17939394       0.00000000       0.00000000     -16.95172119
2
Properties=species:S:1:pos:R:3:forces:R:3 energy=24.881253279295493 pbc="F F F"
Pb       0.00000000       0.00000000       0.00000000       0.00000000       0.00000000      49.33892822
Pb       0.00000000       0.00000000       1.23818182       0.00000000       0.00000000     -49.33892822
2
Properties=species:S:1:pos:R:3:forces:R:3 energy=26.702060995867274 pbc="F F F"
Pb       0.00000000       0.00000000       0.00000000       0.00000000       0.00000000      11.03375721
Pb       0.00000000       0.00000000       1.29696970       0.00000000       0.00000000     -11.03375721
2
Properties=species:S:1:pos:R:3:forces:R:3 energy=26.41066353335364 pbc="F F F"
Pb       0.00000000       0.00000000       0.00000000       0.00000000       0.00000000     -22.04399681
Pb       0.00000000       0.00000000       1.35575758       0.00000000       0.00000000      22.04399681
2
Properties=species:S:1:pos:R:3:forces:R:3 energy=24.246332112715827 pbc="F F F"
Pb       0.00000000       0.00000000       0.00000000       0.00000000       0.00000000     -48.03121948
Pb       0.00000000       0.00000000       1.41454545       0.00000000       0.00000000      48.03121948
2
Properties=species:S:1:pos:R:3:forces:R:3 energy=21.18416066420558 pbc="F F F"
Pb       0.00000000       0.00000000       0.00000000       0.00000000       0.00000000     -54.20001221
Pb       0.00000000       0.00000000       1.47333333       0.00000000       0.00000000      54.20001221
2
Properties=species:S:1:pos:R:3:forces:R:3 energy=17.975913564503813 pbc="F F F"
Pb       0.00000000       0.00000000       0.00000000       0.00000000       0.00000000     -53.92422485
Pb       0.00000000       0.00000000       1.53212121       0.00000000       0.00000000      53.92422485
2
Properties=species:S:1:pos:R:3:forces:R:3 energy=14.93586380187067 pbc="F F F"
Pb       0.00000000       0.00000000       0.00000000       0.00000000       0.00000000     -49.77156448
Pb       0.00000000       0.00000000       1.59090909       0.00000000       0.00000000      49.77156448
2
Properties=species:S:1:pos:R:3:forces:R:3 energy=12.044369617294874 pbc="F F F"
Pb       0.00000000       0.00000000       0.00000000       0.00000000       0.00000000     -48.78524780
Pb       0.00000000       0.00000000       1.64969697       0.00000000       0.00000000      48.78524780
2
Properties=species:S:1:pos:R:3:forces:R:3 energy=9.258663622273534 pbc="F F F"
Pb       0.00000000       0.00000000       0.00000000       0.00000000       0.00000000     -45.20056915
Pb       0.00000000       0.00000000       1.70848485       0.00000000       0.00000000      45.20056915
2
Properties=species:S:1:pos:R:3:forces:R:3 energy=6.798937434920076 pbc="F F F"
Pb       0.00000000       0.00000000       0.00000000       0.00000000       0.00000000     -38.20214462
Pb       0.00000000       0.00000000       1.76727273       0.00000000       0.00000000      38.20214462
2
Properties=species:S:1:pos:R:3:forces:R:3 energy=4.7685585517728715 pbc="F F F"
Pb       0.00000000       0.00000000       0.00000000       0.00000000       0.00000000     -31.04004860
Pb       0.00000000       0.00000000       1.82606061       0.00000000       0.00000000      31.04004860
2
Properties=species:S:1:pos:R:3:forces:R:3 energy=3.122016886687137 pbc="F F F"
Pb       0.00000000       0.00000000       0.00000000       0.00000000       0.00000000     -25.22129250
Pb       0.00000000       0.00000000       1.88484848       0.00000000       0.00000000      25.22129250
2
Properties=species:S:1:pos:R:3:forces:R:3 energy=1.777877790143469 pbc="F F F"
Pb       0.00000000       0.00000000       0.00000000       0.00000000       0.00000000     -20.68339157
Pb       0.00000000       0.00000000       1.94363636       0.00000000       0.00000000      20.68339157
2
Properties=species:S:1:pos:R:3:forces:R:3 energy=0.6736840669483642 pbc="F F F"
Pb       0.00000000       0.00000000       0.00000000       0.00000000       0.00000000     -16.99296761
Pb       0.00000000       0.00000000       2.00242424       0.00000000       0.00000000      16.99296761
2
Properties=species:S:1:pos:R:3:forces:R:3 energy=-0.23110043946405545 pbc="F F F"
Pb       0.00000000       0.00000000       0.00000000       0.00000000       0.00000000     -13.87165070
Pb       0.00000000       0.00000000       2.06121212       0.00000000       0.00000000      13.87165070
2
Properties=species:S:1:pos:R:3:forces:R:3 energy=-0.9665636239181905 pbc="F F F"
Pb       0.00000000       0.00000000       0.00000000       0.00000000       0.00000000     -11.22588539
Pb       0.00000000       0.00000000       2.12000000       0.00000000       0.00000000      11.22588539
2
Properties=species:S:1:pos:R:3:forces:R:3 energy=-1.559810400850368 pbc="F F F"
Pb       0.00000000       0.00000000       0.00000000       0.00000000       0.00000000      -9.02911091
Pb       0.00000000       0.00000000       2.17878788       0.00000000       0.00000000       9.02911091
2
Properties=species:S:1:pos:R:3:forces:R:3 energy=-2.0361918491186444 pbc="F F F"
Pb       0.00000000       0.00000000       0.00000000       0.00000000       0.00000000      -7.24062586
Pb       0.00000000       0.00000000       2.23757576       0.00000000       0.00000000       7.24062586
2
Properties=species:S:1:pos:R:3:forces:R:3 energy=-2.4177823355035497 pbc="F F F"
Pb       0.00000000       0.00000000       0.00000000       0.00000000       0.00000000      -5.79117155
Pb       0.00000000       0.00000000       2.29636364       0.00000000       0.00000000       5.79117155
2
Properties=species:S:1:pos:R:3:forces:R:3 energy=-2.722210906042621 pbc="F F F"
Pb       0.00000000       0.00000000       0.00000000       0.00000000       0.00000000      -4.60339689
Pb       0.00000000       0.00000000       2.35515152       0.00000000       0.00000000       4.60339689
2
Properties=species:S:1:pos:R:3:forces:R:3 energy=-2.9628844711630182 pbc="F F F"
Pb       0.00000000       0.00000000       0.00000000       0.00000000       0.00000000      -3.61305428
Pb       0.00000000       0.00000000       2.41393939       0.00000000       0.00000000       3.61305428
2
Properties=species:S:1:pos:R:3:forces:R:3 energy=-3.15001733195213 pbc="F F F"
Pb       0.00000000       0.00000000       0.00000000       0.00000000       0.00000000      -2.77619696
Pb       0.00000000       0.00000000       2.47272727       0.00000000       0.00000000       2.77619696
2
Properties=species:S:1:pos:R:3:forces:R:3 energy=-3.291749350622268 pbc="F F F"
Pb       0.00000000       0.00000000       0.00000000       0.00000000       0.00000000      -2.06472898
Pb       0.00000000       0.00000000       2.53151515       0.00000000       0.00000000       2.06472898
2
Properties=species:S:1:pos:R:3:forces:R:3 energy=-3.394857200649464 pbc="F F F"
Pb       0.00000000       0.00000000       0.00000000       0.00000000       0.00000000      -1.45944524
Pb       0.00000000       0.00000000       2.59030303       0.00000000       0.00000000       1.45944524
2
Properties=species:S:1:pos:R:3:forces:R:3 energy=-3.4651216739372783 pbc="F F F"
Pb       0.00000000       0.00000000       0.00000000       0.00000000       0.00000000      -0.94488227
Pb       0.00000000       0.00000000       2.64909091       0.00000000       0.00000000       0.94488227
2
Properties=species:S:1:pos:R:3:forces:R:3 energy=-3.5074520307769625 pbc="F F F"
Pb       0.00000000       0.00000000       0.00000000       0.00000000       0.00000000      -0.50681955
Pb       0.00000000       0.00000000       2.70787879       0.00000000       0.00000000       0.50681955
2
Properties=species:S:1:pos:R:3:forces:R:3 energy=-3.5259466943829034 pbc="F F F"
Pb       0.00000000       0.00000000       0.00000000       0.00000000       0.00000000      -0.13192527
Pb       0.00000000       0.00000000       2.76666667       0.00000000       0.00000000       0.13192527
2
Properties=species:S:1:pos:R:3:forces:R:3 energy=-3.523980480414351 pbc="F F F"
Pb       0.00000000       0.00000000       0.00000000       0.00000000       0.00000000       0.19090293
Pb       0.00000000       0.00000000       2.82545455       0.00000000       0.00000000      -0.19090293
2
Properties=species:S:1:pos:R:3:forces:R:3 energy=-3.5043721442159903 pbc="F F F"
Pb       0.00000000       0.00000000       0.00000000       0.00000000       0.00000000       0.46913913
Pb       0.00000000       0.00000000       2.88424242       0.00000000       0.00000000      -0.46913913
2
Properties=species:S:1:pos:R:3:forces:R:3 energy=-3.469615223855487 pbc="F F F"
Pb       0.00000000       0.00000000       0.00000000       0.00000000       0.00000000       0.70674944
Pb       0.00000000       0.00000000       2.94303030       0.00000000       0.00000000      -0.70674944
2
Properties=species:S:1:pos:R:3:forces:R:3 energy=-3.4220268179886557 pbc="F F F"
Pb       0.00000000       0.00000000       0.00000000       0.00000000       0.00000000       0.90612805
Pb       0.00000000       0.00000000       3.00181818       0.00000000       0.00000000      -0.90612805
2
Properties=species:S:1:pos:R:3:forces:R:3 energy=-3.3637667795631785 pbc="F F F"
Pb       0.00000000       0.00000000       0.00000000       0.00000000       0.00000000       1.07040298
Pb       0.00000000       0.00000000       3.06060606       0.00000000       0.00000000      -1.07040298
2
Properties=species:S:1:pos:R:3:forces:R:3 energy=-3.296766637420017 pbc="F F F"
Pb       0.00000000       0.00000000       0.00000000       0.00000000       0.00000000       1.20440459
Pb       0.00000000       0.00000000       3.11939394       0.00000000       0.00000000      -1.20440459
2
Properties=species:S:1:pos:R:3:forces:R:3 energy=-3.222641419625529 pbc="F F F"
Pb       0.00000000       0.00000000       0.00000000       0.00000000       0.00000000       1.31364822
Pb       0.00000000       0.00000000       3.17818182       0.00000000       0.00000000      -1.31364822
2
Properties=species:S:1:pos:R:3:forces:R:3 energy=-3.142716310531499 pbc="F F F"
Pb       0.00000000       0.00000000       0.00000000       0.00000000       0.00000000       1.40225518
Pb       0.00000000       0.00000000       3.23696970       0.00000000       0.00000000      -1.40225518
2
Properties=species:S:1:pos:R:3:forces:R:3 energy=-3.0581503216697423 pbc="F F F"
Pb       0.00000000       0.00000000       0.00000000       0.00000000       0.00000000       1.47142315
Pb       0.00000000       0.00000000       3.29575758       0.00000000       0.00000000      -1.47142315
2
Properties=species:S:1:pos:R:3:forces:R:3 energy=-2.970121640612998 pbc="F F F"
Pb       0.00000000       0.00000000       0.00000000       0.00000000       0.00000000       1.51967061
Pb       0.00000000       0.00000000       3.35454545       0.00000000       0.00000000      -1.51967061
2
Properties=species:S:1:pos:R:3:forces:R:3 energy=-2.87992794394751 pbc="F F F"
Pb       0.00000000       0.00000000       0.00000000       0.00000000       0.00000000       1.54478693
Pb       0.00000000       0.00000000       3.41333333       0.00000000       0.00000000      -1.54478693
2
Properties=species:S:1:pos:R:3:forces:R:3 energy=-2.788963891269978 pbc="F F F"
Pb       0.00000000       0.00000000       0.00000000       0.00000000       0.00000000       1.54590869
Pb       0.00000000       0.00000000       3.47212121       0.00000000       0.00000000      -1.54590869
2
Properties=species:S:1:pos:R:3:forces:R:3 energy=-2.6986157778700224 pbc="F F F"
Pb       0.00000000       0.00000000       0.00000000       0.00000000       0.00000000       1.52416599
Pb       0.00000000       0.00000000       3.53090909       0.00000000       0.00000000      -1.52416599
2
Properties=species:S:1:pos:R:3:forces:R:3 energy=-2.6101518154761916 pbc="F F F"
Pb       0.00000000       0.00000000       0.00000000       0.00000000       0.00000000       1.48241258
Pb       0.00000000       0.00000000       3.58969697       0.00000000       0.00000000      -1.48241258
2
Properties=species:S:1:pos:R:3:forces:R:3 energy=-2.5246234630995383 pbc="F F F"
Pb       0.00000000       0.00000000       0.00000000       0.00000000       0.00000000       1.42520666
Pb       0.00000000       0.00000000       3.64848485       0.00000000       0.00000000      -1.42520666
2
Properties=species:S:1:pos:R:3:forces:R:3 energy=-2.442772848277237 pbc="F F F"
Pb       0.00000000       0.00000000       0.00000000       0.00000000       0.00000000       1.35830772
Pb       0.00000000       0.00000000       3.70727273       0.00000000       0.00000000      -1.35830772
2
Properties=species:S:1:pos:R:3:forces:R:3 energy=-2.3649963533093614 pbc="F F F"
Pb       0.00000000       0.00000000       0.00000000       0.00000000       0.00000000       1.28741491
Pb       0.00000000       0.00000000       3.76606061       0.00000000       0.00000000      -1.28741491
2
Properties=species:S:1:pos:R:3:forces:R:3 energy=-2.291393974044391 pbc="F F F"
Pb       0.00000000       0.00000000       0.00000000       0.00000000       0.00000000       1.21697617
Pb       0.00000000       0.00000000       3.82484848       0.00000000       0.00000000      -1.21697617
2
Properties=species:S:1:pos:R:3:forces:R:3 energy=-2.221846703137636 pbc="F F F"
Pb       0.00000000       0.00000000       0.00000000       0.00000000       0.00000000       1.14967275
Pb       0.00000000       0.00000000       3.88363636       0.00000000       0.00000000      -1.14967275
2
Properties=species:S:1:pos:R:3:forces:R:3 energy=-2.156136114967489 pbc="F F F"
Pb       0.00000000       0.00000000       0.00000000       0.00000000       0.00000000       1.08659077
Pb       0.00000000       0.00000000       3.94242424       0.00000000       0.00000000      -1.08659077
2
Properties=species:S:1:pos:R:3:forces:R:3 energy=-2.094010069809151 pbc="F F F"
Pb       0.00000000       0.00000000       0.00000000       0.00000000       0.00000000       1.02764857
Pb       0.00000000       0.00000000       4.00121212       0.00000000       0.00000000      -1.02764857
2
Properties=species:S:1:pos:R:3:forces:R:3 energy=-2.035243038919172 pbc="F F F"
Pb       0.00000000       0.00000000       0.00000000       0.00000000       0.00000000       0.97211701
Pb       0.00000000       0.00000000       4.06000000       0.00000000       0.00000000      -0.97211701
2
Properties=species:S:1:pos:R:3:forces:R:3 energy=-1.9796639231617739 pbc="F F F"
Pb       0.00000000       0.00000000       0.00000000       0.00000000       0.00000000       0.91907024
Pb       0.00000000       0.00000000       4.11878788       0.00000000       0.00000000      -0.91907024
2
Properties=species:S:1:pos:R:3:forces:R:3 energy=-1.927150676927634 pbc="F F F"
Pb       0.00000000       0.00000000       0.00000000       0.00000000       0.00000000       0.86765552
Pb       0.00000000       0.00000000       4.17757576       0.00000000       0.00000000      -0.86765552
2
Properties=species:S:1:pos:R:3:forces:R:3 energy=-1.8776272695530472 pbc="F F F"
Pb       0.00000000       0.00000000       0.00000000       0.00000000       0.00000000       0.81730187
Pb       0.00000000       0.00000000       4.23636364       0.00000000       0.00000000      -0.81730187
2
Properties=species:S:1:pos:R:3:forces:R:3 energy=-1.8310381285186137 pbc="F F F"
Pb       0.00000000       0.00000000       0.00000000       0.00000000       0.00000000       0.76780504
Pb       0.00000000       0.00000000       4.29515152       0.00000000       0.00000000      -0.76780504
2
Properties=species:S:1:pos:R:3:forces:R:3 energy=-1.7873320750415846 pbc="F F F"
Pb       0.00000000       0.00000000       0.00000000       0.00000000       0.00000000       0.71936488
Pb       0.00000000       0.00000000       4.35393939       0.00000000       0.00000000      -0.71936488
2
Properties=species:S:1:pos:R:3:forces:R:3 energy=-1.746428754573541 pbc="F F F"
Pb       0.00000000       0.00000000       0.00000000       0.00000000       0.00000000       0.67249566
Pb       0.00000000       0.00000000       4.41272727       0.00000000       0.00000000      -0.67249566
2
Properties=species:S:1:pos:R:3:forces:R:3 energy=-1.708217949223137 pbc="F F F"
Pb       0.00000000       0.00000000       0.00000000       0.00000000       0.00000000       0.62787664
Pb       0.00000000       0.00000000       4.47151515       0.00000000       0.00000000      -0.62787664
2
Properties=species:S:1:pos:R:3:forces:R:3 energy=-1.6725489776327969 pbc="F F F"
Pb       0.00000000       0.00000000       0.00000000       0.00000000       0.00000000       0.58610123
Pb       0.00000000       0.00000000       4.53030303       0.00000000       0.00000000      -0.58610123
2
Properties=species:S:1:pos:R:3:forces:R:3 energy=-1.6392461763472452 pbc="F F F"
Pb       0.00000000       0.00000000       0.00000000       0.00000000       0.00000000       0.54741478
Pb       0.00000000       0.00000000       4.58909091       0.00000000       0.00000000      -0.54741478
2
Properties=species:S:1:pos:R:3:forces:R:3 energy=-1.6081313503417611 pbc="F F F"
Pb       0.00000000       0.00000000       0.00000000       0.00000000       0.00000000       0.51156586
Pb       0.00000000       0.00000000       4.64787879       0.00000000       0.00000000      -0.51156586
2
Properties=species:S:1:pos:R:3:forces:R:3 energy=-1.5790571936368583 pbc="F F F"
Pb       0.00000000       0.00000000       0.00000000       0.00000000       0.00000000       0.47778755
Pb       0.00000000       0.00000000       4.70666667       0.00000000       0.00000000      -0.47778755
2
Properties=species:S:1:pos:R:3:forces:R:3 energy=-1.551933767599805 pbc="F F F"
Pb       0.00000000       0.00000000       0.00000000       0.00000000       0.00000000       0.44507712
Pb       0.00000000       0.00000000       4.76545455       0.00000000       0.00000000      -0.44507712
2
Properties=species:S:1:pos:R:3:forces:R:3 energy=-1.5267226870318849 pbc="F F F"
Pb       0.00000000       0.00000000       0.00000000       0.00000000       0.00000000       0.41258979
Pb       0.00000000       0.00000000       4.82424242       0.00000000       0.00000000      -0.41258979
2
Properties=species:S:1:pos:R:3:forces:R:3 energy=-1.5034250578553954 pbc="F F F"
Pb       0.00000000       0.00000000       0.00000000       0.00000000       0.00000000       0.38010231
Pb       0.00000000       0.00000000       4.88303030       0.00000000       0.00000000      -0.38010231
2
Properties=species:S:1:pos:R:3:forces:R:3 energy=-1.4820193805771302 pbc="F F F"
Pb       0.00000000       0.00000000       0.00000000       0.00000000       0.00000000       0.34829938
Pb       0.00000000       0.00000000       4.94181818       0.00000000       0.00000000      -0.34829938
2
Properties=species:S:1:pos:R:3:forces:R:3 energy=-1.46242855465775 pbc="F F F"
Pb       0.00000000       0.00000000       0.00000000       0.00000000       0.00000000       0.31870478
Pb       0.00000000       0.00000000       5.00060606       0.00000000       0.00000000      -0.31870478
2
Properties=species:S:1:pos:R:3:forces:R:3 energy=-1.4444665127637992 pbc="F F F"
Pb       0.00000000       0.00000000       0.00000000       0.00000000       0.00000000       0.29318663
Pb       0.00000000       0.00000000       5.05939394       0.00000000       0.00000000      -0.29318663
2
Properties=species:S:1:pos:R:3:forces:R:3 energy=-1.4278505076600447 pbc="F F F"
Pb       0.00000000       0.00000000       0.00000000       0.00000000       0.00000000       0.27302256
Pb       0.00000000       0.00000000       5.11818182       0.00000000       0.00000000      -0.27302256
2
Properties=species:S:1:pos:R:3:forces:R:3 energy=-1.4122694650658094 pbc="F F F"
Pb       0.00000000       0.00000000       0.00000000       0.00000000       0.00000000       0.25772497
Pb       0.00000000       0.00000000       5.17696970       0.00000000       0.00000000      -0.25772497
2
Properties=species:S:1:pos:R:3:forces:R:3 energy=-1.397514511907345 pbc="F F F"
Pb       0.00000000       0.00000000       0.00000000       0.00000000       0.00000000       0.24415191
Pb       0.00000000       0.00000000       5.23575758       0.00000000       0.00000000      -0.24415191
2
Properties=species:S:1:pos:R:3:forces:R:3 energy=-1.3836278592170144 pbc="F F F"
Pb       0.00000000       0.00000000       0.00000000       0.00000000       0.00000000       0.22742826
Pb       0.00000000       0.00000000       5.29454545       0.00000000       0.00000000      -0.22742826
2
Properties=species:S:1:pos:R:3:forces:R:3 energy=-1.3708626190992468 pbc="F F F"
Pb       0.00000000       0.00000000       0.00000000       0.00000000       0.00000000       0.20662200
Pb       0.00000000       0.00000000       5.35333333       0.00000000       0.00000000      -0.20662200
2
Properties=species:S:1:pos:R:3:forces:R:3 energy=-1.3592114706225455 pbc="F F F"
Pb       0.00000000       0.00000000       0.00000000       0.00000000       0.00000000       0.19211966
Pb       0.00000000       0.00000000       5.41212121       0.00000000       0.00000000      -0.19211966
2
Properties=species:S:1:pos:R:3:forces:R:3 energy=-1.347935135978202 pbc="F F F"
Pb       0.00000000       0.00000000       0.00000000       0.00000000       0.00000000       0.19369864
Pb       0.00000000       0.00000000       5.47090909       0.00000000       0.00000000      -0.19369864
2
Properties=species:S:1:pos:R:3:forces:R:3 energy=-1.336443251598877 pbc="F F F"
Pb       0.00000000       0.00000000       0.00000000       0.00000000       0.00000000       0.19486086
Pb       0.00000000       0.00000000       5.52969697       0.00000000       0.00000000      -0.19486086
2
Properties=species:S:1:pos:R:3:forces:R:3 energy=-1.3254047088240544 pbc="F F F"
Pb       0.00000000       0.00000000       0.00000000       0.00000000       0.00000000       0.17799528
Pb       0.00000000       0.00000000       5.58848485       0.00000000       0.00000000      -0.17799528
2
Properties=species:S:1:pos:R:3:forces:R:3 energy=-1.315597206228275 pbc="F F F"
Pb       0.00000000       0.00000000       0.00000000       0.00000000       0.00000000       0.15737213
Pb       0.00000000       0.00000000       5.64727273       0.00000000       0.00000000      -0.15737213
2
Properties=species:S:1:pos:R:3:forces:R:3 energy=-1.3064770260823078 pbc="F F F"
Pb       0.00000000       0.00000000       0.00000000       0.00000000       0.00000000       0.15738760
Pb       0.00000000       0.00000000       5.70606061       0.00000000       0.00000000      -0.15738760
2
Properties=species:S:1:pos:R:3:forces:R:3 energy=-1.2967949281476785 pbc="F F F"
Pb       0.00000000       0.00000000       0.00000000       0.00000000       0.00000000       0.17008129
Pb       0.00000000       0.00000000       5.76484848       0.00000000       0.00000000      -0.17008129
2
Properties=species:S:1:pos:R:3:forces:R:3 energy=-1.2871146078933204 pbc="F F F"
Pb       0.00000000       0.00000000       0.00000000       0.00000000       0.00000000       0.15184802
Pb       0.00000000       0.00000000       5.82363636       0.00000000       0.00000000      -0.15184802
2
Properties=species:S:1:pos:R:3:forces:R:3 energy=-1.2797834506218553 pbc="F F F"
Pb       0.00000000       0.00000000       0.00000000       0.00000000       0.00000000       0.09399816
Pb       0.00000000       0.00000000       5.88242424       0.00000000       0.00000000      -0.09399816
2
Properties=species:S:1:pos:R:3:forces:R:3 energy=-1.2760699999812997 pbc="F F F"
Pb       0.00000000       0.00000000       0.00000000       0.00000000       0.00000000       0.03532322
Pb       0.00000000       0.00000000       5.94121212       0.00000000       0.00000000      -0.03532322
2
Properties=species:S:1:pos:R:3:forces:R:3 energy=-1.2749172066103633 pbc="F F F"
Pb       0.00000000       0.00000000       0.00000000       0.00000000       0.00000000       0.01160836
Pb       0.00000000       0.00000000       6.00000000       0.00000000       0.00000000      -0.01160836
