2
Properties=species:S:1:pos:R:3:forces:R:3 energy=37115.688593750536 pbc="F F F"
Pd       0.00000000       0.00000000       0.00000000       0.00000000       0.00000000 -884740.25000000
Pd       0.00000000       0.00000000       0.10000000       0.00000000       0.00000000  884740.25000000
2
Properties=species:S:1:pos:R:3:forces:R:3 energy=11013.514765625534 pbc="F F F"
Pd       0.00000000       0.00000000       0.00000000       0.00000000       0.00000000 -194680.09375000
Pd       0.00000000       0.00000000       0.15959596       0.00000000       0.00000000  194680.09375000
2
Properties=species:S:1:pos:R:3:forces:R:3 energy=4275.248652344283 pbc="F F F"
Pd       0.00000000       0.00000000       0.00000000       0.00000000       0.00000000  -61404.16406250
Pd       0.00000000       0.00000000       0.21919192       0.00000000       0.00000000   61404.16406250
2
Properties=species:S:1:pos:R:3:forces:R:3 energy=1945.1069287114706 pbc="F F F"
Pd       0.00000000       0.00000000       0.00000000       0.00000000       0.00000000  -23684.40429688
Pd       0.00000000       0.00000000       0.27878788       0.00000000       0.00000000   23684.40429688
2
Properties=species:S:1:pos:R:3:forces:R:3 energy=993.9855908271812 pbc="F F F"
Pd       0.00000000       0.00000000       0.00000000       0.00000000       0.00000000  -10320.41503906
Pd       0.00000000       0.00000000       0.33838384       0.00000000       0.00000000   10320.41503906
2
Properties=species:S:1:pos:R:3:forces:R:3 energy=563.5336865366419 pbc="F F F"
Pd       0.00000000       0.00000000       0.00000000       0.00000000       0.00000000   -4881.99707031
Pd       0.00000000       0.00000000       0.39797980       0.00000000       0.00000000    4881.99707031
2
Properties=species:S:1:pos:R:3:forces:R:3 energy=353.81783571923506 pbc="F F F"
Pd       0.00000000       0.00000000       0.00000000       0.00000000       0.00000000   -2465.25170898
Pd       0.00000000       0.00000000       0.45757576       0.00000000       0.00000000    2465.25170898
2
Properties=species:S:1:pos:R:3:forces:R:3 energy=244.90487188372578 pbc="F F F"
Pd       0.00000000       0.00000000       0.00000000       0.00000000       0.00000000   -1326.91210938
Pd       0.00000000       0.00000000       0.51717172       0.00000000       0.00000000    1326.91210938
2
Properties=species:S:1:pos:R:3:forces:R:3 energy=184.3566083909419 pbc="F F F"
Pd       0.00000000       0.00000000       0.00000000       0.00000000       0.00000000    -769.34289551
Pd       0.00000000       0.00000000       0.57676768       0.00000000       0.00000000     769.34289551
2
Properties=species:S:1:pos:R:3:forces:R:3 energy=147.81934651041465 pbc="F F F"
Pd       0.00000000       0.00000000       0.00000000       0.00000000       0.00000000    -487.78268433
Pd       0.00000000       0.00000000       0.63636364       0.00000000       0.00000000     487.78268433
2
Properties=species:S:1:pos:R:3:forces:R:3 energy=123.62089847498211 pbc="F F F"
Pd       0.00000000       0.00000000       0.00000000       0.00000000       0.00000000    -339.50213623
Pd       0.00000000       0.00000000       0.69595960       0.00000000       0.00000000     339.50213623
2
Properties=species:S:1:pos:R:3:forces:R:3 energy=105.90764185445653 pbc="F F F"
Pd       0.00000000       0.00000000       0.00000000       0.00000000       0.00000000    -265.09857178
Pd       0.00000000       0.00000000       0.75555556       0.00000000       0.00000000     265.09857178
2
Properties=species:S:1:pos:R:3:forces:R:3 energy=91.3387868982655 pbc="F F F"
Pd       0.00000000       0.00000000       0.00000000       0.00000000       0.00000000    -223.94398499
Pd       0.00000000       0.00000000       0.81515152       0.00000000       0.00000000     223.94398499
2
Properties=species:S:1:pos:R:3:forces:R:3 energy=79.36539869839599 pbc="F F F"
Pd       0.00000000       0.00000000       0.00000000       0.00000000       0.00000000    -179.51377869
Pd       0.00000000       0.00000000       0.87474747       0.00000000       0.00000000     179.51377869
2
Properties=species:S:1:pos:R:3:forces:R:3 energy=69.35686970372053 pbc="F F F"
Pd       0.00000000       0.00000000       0.00000000       0.00000000       0.00000000    -160.97348022
Pd       0.00000000       0.00000000       0.93434343       0.00000000       0.00000000     160.97348022
2
Properties=species:S:1:pos:R:3:forces:R:3 energy=59.99841878546288 pbc="F F F"
Pd       0.00000000       0.00000000       0.00000000       0.00000000       0.00000000    -152.01243591
Pd       0.00000000       0.00000000       0.99393939       0.00000000       0.00000000     152.01243591
2
Properties=species:S:1:pos:R:3:forces:R:3 energy=51.547137538699744 pbc="F F F"
Pd       0.00000000       0.00000000       0.00000000       0.00000000       0.00000000    -128.02325439
Pd       0.00000000       0.00000000       1.05353535       0.00000000       0.00000000     128.02325439
2
Properties=species:S:1:pos:R:3:forces:R:3 energy=45.067822512555345 pbc="F F F"
Pd       0.00000000       0.00000000       0.00000000       0.00000000       0.00000000     -90.03000641
Pd       0.00000000       0.00000000       1.11313131       0.00000000       0.00000000      90.03000641
2
Properties=species:S:1:pos:R:3:forces:R:3 energy=40.107722642396375 pbc="F F F"
Pd       0.00000000       0.00000000       0.00000000       0.00000000       0.00000000     -84.41784668
Pd       0.00000000       0.00000000       1.17272727       0.00000000       0.00000000      84.41784668
2
Properties=species:S:1:pos:R:3:forces:R:3 energy=34.57280959470662 pbc="F F F"
Pd       0.00000000       0.00000000       0.00000000       0.00000000       0.00000000    -100.38160706
Pd       0.00000000       0.00000000       1.23232323       0.00000000       0.00000000     100.38160706
2
Properties=species:S:1:pos:R:3:forces:R:3 energy=28.482200876888225 pbc="F F F"
Pd       0.00000000       0.00000000       0.00000000       0.00000000       0.00000000    -100.55545044
Pd       0.00000000       0.00000000       1.29191919       0.00000000       0.00000000     100.55545044
2
Properties=species:S:1:pos:R:3:forces:R:3 energy=22.89232748298961 pbc="F F F"
Pd       0.00000000       0.00000000       0.00000000       0.00000000       0.00000000     -86.08533478
Pd       0.00000000       0.00000000       1.35151515       0.00000000       0.00000000      86.08533478
2
Properties=species:S:1:pos:R:3:forces:R:3 energy=18.170737620482118 pbc="F F F"
Pd       0.00000000       0.00000000       0.00000000       0.00000000       0.00000000     -73.44553375
Pd       0.00000000       0.00000000       1.41111111       0.00000000       0.00000000      73.44553375
2
Properties=species:S:1:pos:R:3:forces:R:3 energy=14.039147435069491 pbc="F F F"
Pd       0.00000000       0.00000000       0.00000000       0.00000000       0.00000000     -65.54309082
Pd       0.00000000       0.00000000       1.47070707       0.00000000       0.00000000      65.54309082
2
Properties=species:S:1:pos:R:3:forces:R:3 energy=10.367928067220426 pbc="F F F"
Pd       0.00000000       0.00000000       0.00000000       0.00000000       0.00000000     -57.38053513
Pd       0.00000000       0.00000000       1.53030303       0.00000000       0.00000000      57.38053513
2
Properties=species:S:1:pos:R:3:forces:R:3 energy=7.225640809464744 pbc="F F F"
Pd       0.00000000       0.00000000       0.00000000       0.00000000       0.00000000     -47.99573517
Pd       0.00000000       0.00000000       1.58989899       0.00000000       0.00000000      47.99573517
2
Properties=species:S:1:pos:R:3:forces:R:3 energy=4.640004882218751 pbc="F F F"
Pd       0.00000000       0.00000000       0.00000000       0.00000000       0.00000000     -38.93985367
Pd       0.00000000       0.00000000       1.64949495       0.00000000       0.00000000      38.93985367
2
Properties=species:S:1:pos:R:3:forces:R:3 energy=2.558306385969847 pbc="F F F"
Pd       0.00000000       0.00000000       0.00000000       0.00000000       0.00000000     -31.16929626
Pd       0.00000000       0.00000000       1.70909091       0.00000000       0.00000000      31.16929626
2
Properties=species:S:1:pos:R:3:forces:R:3 energy=0.8949022661592378 pbc="F F F"
Pd       0.00000000       0.00000000       0.00000000       0.00000000       0.00000000     -24.89288139
Pd       0.00000000       0.00000000       1.76868687       0.00000000       0.00000000      24.89288139
2
Properties=species:S:1:pos:R:3:forces:R:3 energy=-0.4341513350700545 pbc="F F F"
Pd       0.00000000       0.00000000       0.00000000       0.00000000       0.00000000     -19.89239693
Pd       0.00000000       0.00000000       1.82828283       0.00000000       0.00000000      19.89239693
2
Properties=species:S:1:pos:R:3:forces:R:3 energy=-1.494425562151701 pbc="F F F"
Pd       0.00000000       0.00000000       0.00000000       0.00000000       0.00000000     -15.81875801
Pd       0.00000000       0.00000000       1.88787879       0.00000000       0.00000000      15.81875801
2
Properties=species:S:1:pos:R:3:forces:R:3 energy=-2.333013460092596 pbc="F F F"
Pd       0.00000000       0.00000000       0.00000000       0.00000000       0.00000000     -12.42384529
Pd       0.00000000       0.00000000       1.94747475       0.00000000       0.00000000      12.42384529
2
Properties=species:S:1:pos:R:3:forces:R:3 energy=-2.98633819129028 pbc="F F F"
Pd       0.00000000       0.00000000       0.00000000       0.00000000       0.00000000      -9.58865070
Pd       0.00000000       0.00000000       2.00707071       0.00000000       0.00000000       9.58865070
2
Properties=species:S:1:pos:R:3:forces:R:3 energy=-3.4857687857834025 pbc="F F F"
Pd       0.00000000       0.00000000       0.00000000       0.00000000       0.00000000      -7.25013447
Pd       0.00000000       0.00000000       2.06666667       0.00000000       0.00000000       7.25013447
2
Properties=species:S:1:pos:R:3:forces:R:3 energy=-3.8592013846582143 pbc="F F F"
Pd       0.00000000       0.00000000       0.00000000       0.00000000       0.00000000      -5.34981441
Pd       0.00000000       0.00000000       2.12626263       0.00000000       0.00000000       5.34981441
2
Properties=species:S:1:pos:R:3:forces:R:3 energy=-4.130870806400968 pbc="F F F"
Pd       0.00000000       0.00000000       0.00000000       0.00000000       0.00000000      -3.82458735
Pd       0.00000000       0.00000000       2.18585859       0.00000000       0.00000000       3.82458735
2
Properties=species:S:1:pos:R:3:forces:R:3 energy=-4.321317090031218 pbc="F F F"
Pd       0.00000000       0.00000000       0.00000000       0.00000000       0.00000000      -2.61454225
Pd       0.00000000       0.00000000       2.24545455       0.00000000       0.00000000       2.61454225
2
Properties=species:S:1:pos:R:3:forces:R:3 energy=-4.447713206929678 pbc="F F F"
Pd       0.00000000       0.00000000       0.00000000       0.00000000       0.00000000      -1.66680264
Pd       0.00000000       0.00000000       2.30505051       0.00000000       0.00000000       1.66680264
2
Properties=species:S:1:pos:R:3:forces:R:3 energy=-4.524242139232868 pbc="F F F"
Pd       0.00000000       0.00000000       0.00000000       0.00000000       0.00000000      -0.93345660
Pd       0.00000000       0.00000000       2.36464646       0.00000000       0.00000000       0.93345660
2
Properties=species:S:1:pos:R:3:forces:R:3 energy=-4.562370637804183 pbc="F F F"
Pd       0.00000000       0.00000000       0.00000000       0.00000000       0.00000000      -0.37137392
Pd       0.00000000       0.00000000       2.42424242       0.00000000       0.00000000       0.37137392
2
Properties=species:S:1:pos:R:3:forces:R:3 energy=-4.571163844519135 pbc="F F F"
Pd       0.00000000       0.00000000       0.00000000       0.00000000       0.00000000       0.05693002
Pd       0.00000000       0.00000000       2.48383838       0.00000000       0.00000000      -0.05693002
2
Properties=species:S:1:pos:R:3:forces:R:3 energy=-4.557508959148555 pbc="F F F"
Pd       0.00000000       0.00000000       0.00000000       0.00000000       0.00000000       0.38867357
Pd       0.00000000       0.00000000       2.54343434       0.00000000       0.00000000      -0.38867357
2
Properties=species:S:1:pos:R:3:forces:R:3 energy=-4.5258991257760135 pbc="F F F"
Pd       0.00000000       0.00000000       0.00000000       0.00000000       0.00000000       0.66636986
Pd       0.00000000       0.00000000       2.60303030       0.00000000       0.00000000      -0.66636986
2
Properties=species:S:1:pos:R:3:forces:R:3 energy=-4.47866330651219 pbc="F F F"
Pd       0.00000000       0.00000000       0.00000000       0.00000000       0.00000000       0.91294771
Pd       0.00000000       0.00000000       2.66262626       0.00000000       0.00000000      -0.91294771
2
Properties=species:S:1:pos:R:3:forces:R:3 energy=-4.418092254697316 pbc="F F F"
Pd       0.00000000       0.00000000       0.00000000       0.00000000       0.00000000       1.10906339
Pd       0.00000000       0.00000000       2.72222222       0.00000000       0.00000000      -1.10906339
2
Properties=species:S:1:pos:R:3:forces:R:3 energy=-4.347822221897678 pbc="F F F"
Pd       0.00000000       0.00000000       0.00000000       0.00000000       0.00000000       1.23837399
Pd       0.00000000       0.00000000       2.78181818       0.00000000       0.00000000      -1.23837399
2
Properties=species:S:1:pos:R:3:forces:R:3 energy=-4.271604549416334 pbc="F F F"
Pd       0.00000000       0.00000000       0.00000000       0.00000000       0.00000000       1.31164408
Pd       0.00000000       0.00000000       2.84141414       0.00000000       0.00000000      -1.31164408
2
Properties=species:S:1:pos:R:3:forces:R:3 energy=-4.192236171356529 pbc="F F F"
Pd       0.00000000       0.00000000       0.00000000       0.00000000       0.00000000       1.34690487
Pd       0.00000000       0.00000000       2.90101010       0.00000000       0.00000000      -1.34690487
2
Properties=species:S:1:pos:R:3:forces:R:3 energy=-4.111535931350903 pbc="F F F"
Pd       0.00000000       0.00000000       0.00000000       0.00000000       0.00000000       1.35826719
Pd       0.00000000       0.00000000       2.96060606       0.00000000       0.00000000      -1.35826719
2
Properties=species:S:1:pos:R:3:forces:R:3 energy=-4.030634799249423 pbc="F F F"
Pd       0.00000000       0.00000000       0.00000000       0.00000000       0.00000000       1.35470736
Pd       0.00000000       0.00000000       3.02020202       0.00000000       0.00000000      -1.35470736
2
Properties=species:S:1:pos:R:3:forces:R:3 energy=-3.9502812571133115 pbc="F F F"
Pd       0.00000000       0.00000000       0.00000000       0.00000000       0.00000000       1.34012365
Pd       0.00000000       0.00000000       3.07979798       0.00000000       0.00000000      -1.34012365
2
Properties=species:S:1:pos:R:3:forces:R:3 energy=-3.871132972433819 pbc="F F F"
Pd       0.00000000       0.00000000       0.00000000       0.00000000       0.00000000       1.31388187
Pd       0.00000000       0.00000000       3.13939394       0.00000000       0.00000000      -1.31388187
2
Properties=species:S:1:pos:R:3:forces:R:3 energy=-3.7939731355558015 pbc="F F F"
Pd       0.00000000       0.00000000       0.00000000       0.00000000       0.00000000       1.27273941
Pd       0.00000000       0.00000000       3.19898990       0.00000000       0.00000000      -1.27273941
2
Properties=species:S:1:pos:R:3:forces:R:3 energy=-3.719785910342941 pbc="F F F"
Pd       0.00000000       0.00000000       0.00000000       0.00000000       0.00000000       1.21392286
Pd       0.00000000       0.00000000       3.25858586       0.00000000       0.00000000      -1.21392286
2
Properties=species:S:1:pos:R:3:forces:R:3 energy=-3.6496283723946132 pbc="F F F"
Pd       0.00000000       0.00000000       0.00000000       0.00000000       0.00000000       1.13789093
Pd       0.00000000       0.00000000       3.31818182       0.00000000       0.00000000      -1.13789093
2
Properties=species:S:1:pos:R:3:forces:R:3 energy=-3.58441006923079 pbc="F F F"
Pd       0.00000000       0.00000000       0.00000000       0.00000000       0.00000000       1.04927742
Pd       0.00000000       0.00000000       3.37777778       0.00000000       0.00000000      -1.04927742
2
Properties=species:S:1:pos:R:3:forces:R:3 energy=-3.5246643411967167 pbc="F F F"
Pd       0.00000000       0.00000000       0.00000000       0.00000000       0.00000000       0.95560163
Pd       0.00000000       0.00000000       3.43737374       0.00000000       0.00000000      -0.95560163
2
Properties=species:S:1:pos:R:3:forces:R:3 energy=-3.470452451851538 pbc="F F F"
Pd       0.00000000       0.00000000       0.00000000       0.00000000       0.00000000       0.86475807
Pd       0.00000000       0.00000000       3.49696970       0.00000000       0.00000000      -0.86475807
2
Properties=species:S:1:pos:R:3:forces:R:3 energy=-3.421414443153637 pbc="F F F"
Pd       0.00000000       0.00000000       0.00000000       0.00000000       0.00000000       0.78273052
Pd       0.00000000       0.00000000       3.55656566       0.00000000       0.00000000      -0.78273052
2
Properties=species:S:1:pos:R:3:forces:R:3 energy=-3.376921755029481 pbc="F F F"
Pd       0.00000000       0.00000000       0.00000000       0.00000000       0.00000000       0.71246135
Pd       0.00000000       0.00000000       3.61616162       0.00000000       0.00000000      -0.71246135
2
Properties=species:S:1:pos:R:3:forces:R:3 energy=-3.336260254814643 pbc="F F F"
Pd       0.00000000       0.00000000       0.00000000       0.00000000       0.00000000       0.65394473
Pd       0.00000000       0.00000000       3.67575758       0.00000000       0.00000000      -0.65394473
2
Properties=species:S:1:pos:R:3:forces:R:3 energy=-3.2987845914450444 pbc="F F F"
Pd       0.00000000       0.00000000       0.00000000       0.00000000       0.00000000       0.60508472
Pd       0.00000000       0.00000000       3.73535354       0.00000000       0.00000000      -0.60508472
2
Properties=species:S:1:pos:R:3:forces:R:3 energy=-3.2640084293855534 pbc="F F F"
Pd       0.00000000       0.00000000       0.00000000       0.00000000       0.00000000       0.56278646
Pd       0.00000000       0.00000000       3.79494949       0.00000000       0.00000000      -0.56278646
2
Properties=species:S:1:pos:R:3:forces:R:3 energy=-3.231636704830246 pbc="F F F"
Pd       0.00000000       0.00000000       0.00000000       0.00000000       0.00000000       0.52392423
Pd       0.00000000       0.00000000       3.85454545       0.00000000       0.00000000      -0.52392423
2
Properties=species:S:1:pos:R:3:forces:R:3 energy=-3.201543077307705 pbc="F F F"
Pd       0.00000000       0.00000000       0.00000000       0.00000000       0.00000000       0.48601156
Pd       0.00000000       0.00000000       3.91414141       0.00000000       0.00000000      -0.48601156
2
Properties=species:S:1:pos:R:3:forces:R:3 energy=-3.1737201295403015 pbc="F F F"
Pd       0.00000000       0.00000000       0.00000000       0.00000000       0.00000000       0.44752172
Pd       0.00000000       0.00000000       3.97373737       0.00000000       0.00000000      -0.44752172
2
Properties=species:S:1:pos:R:3:forces:R:3 energy=-3.1482244067940215 pbc="F F F"
Pd       0.00000000       0.00000000       0.00000000       0.00000000       0.00000000       0.40793303
Pd       0.00000000       0.00000000       4.03333333       0.00000000       0.00000000      -0.40793303
2
Properties=species:S:1:pos:R:3:forces:R:3 energy=-3.125114018566924 pbc="F F F"
Pd       0.00000000       0.00000000       0.00000000       0.00000000       0.00000000       0.36755708
Pd       0.00000000       0.00000000       4.09292929       0.00000000       0.00000000      -0.36755708
2
Properties=species:S:1:pos:R:3:forces:R:3 energy=-3.1044122722522305 pbc="F F F"
Pd       0.00000000       0.00000000       0.00000000       0.00000000       0.00000000       0.32728398
Pd       0.00000000       0.00000000       4.15252525       0.00000000       0.00000000      -0.32728398
2
Properties=species:S:1:pos:R:3:forces:R:3 energy=-3.0860798708633337 pbc="F F F"
Pd       0.00000000       0.00000000       0.00000000       0.00000000       0.00000000       0.28825316
Pd       0.00000000       0.00000000       4.21212121       0.00000000       0.00000000      -0.28825316
2
Properties=species:S:1:pos:R:3:forces:R:3 energy=-3.0700082983341175 pbc="F F F"
Pd       0.00000000       0.00000000       0.00000000       0.00000000       0.00000000       0.25155723
Pd       0.00000000       0.00000000       4.27171717       0.00000000       0.00000000      -0.25155723
2
Properties=species:S:1:pos:R:3:forces:R:3 energy=-3.056033006232637 pbc="F F F"
Pd       0.00000000       0.00000000       0.00000000       0.00000000       0.00000000       0.21802637
Pd       0.00000000       0.00000000       4.33131313       0.00000000       0.00000000      -0.21802637
2
Properties=species:S:1:pos:R:3:forces:R:3 energy=-3.043949429819525 pbc="F F F"
Pd       0.00000000       0.00000000       0.00000000       0.00000000       0.00000000       0.18811618
Pd       0.00000000       0.00000000       4.39090909       0.00000000       0.00000000      -0.18811618
2
Properties=species:S:1:pos:R:3:forces:R:3 energy=-3.0335366144939937 pbc="F F F"
Pd       0.00000000       0.00000000       0.00000000       0.00000000       0.00000000       0.16193698
Pd       0.00000000       0.00000000       4.45050505       0.00000000       0.00000000      -0.16193698
2
Properties=species:S:1:pos:R:3:forces:R:3 energy=-3.0245768841586615 pbc="F F F"
Pd       0.00000000       0.00000000       0.00000000       0.00000000       0.00000000       0.13932580
Pd       0.00000000       0.00000000       4.51010101       0.00000000       0.00000000      -0.13932580
2
Properties=species:S:1:pos:R:3:forces:R:3 energy=-3.016866027526104 pbc="F F F"
Pd       0.00000000       0.00000000       0.00000000       0.00000000       0.00000000       0.11993426
Pd       0.00000000       0.00000000       4.56969697       0.00000000       0.00000000      -0.11993426
2
Properties=species:S:1:pos:R:3:forces:R:3 energy=-3.0102271960885325 pbc="F F F"
Pd       0.00000000       0.00000000       0.00000000       0.00000000       0.00000000       0.10327385
Pd       0.00000000       0.00000000       4.62929293       0.00000000       0.00000000      -0.10327385
2
Properties=species:S:1:pos:R:3:forces:R:3 energy=-3.0045142079637723 pbc="F F F"
Pd       0.00000000       0.00000000       0.00000000       0.00000000       0.00000000       0.08875548
Pd       0.00000000       0.00000000       4.68888889       0.00000000       0.00000000      -0.08875548
2
Properties=species:S:1:pos:R:3:forces:R:3 energy=-2.999618261629347 pbc="F F F"
Pd       0.00000000       0.00000000       0.00000000       0.00000000       0.00000000       0.07575868
Pd       0.00000000       0.00000000       4.74848485       0.00000000       0.00000000      -0.07575868
2
Properties=species:S:1:pos:R:3:forces:R:3 energy=-2.9954643953217506 pbc="F F F"
Pd       0.00000000       0.00000000       0.00000000       0.00000000       0.00000000       0.06378823
Pd       0.00000000       0.00000000       4.80808081       0.00000000       0.00000000      -0.06378823
2
Properties=species:S:1:pos:R:3:forces:R:3 energy=-2.991998770824285 pbc="F F F"
Pd       0.00000000       0.00000000       0.00000000       0.00000000       0.00000000       0.05265896
Pd       0.00000000       0.00000000       4.86767677       0.00000000       0.00000000      -0.05265896
2
Properties=species:S:1:pos:R:3:forces:R:3 energy=-2.989165696584445 pbc="F F F"
Pd       0.00000000       0.00000000       0.00000000       0.00000000       0.00000000       0.04264919
Pd       0.00000000       0.00000000       4.92727273       0.00000000       0.00000000      -0.04264919
2
Properties=species:S:1:pos:R:3:forces:R:3 energy=-2.986879023820072 pbc="F F F"
Pd       0.00000000       0.00000000       0.00000000       0.00000000       0.00000000       0.03446554
Pd       0.00000000       0.00000000       4.98686869       0.00000000       0.00000000      -0.03446554
2
Properties=species:S:1:pos:R:3:forces:R:3 energy=-2.985004414013561 pbc="F F F"
Pd       0.00000000       0.00000000       0.00000000       0.00000000       0.00000000       0.02896109
Pd       0.00000000       0.00000000       5.04646465       0.00000000       0.00000000      -0.02896109
2
Properties=species:S:1:pos:R:3:forces:R:3 energy=-2.9833637817497554 pbc="F F F"
Pd       0.00000000       0.00000000       0.00000000       0.00000000       0.00000000       0.02662211
Pd       0.00000000       0.00000000       5.10606061       0.00000000       0.00000000      -0.02662211
2
Properties=species:S:1:pos:R:3:forces:R:3 energy=-2.9817758012838085 pbc="F F F"
Pd       0.00000000       0.00000000       0.00000000       0.00000000       0.00000000       0.02701723
Pd       0.00000000       0.00000000       5.16565657       0.00000000       0.00000000      -0.02701723
2
Properties=species:S:1:pos:R:3:forces:R:3 energy=-2.98011957063745 pbc="F F F"
Pd       0.00000000       0.00000000       0.00000000       0.00000000       0.00000000       0.02858465
Pd       0.00000000       0.00000000       5.22525253       0.00000000       0.00000000      -0.02858465
2
Properties=species:S:1:pos:R:3:forces:R:3 energy=-2.97838711278763 pbc="F F F"
Pd       0.00000000       0.00000000       0.00000000       0.00000000       0.00000000       0.02927919
Pd       0.00000000       0.00000000       5.28484848       0.00000000       0.00000000      -0.02927919
2
Properties=species:S:1:pos:R:3:forces:R:3 energy=-2.97666422056881 pbc="F F F"
Pd       0.00000000       0.00000000       0.00000000       0.00000000       0.00000000       0.02834830
Pd       0.00000000       0.00000000       5.34444444       0.00000000       0.00000000      -0.02834830
2
Properties=species:S:1:pos:R:3:forces:R:3 energy=-2.9750031411517197 pbc="F F F"
Pd       0.00000000       0.00000000       0.00000000       0.00000000       0.00000000       0.02767614
Pd       0.00000000       0.00000000       5.40404040       0.00000000       0.00000000      -0.02767614
2
Properties=species:S:1:pos:R:3:forces:R:3 energy=-2.973327325821139 pbc="F F F"
Pd       0.00000000       0.00000000       0.00000000       0.00000000       0.00000000       0.02869870
Pd       0.00000000       0.00000000       5.46363636       0.00000000       0.00000000      -0.02869870
2
Properties=species:S:1:pos:R:3:forces:R:3 energy=-2.9716067056454007 pbc="F F F"
Pd       0.00000000       0.00000000       0.00000000       0.00000000       0.00000000       0.02860271
Pd       0.00000000       0.00000000       5.52323232       0.00000000       0.00000000      -0.02860271
2
Properties=species:S:1:pos:R:3:forces:R:3 energy=-2.969962921184887 pbc="F F F"
Pd       0.00000000       0.00000000       0.00000000       0.00000000       0.00000000       0.02644728
Pd       0.00000000       0.00000000       5.58282828       0.00000000       0.00000000      -0.02644728
2
Properties=species:S:1:pos:R:3:forces:R:3 energy=-2.9684332865148026 pbc="F F F"
Pd       0.00000000       0.00000000       0.00000000       0.00000000       0.00000000       0.02527093
Pd       0.00000000       0.00000000       5.64242424       0.00000000       0.00000000      -0.02527093
2
Properties=species:S:1:pos:R:3:forces:R:3 energy=-2.9669038918069393 pbc="F F F"
Pd       0.00000000       0.00000000       0.00000000       0.00000000       0.00000000       0.02630791
Pd       0.00000000       0.00000000       5.70202020       0.00000000       0.00000000      -0.02630791
2
Properties=species:S:1:pos:R:3:forces:R:3 energy=-2.9653034645609693 pbc="F F F"
Pd       0.00000000       0.00000000       0.00000000       0.00000000       0.00000000       0.02700050
Pd       0.00000000       0.00000000       5.76161616       0.00000000       0.00000000      -0.02700050
2
Properties=species:S:1:pos:R:3:forces:R:3 energy=-2.9637690625973683 pbc="F F F"
Pd       0.00000000       0.00000000       0.00000000       0.00000000       0.00000000       0.02372217
Pd       0.00000000       0.00000000       5.82121212       0.00000000       0.00000000      -0.02372217
2
Properties=species:S:1:pos:R:3:forces:R:3 energy=-2.9625331555177623 pbc="F F F"
Pd       0.00000000       0.00000000       0.00000000       0.00000000       0.00000000       0.01769705
Pd       0.00000000       0.00000000       5.88080808       0.00000000       0.00000000      -0.01769705
2
Properties=species:S:1:pos:R:3:forces:R:3 energy=-2.9616377259825426 pbc="F F F"
Pd       0.00000000       0.00000000       0.00000000       0.00000000       0.00000000       0.01263612
Pd       0.00000000       0.00000000       5.94040404       0.00000000       0.00000000      -0.01263612
2
Properties=species:S:1:pos:R:3:forces:R:3 energy=-2.9609696031779027 pbc="F F F"
Pd       0.00000000       0.00000000       0.00000000       0.00000000       0.00000000       0.01034850
Pd       0.00000000       0.00000000       6.00000000       0.00000000       0.00000000      -0.01034850
