2
Properties=species:S:1:pos:R:3:forces:R:3 energy=10856.494247944902 pbc="F F F"
Pr       0.00000000       0.00000000       0.00000000       0.00000000       0.00000000 -185313.84375000
Pr       0.00000000       0.00000000       0.18000000       0.00000000       0.00000000  185313.84375000
2
Properties=species:S:1:pos:R:3:forces:R:3 energy=4319.982529194902 pbc="F F F"
Pr       0.00000000       0.00000000       0.00000000       0.00000000       0.00000000  -62685.15234375
Pr       0.00000000       0.00000000       0.23878788       0.00000000       0.00000000   62685.15234375
2
Properties=species:S:1:pos:R:3:forces:R:3 energy=1935.676132710527 pbc="F F F"
Pr       0.00000000       0.00000000       0.00000000       0.00000000       0.00000000  -24974.51757812
Pr       0.00000000       0.00000000       0.29757576       0.00000000       0.00000000   24974.51757812
2
Properties=species:S:1:pos:R:3:forces:R:3 energy=940.092331453667 pbc="F F F"
Pr       0.00000000       0.00000000       0.00000000       0.00000000       0.00000000  -11011.80175781
Pr       0.00000000       0.00000000       0.35636364       0.00000000       0.00000000   11011.80175781
2
Properties=species:S:1:pos:R:3:forces:R:3 energy=486.56199698101085 pbc="F F F"
Pr       0.00000000       0.00000000       0.00000000       0.00000000       0.00000000   -5212.85107422
Pr       0.00000000       0.00000000       0.41515152       0.00000000       0.00000000    5212.85107422
2
Properties=species:S:1:pos:R:3:forces:R:3 energy=266.2940831626515 pbc="F F F"
Pr       0.00000000       0.00000000       0.00000000       0.00000000       0.00000000   -2610.41210938
Pr       0.00000000       0.00000000       0.47393939       0.00000000       0.00000000    2610.41210938
2
Properties=species:S:1:pos:R:3:forces:R:3 energy=153.54484612744716 pbc="F F F"
Pr       0.00000000       0.00000000       0.00000000       0.00000000       0.00000000   -1371.69177246
Pr       0.00000000       0.00000000       0.53272727       0.00000000       0.00000000    1371.69177246
2
Properties=species:S:1:pos:R:3:forces:R:3 energy=93.13168392134443 pbc="F F F"
Pr       0.00000000       0.00000000       0.00000000       0.00000000       0.00000000    -752.11523438
Pr       0.00000000       0.00000000       0.59151515       0.00000000       0.00000000     752.11523438
2
Properties=species:S:1:pos:R:3:forces:R:3 energy=59.426430370955366 pbc="F F F"
Pr       0.00000000       0.00000000       0.00000000       0.00000000       0.00000000    -428.15301514
Pr       0.00000000       0.00000000       0.65030303       0.00000000       0.00000000     428.15301514
2
Properties=species:S:1:pos:R:3:forces:R:3 energy=39.94569848287177 pbc="F F F"
Pr       0.00000000       0.00000000       0.00000000       0.00000000       0.00000000    -251.78379822
Pr       0.00000000       0.00000000       0.70909091       0.00000000       0.00000000     251.78379822
2
Properties=species:S:1:pos:R:3:forces:R:3 energy=28.338085999721372 pbc="F F F"
Pr       0.00000000       0.00000000       0.00000000       0.00000000       0.00000000    -152.28323364
Pr       0.00000000       0.00000000       0.76787879       0.00000000       0.00000000     152.28323364
2
Properties=species:S:1:pos:R:3:forces:R:3 energy=21.233262110957302 pbc="F F F"
Pr       0.00000000       0.00000000       0.00000000       0.00000000       0.00000000     -94.52906036
Pr       0.00000000       0.00000000       0.82666667       0.00000000       0.00000000      94.52906036
2
Properties=species:S:1:pos:R:3:forces:R:3 energy=16.764951054568623 pbc="F F F"
Pr       0.00000000       0.00000000       0.00000000       0.00000000       0.00000000     -60.45425415
Pr       0.00000000       0.00000000       0.88545455       0.00000000       0.00000000      60.45425415
2
Properties=species:S:1:pos:R:3:forces:R:3 energy=13.852114393532574 pbc="F F F"
Pr       0.00000000       0.00000000       0.00000000       0.00000000       0.00000000     -40.45642853
Pr       0.00000000       0.00000000       0.94424242       0.00000000       0.00000000      40.45642853
2
Properties=species:S:1:pos:R:3:forces:R:3 energy=11.837458820818297 pbc="F F F"
Pr       0.00000000       0.00000000       0.00000000       0.00000000       0.00000000     -29.24475098
Pr       0.00000000       0.00000000       1.00303030       0.00000000       0.00000000      29.24475098
2
Properties=species:S:1:pos:R:3:forces:R:3 energy=10.302965092372178 pbc="F F F"
Pr       0.00000000       0.00000000       0.00000000       0.00000000       0.00000000     -23.71282005
Pr       0.00000000       0.00000000       1.06181818       0.00000000       0.00000000      23.71282005
2
Properties=species:S:1:pos:R:3:forces:R:3 energy=8.979824894011207 pbc="F F F"
Pr       0.00000000       0.00000000       0.00000000       0.00000000       0.00000000     -21.73728943
Pr       0.00000000       0.00000000       1.12060606       0.00000000       0.00000000      21.73728943
2
Properties=species:S:1:pos:R:3:forces:R:3 energy=7.713638391923078 pbc="F F F"
Pr       0.00000000       0.00000000       0.00000000       0.00000000       0.00000000     -21.48280525
Pr       0.00000000       0.00000000       1.17939394       0.00000000       0.00000000      21.48280525
2
Properties=species:S:1:pos:R:3:forces:R:3 energy=6.4473444794332755 pbc="F F F"
Pr       0.00000000       0.00000000       0.00000000       0.00000000       0.00000000     -21.63031387
Pr       0.00000000       0.00000000       1.23818182       0.00000000       0.00000000      21.63031387
2
Properties=species:S:1:pos:R:3:forces:R:3 energy=5.161845904383496 pbc="F F F"
Pr       0.00000000       0.00000000       0.00000000       0.00000000       0.00000000     -22.19710922
Pr       0.00000000       0.00000000       1.29696970       0.00000000       0.00000000      22.19710922
2
Properties=species:S:1:pos:R:3:forces:R:3 energy=3.8347208806058664 pbc="F F F"
Pr       0.00000000       0.00000000       0.00000000       0.00000000       0.00000000     -22.85915947
Pr       0.00000000       0.00000000       1.35575758       0.00000000       0.00000000      22.85915947
2
Properties=species:S:1:pos:R:3:forces:R:3 energy=2.4986939406490145 pbc="F F F"
Pr       0.00000000       0.00000000       0.00000000       0.00000000       0.00000000     -22.30477905
Pr       0.00000000       0.00000000       1.41454545       0.00000000       0.00000000      22.30477905
2
Properties=species:S:1:pos:R:3:forces:R:3 energy=1.2479934662242145 pbc="F F F"
Pr       0.00000000       0.00000000       0.00000000       0.00000000       0.00000000     -19.96669769
Pr       0.00000000       0.00000000       1.47333333       0.00000000       0.00000000      19.96669769
2
Properties=species:S:1:pos:R:3:forces:R:3 energy=0.1732963558884451 pbc="F F F"
Pr       0.00000000       0.00000000       0.00000000       0.00000000       0.00000000     -16.53209496
Pr       0.00000000       0.00000000       1.53212121       0.00000000       0.00000000      16.53209496
2
Properties=species:S:1:pos:R:3:forces:R:3 energy=-0.7057247811475595 pbc="F F F"
Pr       0.00000000       0.00000000       0.00000000       0.00000000       0.00000000     -13.58585358
Pr       0.00000000       0.00000000       1.59090909       0.00000000       0.00000000      13.58585358
2
Properties=species:S:1:pos:R:3:forces:R:3 energy=-1.4549810985294103 pbc="F F F"
Pr       0.00000000       0.00000000       0.00000000       0.00000000       0.00000000     -12.14737606
Pr       0.00000000       0.00000000       1.64969697       0.00000000       0.00000000      12.14737606
2
Properties=species:S:1:pos:R:3:forces:R:3 energy=-2.150352682594248 pbc="F F F"
Pr       0.00000000       0.00000000       0.00000000       0.00000000       0.00000000     -11.52832127
Pr       0.00000000       0.00000000       1.70848485       0.00000000       0.00000000      11.52832127
2
Properties=species:S:1:pos:R:3:forces:R:3 energy=-2.804515255168817 pbc="F F F"
Pr       0.00000000       0.00000000       0.00000000       0.00000000       0.00000000     -10.66989708
Pr       0.00000000       0.00000000       1.76727273       0.00000000       0.00000000      10.66989708
2
Properties=species:S:1:pos:R:3:forces:R:3 energy=-3.403850106260353 pbc="F F F"
Pr       0.00000000       0.00000000       0.00000000       0.00000000       0.00000000      -9.75250530
Pr       0.00000000       0.00000000       1.82606061       0.00000000       0.00000000       9.75250530
2
Properties=species:S:1:pos:R:3:forces:R:3 energy=-3.9555869878404724 pbc="F F F"
Pr       0.00000000       0.00000000       0.00000000       0.00000000       0.00000000      -9.04199505
Pr       0.00000000       0.00000000       1.88484848       0.00000000       0.00000000       9.04199505
2
Properties=species:S:1:pos:R:3:forces:R:3 energy=-4.4674102274121195 pbc="F F F"
Pr       0.00000000       0.00000000       0.00000000       0.00000000       0.00000000      -8.35772991
Pr       0.00000000       0.00000000       1.94363636       0.00000000       0.00000000       8.35772991
2
Properties=species:S:1:pos:R:3:forces:R:3 energy=-4.935699335145424 pbc="F F F"
Pr       0.00000000       0.00000000       0.00000000       0.00000000       0.00000000      -7.54717398
Pr       0.00000000       0.00000000       2.00242424       0.00000000       0.00000000       7.54717398
2
Properties=species:S:1:pos:R:3:forces:R:3 energy=-5.351620233442282 pbc="F F F"
Pr       0.00000000       0.00000000       0.00000000       0.00000000       0.00000000      -6.57791424
Pr       0.00000000       0.00000000       2.06121212       0.00000000       0.00000000       6.57791424
2
Properties=species:S:1:pos:R:3:forces:R:3 energy=-5.706733389439136 pbc="F F F"
Pr       0.00000000       0.00000000       0.00000000       0.00000000       0.00000000      -5.48948669
Pr       0.00000000       0.00000000       2.12000000       0.00000000       0.00000000       5.48948669
2
Properties=species:S:1:pos:R:3:forces:R:3 energy=-5.996416765204562 pbc="F F F"
Pr       0.00000000       0.00000000       0.00000000       0.00000000       0.00000000      -4.36985159
Pr       0.00000000       0.00000000       2.17878788       0.00000000       0.00000000       4.36985159
2
Properties=species:S:1:pos:R:3:forces:R:3 energy=-6.222197125290873 pbc="F F F"
Pr       0.00000000       0.00000000       0.00000000       0.00000000       0.00000000      -3.33502340
Pr       0.00000000       0.00000000       2.23757576       0.00000000       0.00000000       3.33502340
2
Properties=species:S:1:pos:R:3:forces:R:3 energy=-6.392120450507031 pbc="F F F"
Pr       0.00000000       0.00000000       0.00000000       0.00000000       0.00000000      -2.48060489
Pr       0.00000000       0.00000000       2.29636364       0.00000000       0.00000000       2.48060489
2
Properties=species:S:1:pos:R:3:forces:R:3 energy=-6.517959140696909 pbc="F F F"
Pr       0.00000000       0.00000000       0.00000000       0.00000000       0.00000000      -1.83316696
Pr       0.00000000       0.00000000       2.35515152       0.00000000       0.00000000       1.83316696
2
Properties=species:S:1:pos:R:3:forces:R:3 energy=-6.61096389783944 pbc="F F F"
Pr       0.00000000       0.00000000       0.00000000       0.00000000       0.00000000      -1.35392201
Pr       0.00000000       0.00000000       2.41393939       0.00000000       0.00000000       1.35392201
2
Properties=species:S:1:pos:R:3:forces:R:3 energy=-6.679273972757263 pbc="F F F"
Pr       0.00000000       0.00000000       0.00000000       0.00000000       0.00000000      -0.98386872
Pr       0.00000000       0.00000000       2.47272727       0.00000000       0.00000000       0.98386872
2
Properties=species:S:1:pos:R:3:forces:R:3 energy=-6.7279166756082756 pbc="F F F"
Pr       0.00000000       0.00000000       0.00000000       0.00000000       0.00000000      -0.67960054
Pr       0.00000000       0.00000000       2.53151515       0.00000000       0.00000000       0.67960054
2
Properties=species:S:1:pos:R:3:forces:R:3 energy=-6.760051996896271 pbc="F F F"
Pr       0.00000000       0.00000000       0.00000000       0.00000000       0.00000000      -0.42033777
Pr       0.00000000       0.00000000       2.59030303       0.00000000       0.00000000       0.42033777
2
Properties=species:S:1:pos:R:3:forces:R:3 energy=-6.778085882851176 pbc="F F F"
Pr       0.00000000       0.00000000       0.00000000       0.00000000       0.00000000      -0.19933391
Pr       0.00000000       0.00000000       2.64909091       0.00000000       0.00000000       0.19933391
2
Properties=species:S:1:pos:R:3:forces:R:3 energy=-6.7841796622407555 pbc="F F F"
Pr       0.00000000       0.00000000       0.00000000       0.00000000       0.00000000      -0.01344635
Pr       0.00000000       0.00000000       2.70787879       0.00000000       0.00000000       0.01344635
2
Properties=species:S:1:pos:R:3:forces:R:3 energy=-6.780233141658176 pbc="F F F"
Pr       0.00000000       0.00000000       0.00000000       0.00000000       0.00000000       0.14374134
Pr       0.00000000       0.00000000       2.76666667       0.00000000       0.00000000      -0.14374134
2
Properties=species:S:1:pos:R:3:forces:R:3 energy=-6.767617817467889 pbc="F F F"
Pr       0.00000000       0.00000000       0.00000000       0.00000000       0.00000000       0.28373349
Pr       0.00000000       0.00000000       2.82545455       0.00000000       0.00000000      -0.28373349
2
Properties=species:S:1:pos:R:3:forces:R:3 energy=-6.7469324564122894 pbc="F F F"
Pr       0.00000000       0.00000000       0.00000000       0.00000000       0.00000000       0.42063728
Pr       0.00000000       0.00000000       2.88424242       0.00000000       0.00000000      -0.42063728
2
Properties=species:S:1:pos:R:3:forces:R:3 energy=-6.717971025481029 pbc="F F F"
Pr       0.00000000       0.00000000       0.00000000       0.00000000       0.00000000       0.56701785
Pr       0.00000000       0.00000000       2.94303030       0.00000000       0.00000000      -0.56701785
2
Properties=species:S:1:pos:R:3:forces:R:3 energy=-6.679927263051375 pbc="F F F"
Pr       0.00000000       0.00000000       0.00000000       0.00000000       0.00000000       0.73034745
Pr       0.00000000       0.00000000       3.00181818       0.00000000       0.00000000      -0.73034745
2
Properties=species:S:1:pos:R:3:forces:R:3 energy=-6.631762274323831 pbc="F F F"
Pr       0.00000000       0.00000000       0.00000000       0.00000000       0.00000000       0.91065806
Pr       0.00000000       0.00000000       3.06060606       0.00000000       0.00000000      -0.91065806
2
Properties=species:S:1:pos:R:3:forces:R:3 energy=-6.572688731777817 pbc="F F F"
Pr       0.00000000       0.00000000       0.00000000       0.00000000       0.00000000       1.09924889
Pr       0.00000000       0.00000000       3.11939394       0.00000000       0.00000000      -1.09924889
2
Properties=species:S:1:pos:R:3:forces:R:3 energy=-6.50267873208773 pbc="F F F"
Pr       0.00000000       0.00000000       0.00000000       0.00000000       0.00000000       1.27944112
Pr       0.00000000       0.00000000       3.17818182       0.00000000       0.00000000      -1.27944112
2
Properties=species:S:1:pos:R:3:forces:R:3 energy=-6.422826897283532 pbc="F F F"
Pr       0.00000000       0.00000000       0.00000000       0.00000000       0.00000000       1.43065941
Pr       0.00000000       0.00000000       3.23696970       0.00000000       0.00000000      -1.43065941
2
Properties=species:S:1:pos:R:3:forces:R:3 energy=-6.335385267890506 pbc="F F F"
Pr       0.00000000       0.00000000       0.00000000       0.00000000       0.00000000       1.53538740
Pr       0.00000000       0.00000000       3.29575758       0.00000000       0.00000000      -1.53538740
2
Properties=species:S:1:pos:R:3:forces:R:3 energy=-6.243379276290679 pbc="F F F"
Pr       0.00000000       0.00000000       0.00000000       0.00000000       0.00000000       1.58559287
Pr       0.00000000       0.00000000       3.35454545       0.00000000       0.00000000      -1.58559287
2
Properties=species:S:1:pos:R:3:forces:R:3 energy=-6.149962007840303 pbc="F F F"
Pr       0.00000000       0.00000000       0.00000000       0.00000000       0.00000000       1.58487856
Pr       0.00000000       0.00000000       3.41333333       0.00000000       0.00000000      -1.58487856
2
Properties=species:S:1:pos:R:3:forces:R:3 energy=-6.057797650424292 pbc="F F F"
Pr       0.00000000       0.00000000       0.00000000       0.00000000       0.00000000       1.54535484
Pr       0.00000000       0.00000000       3.47212121       0.00000000       0.00000000      -1.54535484
2
Properties=species:S:1:pos:R:3:forces:R:3 energy=-5.968731949294759 pbc="F F F"
Pr       0.00000000       0.00000000       0.00000000       0.00000000       0.00000000       1.48198080
Pr       0.00000000       0.00000000       3.53090909       0.00000000       0.00000000      -1.48198080
2
Properties=species:S:1:pos:R:3:forces:R:3 energy=-5.883759406677404 pbc="F F F"
Pr       0.00000000       0.00000000       0.00000000       0.00000000       0.00000000       1.40795457
Pr       0.00000000       0.00000000       3.58969697       0.00000000       0.00000000      -1.40795457
2
Properties=species:S:1:pos:R:3:forces:R:3 energy=-5.803206876748708 pbc="F F F"
Pr       0.00000000       0.00000000       0.00000000       0.00000000       0.00000000       1.33294570
Pr       0.00000000       0.00000000       3.64848485       0.00000000       0.00000000      -1.33294570
2
Properties=species:S:1:pos:R:3:forces:R:3 energy=-5.726932794869048 pbc="F F F"
Pr       0.00000000       0.00000000       0.00000000       0.00000000       0.00000000       1.26318383
Pr       0.00000000       0.00000000       3.70727273       0.00000000       0.00000000      -1.26318383
2
Properties=species:S:1:pos:R:3:forces:R:3 energy=-5.654521402361544 pbc="F F F"
Pr       0.00000000       0.00000000       0.00000000       0.00000000       0.00000000       1.20173633
Pr       0.00000000       0.00000000       3.76606061       0.00000000       0.00000000      -1.20173633
2
Properties=species:S:1:pos:R:3:forces:R:3 energy=-5.585479127393509 pbc="F F F"
Pr       0.00000000       0.00000000       0.00000000       0.00000000       0.00000000       1.14827418
Pr       0.00000000       0.00000000       3.82484848       0.00000000       0.00000000      -1.14827418
2
Properties=species:S:1:pos:R:3:forces:R:3 energy=-5.5194248430025725 pbc="F F F"
Pr       0.00000000       0.00000000       0.00000000       0.00000000       0.00000000       1.09919488
Pr       0.00000000       0.00000000       3.88363636       0.00000000       0.00000000      -1.09919488
2
Properties=species:S:1:pos:R:3:forces:R:3 energy=-5.456260224675043 pbc="F F F"
Pr       0.00000000       0.00000000       0.00000000       0.00000000       0.00000000       1.04909325
Pr       0.00000000       0.00000000       3.94242424       0.00000000       0.00000000      -1.04909325
2
Properties=species:S:1:pos:R:3:forces:R:3 energy=-5.3961935541899555 pbc="F F F"
Pr       0.00000000       0.00000000       0.00000000       0.00000000       0.00000000       0.99317116
Pr       0.00000000       0.00000000       4.00121212       0.00000000       0.00000000      -0.99317116
2
Properties=species:S:1:pos:R:3:forces:R:3 energy=-5.339646660345486 pbc="F F F"
Pr       0.00000000       0.00000000       0.00000000       0.00000000       0.00000000       0.92926908
Pr       0.00000000       0.00000000       4.06000000       0.00000000       0.00000000      -0.92926908
2
Properties=species:S:1:pos:R:3:forces:R:3 energy=-5.287069142536586 pbc="F F F"
Pr       0.00000000       0.00000000       0.00000000       0.00000000       0.00000000       0.85859954
Pr       0.00000000       0.00000000       4.11878788       0.00000000       0.00000000      -0.85859954
2
Properties=species:S:1:pos:R:3:forces:R:3 energy=-5.23874906640317 pbc="F F F"
Pr       0.00000000       0.00000000       0.00000000       0.00000000       0.00000000       0.78525853
Pr       0.00000000       0.00000000       4.17757576       0.00000000       0.00000000      -0.78525853
2
Properties=species:S:1:pos:R:3:forces:R:3 energy=-5.194680415771433 pbc="F F F"
Pr       0.00000000       0.00000000       0.00000000       0.00000000       0.00000000       0.71501058
Pr       0.00000000       0.00000000       4.23636364       0.00000000       0.00000000      -0.71501058
2
Properties=species:S:1:pos:R:3:forces:R:3 energy=-5.154502998500616 pbc="F F F"
Pr       0.00000000       0.00000000       0.00000000       0.00000000       0.00000000       0.65375346
Pr       0.00000000       0.00000000       4.29515152       0.00000000       0.00000000      -0.65375346
2
Properties=species:S:1:pos:R:3:forces:R:3 energy=-5.117546581598631 pbc="F F F"
Pr       0.00000000       0.00000000       0.00000000       0.00000000       0.00000000       0.60612011
Pr       0.00000000       0.00000000       4.35393939       0.00000000       0.00000000      -0.60612011
2
Properties=species:S:1:pos:R:3:forces:R:3 energy=-5.082924574716452 pbc="F F F"
Pr       0.00000000       0.00000000       0.00000000       0.00000000       0.00000000       0.57445109
Pr       0.00000000       0.00000000       4.41272727       0.00000000       0.00000000      -0.57445109
2
Properties=species:S:1:pos:R:3:forces:R:3 energy=-5.0496974632523 pbc="F F F"
Pr       0.00000000       0.00000000       0.00000000       0.00000000       0.00000000       0.55837870
Pr       0.00000000       0.00000000       4.47151515       0.00000000       0.00000000      -0.55837870
2
Properties=species:S:1:pos:R:3:forces:R:3 energy=-5.017023311495593 pbc="F F F"
Pr       0.00000000       0.00000000       0.00000000       0.00000000       0.00000000       0.55495220
Pr       0.00000000       0.00000000       4.53030303       0.00000000       0.00000000      -0.55495220
2
Properties=species:S:1:pos:R:3:forces:R:3 energy=-4.9842961974582956 pbc="F F F"
Pr       0.00000000       0.00000000       0.00000000       0.00000000       0.00000000       0.55928516
Pr       0.00000000       0.00000000       4.58909091       0.00000000       0.00000000      -0.55928516
2
Properties=species:S:1:pos:R:3:forces:R:3 energy=-4.951226448230374 pbc="F F F"
Pr       0.00000000       0.00000000       0.00000000       0.00000000       0.00000000       0.56564039
Pr       0.00000000       0.00000000       4.64787879       0.00000000       0.00000000      -0.56564039
2
Properties=species:S:1:pos:R:3:forces:R:3 energy=-4.917854354215793 pbc="F F F"
Pr       0.00000000       0.00000000       0.00000000       0.00000000       0.00000000       0.56875801
Pr       0.00000000       0.00000000       4.70666667       0.00000000       0.00000000      -0.56875801
2
Properties=species:S:1:pos:R:3:forces:R:3 energy=-4.8844864630226414 pbc="F F F"
Pr       0.00000000       0.00000000       0.00000000       0.00000000       0.00000000       0.56523812
Pr       0.00000000       0.00000000       4.76545455       0.00000000       0.00000000      -0.56523812
2
Properties=species:S:1:pos:R:3:forces:R:3 energy=-4.851537269526614 pbc="F F F"
Pr       0.00000000       0.00000000       0.00000000       0.00000000       0.00000000       0.55457348
Pr       0.00000000       0.00000000       4.82424242       0.00000000       0.00000000      -0.55457348
2
Properties=species:S:1:pos:R:3:forces:R:3 energy=-4.819372361788532 pbc="F F F"
Pr       0.00000000       0.00000000       0.00000000       0.00000000       0.00000000       0.53943431
Pr       0.00000000       0.00000000       4.88303030       0.00000000       0.00000000      -0.53943431
2
Properties=species:S:1:pos:R:3:forces:R:3 energy=-4.788103870584769 pbc="F F F"
Pr       0.00000000       0.00000000       0.00000000       0.00000000       0.00000000       0.52483737
Pr       0.00000000       0.00000000       4.94181818       0.00000000       0.00000000      -0.52483737
2
Properties=species:S:1:pos:R:3:forces:R:3 energy=-4.757543726694458 pbc="F F F"
Pr       0.00000000       0.00000000       0.00000000       0.00000000       0.00000000       0.51624990
Pr       0.00000000       0.00000000       5.00060606       0.00000000       0.00000000      -0.51624990
2
Properties=species:S:1:pos:R:3:forces:R:3 energy=-4.727219122429165 pbc="F F F"
Pr       0.00000000       0.00000000       0.00000000       0.00000000       0.00000000       0.51694125
Pr       0.00000000       0.00000000       5.05939394       0.00000000       0.00000000      -0.51694125
2
Properties=species:S:1:pos:R:3:forces:R:3 energy=-4.6966077270642606 pbc="F F F"
Pr       0.00000000       0.00000000       0.00000000       0.00000000       0.00000000       0.52539176
Pr       0.00000000       0.00000000       5.11818182       0.00000000       0.00000000      -0.52539176
2
Properties=species:S:1:pos:R:3:forces:R:3 energy=-4.665444533886117 pbc="F F F"
Pr       0.00000000       0.00000000       0.00000000       0.00000000       0.00000000       0.53383255
Pr       0.00000000       0.00000000       5.17696970       0.00000000       0.00000000      -0.53383255
2
Properties=species:S:1:pos:R:3:forces:R:3 energy=-4.634088459267749 pbc="F F F"
Pr       0.00000000       0.00000000       0.00000000       0.00000000       0.00000000       0.52985084
Pr       0.00000000       0.00000000       5.23575758       0.00000000       0.00000000      -0.52985084
2
Properties=species:S:1:pos:R:3:forces:R:3 energy=-4.603561768097489 pbc="F F F"
Pr       0.00000000       0.00000000       0.00000000       0.00000000       0.00000000       0.50552082
Pr       0.00000000       0.00000000       5.29454545       0.00000000       0.00000000      -0.50552082
2
Properties=species:S:1:pos:R:3:forces:R:3 energy=-4.574785264991084 pbc="F F F"
Pr       0.00000000       0.00000000       0.00000000       0.00000000       0.00000000       0.47533622
Pr       0.00000000       0.00000000       5.35333333       0.00000000       0.00000000      -0.47533622
2
Properties=species:S:1:pos:R:3:forces:R:3 energy=-4.547056141383697 pbc="F F F"
Pr       0.00000000       0.00000000       0.00000000       0.00000000       0.00000000       0.47541493
Pr       0.00000000       0.00000000       5.41212121       0.00000000       0.00000000      -0.47541493
2
Properties=species:S:1:pos:R:3:forces:R:3 energy=-4.518264746367564 pbc="F F F"
Pr       0.00000000       0.00000000       0.00000000       0.00000000       0.00000000       0.50443709
Pr       0.00000000       0.00000000       5.47090909       0.00000000       0.00000000      -0.50443709
2
Properties=species:S:1:pos:R:3:forces:R:3 energy=-4.488382713860681 pbc="F F F"
Pr       0.00000000       0.00000000       0.00000000       0.00000000       0.00000000       0.50275761
Pr       0.00000000       0.00000000       5.52969697       0.00000000       0.00000000      -0.50275761
2
Properties=species:S:1:pos:R:3:forces:R:3 energy=-4.460149411709659 pbc="F F F"
Pr       0.00000000       0.00000000       0.00000000       0.00000000       0.00000000       0.45285502
Pr       0.00000000       0.00000000       5.58848485       0.00000000       0.00000000      -0.45285502
2
Properties=species:S:1:pos:R:3:forces:R:3 energy=-4.4351083508534845 pbc="F F F"
Pr       0.00000000       0.00000000       0.00000000       0.00000000       0.00000000       0.40518185
Pr       0.00000000       0.00000000       5.64727273       0.00000000       0.00000000      -0.40518185
2
Properties=species:S:1:pos:R:3:forces:R:3 energy=-4.41146038207392 pbc="F F F"
Pr       0.00000000       0.00000000       0.00000000       0.00000000       0.00000000       0.40850741
Pr       0.00000000       0.00000000       5.70606061       0.00000000       0.00000000      -0.40850741
2
Properties=species:S:1:pos:R:3:forces:R:3 energy=-4.386499825358543 pbc="F F F"
Pr       0.00000000       0.00000000       0.00000000       0.00000000       0.00000000       0.43547556
Pr       0.00000000       0.00000000       5.76484848       0.00000000       0.00000000      -0.43547556
2
Properties=species:S:1:pos:R:3:forces:R:3 energy=-4.361682600992885 pbc="F F F"
Pr       0.00000000       0.00000000       0.00000000       0.00000000       0.00000000       0.39129636
Pr       0.00000000       0.00000000       5.82363636       0.00000000       0.00000000      -0.39129636
2
Properties=species:S:1:pos:R:3:forces:R:3 energy=-4.3425311679035605 pbc="F F F"
Pr       0.00000000       0.00000000       0.00000000       0.00000000       0.00000000       0.25202522
Pr       0.00000000       0.00000000       5.88242424       0.00000000       0.00000000      -0.25202522
2
Properties=species:S:1:pos:R:3:forces:R:3 energy=-4.332181644787407 pbc="F F F"
Pr       0.00000000       0.00000000       0.00000000       0.00000000       0.00000000       0.10700004
Pr       0.00000000       0.00000000       5.94121212       0.00000000       0.00000000      -0.10700004
2
Properties=species:S:1:pos:R:3:forces:R:3 energy=-4.32820202313845 pbc="F F F"
Pr       0.00000000       0.00000000       0.00000000       0.00000000       0.00000000       0.04782233
Pr       0.00000000       0.00000000       6.00000000       0.00000000       0.00000000      -0.04782233
