2
Properties=species:S:1:pos:R:3:forces:R:3 energy=9041.025840201073 pbc="F F F"
Sb       0.00000000       0.00000000       0.00000000       0.00000000       0.00000000 -148824.87500000
Sb       0.00000000       0.00000000       0.18000000       0.00000000       0.00000000  148824.87500000
2
Properties=species:S:1:pos:R:3:forces:R:3 energy=3759.815146841698 pbc="F F F"
Sb       0.00000000       0.00000000       0.00000000       0.00000000       0.00000000  -51081.07421875
Sb       0.00000000       0.00000000       0.23878788       0.00000000       0.00000000   51081.07421875
2
Properties=species:S:1:pos:R:3:forces:R:3 energy=1804.530478872948 pbc="F F F"
Sb       0.00000000       0.00000000       0.00000000       0.00000000       0.00000000  -20661.10156250
Sb       0.00000000       0.00000000       0.29757576       0.00000000       0.00000000   20661.10156250
2
Properties=species:S:1:pos:R:3:forces:R:3 energy=975.2845682347524 pbc="F F F"
Sb       0.00000000       0.00000000       0.00000000       0.00000000       0.00000000   -9254.29199219
Sb       0.00000000       0.00000000       0.35636364       0.00000000       0.00000000    9254.29199219
2
Properties=species:S:1:pos:R:3:forces:R:3 energy=591.5013040745962 pbc="F F F"
Sb       0.00000000       0.00000000       0.00000000       0.00000000       0.00000000   -4450.28955078
Sb       0.00000000       0.00000000       0.41515152       0.00000000       0.00000000    4450.28955078
2
Properties=species:S:1:pos:R:3:forces:R:3 energy=402.05705970883747 pbc="F F F"
Sb       0.00000000       0.00000000       0.00000000       0.00000000       0.00000000   -2268.37426758
Sb       0.00000000       0.00000000       0.47393939       0.00000000       0.00000000    2268.37426758
2
Properties=species:S:1:pos:R:3:forces:R:3 energy=302.7741007561407 pbc="F F F"
Sb       0.00000000       0.00000000       0.00000000       0.00000000       0.00000000   -1234.97412109
Sb       0.00000000       0.00000000       0.53272727       0.00000000       0.00000000    1234.97412109
2
Properties=species:S:1:pos:R:3:forces:R:3 energy=246.41364243280242 pbc="F F F"
Sb       0.00000000       0.00000000       0.00000000       0.00000000       0.00000000    -748.59649658
Sb       0.00000000       0.00000000       0.59151515       0.00000000       0.00000000     748.59649658
2
Properties=species:S:1:pos:R:3:forces:R:3 energy=209.49571953519734 pbc="F F F"
Sb       0.00000000       0.00000000       0.00000000       0.00000000       0.00000000    -531.06701660
Sb       0.00000000       0.00000000       0.65030303       0.00000000       0.00000000     531.06701660
2
Properties=species:S:1:pos:R:3:forces:R:3 energy=181.71663641629274 pbc="F F F"
Sb       0.00000000       0.00000000       0.00000000       0.00000000       0.00000000    -429.97470093
Sb       0.00000000       0.00000000       0.70909091       0.00000000       0.00000000     429.97470093
2
Properties=species:S:1:pos:R:3:forces:R:3 energy=157.65700526504148 pbc="F F F"
Sb       0.00000000       0.00000000       0.00000000       0.00000000       0.00000000    -394.53784180
Sb       0.00000000       0.00000000       0.76787879       0.00000000       0.00000000     394.53784180
2
Properties=species:S:1:pos:R:3:forces:R:3 energy=135.10402703452047 pbc="F F F"
Sb       0.00000000       0.00000000       0.00000000       0.00000000       0.00000000    -371.78393555
Sb       0.00000000       0.00000000       0.82666667       0.00000000       0.00000000     371.78393555
2
Properties=species:S:1:pos:R:3:forces:R:3 energy=113.98684757573187 pbc="F F F"
Sb       0.00000000       0.00000000       0.00000000       0.00000000       0.00000000    -350.92449951
Sb       0.00000000       0.00000000       0.88545455       0.00000000       0.00000000     350.92449951
2
Properties=species:S:1:pos:R:3:forces:R:3 energy=93.51643495060334 pbc="F F F"
Sb       0.00000000       0.00000000       0.00000000       0.00000000       0.00000000    -335.75491333
Sb       0.00000000       0.00000000       0.94424242       0.00000000       0.00000000     335.75491333
2
Properties=species:S:1:pos:R:3:forces:R:3 energy=75.08963978942187 pbc="F F F"
Sb       0.00000000       0.00000000       0.00000000       0.00000000       0.00000000    -289.25585938
Sb       0.00000000       0.00000000       1.00303030       0.00000000       0.00000000     289.25585938
2
Properties=species:S:1:pos:R:3:forces:R:3 energy=59.49451757546577 pbc="F F F"
Sb       0.00000000       0.00000000       0.00000000       0.00000000       0.00000000    -240.63410950
Sb       0.00000000       0.00000000       1.06181818       0.00000000       0.00000000     240.63410950
2
Properties=species:S:1:pos:R:3:forces:R:3 energy=46.71248698804628 pbc="F F F"
Sb       0.00000000       0.00000000       0.00000000       0.00000000       0.00000000    -195.50067139
Sb       0.00000000       0.00000000       1.12060606       0.00000000       0.00000000     195.50067139
2
Properties=species:S:1:pos:R:3:forces:R:3 energy=37.29703017786213 pbc="F F F"
Sb       0.00000000       0.00000000       0.00000000       0.00000000       0.00000000    -115.38005829
Sb       0.00000000       0.00000000       1.17939394       0.00000000       0.00000000     115.38005829
2
Properties=species:S:1:pos:R:3:forces:R:3 energy=32.443112621503744 pbc="F F F"
Sb       0.00000000       0.00000000       0.00000000       0.00000000       0.00000000     -64.53231812
Sb       0.00000000       0.00000000       1.23818182       0.00000000       0.00000000      64.53231812
2
Properties=species:S:1:pos:R:3:forces:R:3 energy=28.6528382385547 pbc="F F F"
Sb       0.00000000       0.00000000       0.00000000       0.00000000       0.00000000     -67.59593201
Sb       0.00000000       0.00000000       1.29696970       0.00000000       0.00000000      67.59593201
2
Properties=species:S:1:pos:R:3:forces:R:3 energy=24.417008032278773 pbc="F F F"
Sb       0.00000000       0.00000000       0.00000000       0.00000000       0.00000000     -75.85532379
Sb       0.00000000       0.00000000       1.35575758       0.00000000       0.00000000      75.85532379
2
Properties=species:S:1:pos:R:3:forces:R:3 energy=19.900729900789138 pbc="F F F"
Sb       0.00000000       0.00000000       0.00000000       0.00000000       0.00000000     -75.84029388
Sb       0.00000000       0.00000000       1.41454545       0.00000000       0.00000000      75.84029388
2
Properties=species:S:1:pos:R:3:forces:R:3 energy=15.700674203918892 pbc="F F F"
Sb       0.00000000       0.00000000       0.00000000       0.00000000       0.00000000     -66.03607178
Sb       0.00000000       0.00000000       1.47333333       0.00000000       0.00000000      66.03607178
2
Properties=species:S:1:pos:R:3:forces:R:3 energy=12.171072985155917 pbc="F F F"
Sb       0.00000000       0.00000000       0.00000000       0.00000000       0.00000000     -54.22536469
Sb       0.00000000       0.00000000       1.53212121       0.00000000       0.00000000      54.22536469
2
Properties=species:S:1:pos:R:3:forces:R:3 energy=9.284358653468564 pbc="F F F"
Sb       0.00000000       0.00000000       0.00000000       0.00000000       0.00000000     -44.38750076
Sb       0.00000000       0.00000000       1.59090909       0.00000000       0.00000000      44.38750076
2
Properties=species:S:1:pos:R:3:forces:R:3 energy=6.903593417874985 pbc="F F F"
Sb       0.00000000       0.00000000       0.00000000       0.00000000       0.00000000     -37.01829147
Sb       0.00000000       0.00000000       1.64969697       0.00000000       0.00000000      37.01829147
2
Properties=species:S:1:pos:R:3:forces:R:3 energy=4.887626166934739 pbc="F F F"
Sb       0.00000000       0.00000000       0.00000000       0.00000000       0.00000000     -31.87975311
Sb       0.00000000       0.00000000       1.70848485       0.00000000       0.00000000      31.87975311
2
Properties=species:S:1:pos:R:3:forces:R:3 energy=3.129006808228279 pbc="F F F"
Sb       0.00000000       0.00000000       0.00000000       0.00000000       0.00000000     -28.08288383
Sb       0.00000000       0.00000000       1.76727273       0.00000000       0.00000000      28.08288383
2
Properties=species:S:1:pos:R:3:forces:R:3 energy=1.5779625436605709 pbc="F F F"
Sb       0.00000000       0.00000000       0.00000000       0.00000000       0.00000000     -24.70790291
Sb       0.00000000       0.00000000       1.82606061       0.00000000       0.00000000      24.70790291
2
Properties=species:S:1:pos:R:3:forces:R:3 energy=0.22250881019465737 pbc="F F F"
Sb       0.00000000       0.00000000       0.00000000       0.00000000       0.00000000     -21.42134666
Sb       0.00000000       0.00000000       1.88484848       0.00000000       0.00000000      21.42134666
2
Properties=species:S:1:pos:R:3:forces:R:3 energy=-0.9440729723715809 pbc="F F F"
Sb       0.00000000       0.00000000       0.00000000       0.00000000       0.00000000     -18.30833435
Sb       0.00000000       0.00000000       1.94363636       0.00000000       0.00000000      18.30833435
2
Properties=species:S:1:pos:R:3:forces:R:3 energy=-1.9359707555554264 pbc="F F F"
Sb       0.00000000       0.00000000       0.00000000       0.00000000       0.00000000     -15.49013710
Sb       0.00000000       0.00000000       2.00242424       0.00000000       0.00000000      15.49013710
2
Properties=species:S:1:pos:R:3:forces:R:3 energy=-2.7715165685745067 pbc="F F F"
Sb       0.00000000       0.00000000       0.00000000       0.00000000       0.00000000     -12.98531818
Sb       0.00000000       0.00000000       2.06121212       0.00000000       0.00000000      12.98531818
2
Properties=species:S:1:pos:R:3:forces:R:3 energy=-3.4681223770140535 pbc="F F F"
Sb       0.00000000       0.00000000       0.00000000       0.00000000       0.00000000     -10.75626278
Sb       0.00000000       0.00000000       2.12000000       0.00000000       0.00000000      10.75626278
2
Properties=species:S:1:pos:R:3:forces:R:3 energy=-4.040853980928052 pbc="F F F"
Sb       0.00000000       0.00000000       0.00000000       0.00000000       0.00000000      -8.76563072
Sb       0.00000000       0.00000000       2.17878788       0.00000000       0.00000000       8.76563072
2
Properties=species:S:1:pos:R:3:forces:R:3 energy=-4.502942040888922 pbc="F F F"
Sb       0.00000000       0.00000000       0.00000000       0.00000000       0.00000000      -6.98901081
Sb       0.00000000       0.00000000       2.23757576       0.00000000       0.00000000       6.98901081
2
Properties=species:S:1:pos:R:3:forces:R:3 energy=-4.866423637041301 pbc="F F F"
Sb       0.00000000       0.00000000       0.00000000       0.00000000       0.00000000      -5.40816212
Sb       0.00000000       0.00000000       2.29636364       0.00000000       0.00000000       5.40816212
2
Properties=species:S:1:pos:R:3:forces:R:3 energy=-5.142331986934569 pbc="F F F"
Sb       0.00000000       0.00000000       0.00000000       0.00000000       0.00000000      -4.00707483
Sb       0.00000000       0.00000000       2.35515152       0.00000000       0.00000000       4.00707483
2
Properties=species:S:1:pos:R:3:forces:R:3 energy=-5.340775971958217 pbc="F F F"
Sb       0.00000000       0.00000000       0.00000000       0.00000000       0.00000000      -2.77000952
Sb       0.00000000       0.00000000       2.41393939       0.00000000       0.00000000       2.77000952
2
Properties=species:S:1:pos:R:3:forces:R:3 energy=-5.470898795892999 pbc="F F F"
Sb       0.00000000       0.00000000       0.00000000       0.00000000       0.00000000      -1.67987204
Sb       0.00000000       0.00000000       2.47272727       0.00000000       0.00000000       1.67987204
2
Properties=species:S:1:pos:R:3:forces:R:3 energy=-5.540820331964299 pbc="F F F"
Sb       0.00000000       0.00000000       0.00000000       0.00000000       0.00000000      -0.71928519
Sb       0.00000000       0.00000000       2.53151515       0.00000000       0.00000000       0.71928519
2
Properties=species:S:1:pos:R:3:forces:R:3 energy=-5.557746852409315 pbc="F F F"
Sb       0.00000000       0.00000000       0.00000000       0.00000000       0.00000000       0.12477927
Sb       0.00000000       0.00000000       2.59030303       0.00000000       0.00000000      -0.12477927
2
Properties=species:S:1:pos:R:3:forces:R:3 energy=-5.528339096078045 pbc="F F F"
Sb       0.00000000       0.00000000       0.00000000       0.00000000       0.00000000       0.85690522
Sb       0.00000000       0.00000000       2.64909091       0.00000000       0.00000000      -0.85690522
2
Properties=species:S:1:pos:R:3:forces:R:3 energy=-5.4592564283298035 pbc="F F F"
Sb       0.00000000       0.00000000       0.00000000       0.00000000       0.00000000       1.47351444
Sb       0.00000000       0.00000000       2.70787879       0.00000000       0.00000000      -1.47351444
2
Properties=species:S:1:pos:R:3:forces:R:3 energy=-5.357493895211997 pbc="F F F"
Sb       0.00000000       0.00000000       0.00000000       0.00000000       0.00000000       1.96751106
Sb       0.00000000       0.00000000       2.76666667       0.00000000       0.00000000      -1.96751106
2
Properties=species:S:1:pos:R:3:forces:R:3 energy=-5.230421450819973 pbc="F F F"
Sb       0.00000000       0.00000000       0.00000000       0.00000000       0.00000000       2.33430958
Sb       0.00000000       0.00000000       2.82545455       0.00000000       0.00000000      -2.33430958
2
Properties=species:S:1:pos:R:3:forces:R:3 energy=-5.08548925926197 pbc="F F F"
Sb       0.00000000       0.00000000       0.00000000       0.00000000       0.00000000       2.57617688
Sb       0.00000000       0.00000000       2.88424242       0.00000000       0.00000000      -2.57617688
2
Properties=species:S:1:pos:R:3:forces:R:3 energy=-4.92977793418478 pbc="F F F"
Sb       0.00000000       0.00000000       0.00000000       0.00000000       0.00000000       2.70327830
Sb       0.00000000       0.00000000       2.94303030       0.00000000       0.00000000      -2.70327830
2
Properties=species:S:1:pos:R:3:forces:R:3 energy=-4.769583357664939 pbc="F F F"
Sb       0.00000000       0.00000000       0.00000000       0.00000000       0.00000000       2.73181272
Sb       0.00000000       0.00000000       3.00181818       0.00000000       0.00000000      -2.73181272
2
Properties=species:S:1:pos:R:3:forces:R:3 energy=-4.61013514488891 pbc="F F F"
Sb       0.00000000       0.00000000       0.00000000       0.00000000       0.00000000       2.68125439
Sb       0.00000000       0.00000000       3.06060606       0.00000000       0.00000000      -2.68125439
2
Properties=species:S:1:pos:R:3:forces:R:3 energy=-4.455474812771373 pbc="F F F"
Sb       0.00000000       0.00000000       0.00000000       0.00000000       0.00000000       2.57245326
Sb       0.00000000       0.00000000       3.11939394       0.00000000       0.00000000      -2.57245326
2
Properties=species:S:1:pos:R:3:forces:R:3 energy=-4.3084024690683265 pbc="F F F"
Sb       0.00000000       0.00000000       0.00000000       0.00000000       0.00000000       2.42654085
Sb       0.00000000       0.00000000       3.17818182       0.00000000       0.00000000      -2.42654085
2
Properties=species:S:1:pos:R:3:forces:R:3 energy=-4.170508141557079 pbc="F F F"
Sb       0.00000000       0.00000000       0.00000000       0.00000000       0.00000000       2.26335692
Sb       0.00000000       0.00000000       3.23696970       0.00000000       0.00000000      -2.26335692
2
Properties=species:S:1:pos:R:3:forces:R:3 energy=-4.042303927203715 pbc="F F F"
Sb       0.00000000       0.00000000       0.00000000       0.00000000       0.00000000       2.09914684
Sb       0.00000000       0.00000000       3.29575758       0.00000000       0.00000000      -2.09914684
2
Properties=species:S:1:pos:R:3:forces:R:3 energy=-3.9235095126323505 pbc="F F F"
Sb       0.00000000       0.00000000       0.00000000       0.00000000       0.00000000       1.94436955
Sb       0.00000000       0.00000000       3.35454545       0.00000000       0.00000000      -1.94436955
2
Properties=species:S:1:pos:R:3:forces:R:3 energy=-3.8134321744944395 pbc="F F F"
Sb       0.00000000       0.00000000       0.00000000       0.00000000       0.00000000       1.80269969
Sb       0.00000000       0.00000000       3.41333333       0.00000000       0.00000000      -1.80269969
2
Properties=species:S:1:pos:R:3:forces:R:3 energy=-3.711337659939463 pbc="F F F"
Sb       0.00000000       0.00000000       0.00000000       0.00000000       0.00000000       1.67204964
Sb       0.00000000       0.00000000       3.47212121       0.00000000       0.00000000      -1.67204964
2
Properties=species:S:1:pos:R:3:forces:R:3 energy=-3.6167214886265735 pbc="F F F"
Sb       0.00000000       0.00000000       0.00000000       0.00000000       0.00000000       1.54743969
Sb       0.00000000       0.00000000       3.53090909       0.00000000       0.00000000      -1.54743969
2
Properties=species:S:1:pos:R:3:forces:R:3 energy=-3.529374343251263 pbc="F F F"
Sb       0.00000000       0.00000000       0.00000000       0.00000000       0.00000000       1.42404068
Sb       0.00000000       0.00000000       3.58969697       0.00000000       0.00000000      -1.42404068
2
Properties=species:S:1:pos:R:3:forces:R:3 energy=-3.449319000389439 pbc="F F F"
Sb       0.00000000       0.00000000       0.00000000       0.00000000       0.00000000       1.29915977
Sb       0.00000000       0.00000000       3.64848485       0.00000000       0.00000000      -1.29915977
2
Properties=species:S:1:pos:R:3:forces:R:3 energy=-3.3766542281152296 pbc="F F F"
Sb       0.00000000       0.00000000       0.00000000       0.00000000       0.00000000       1.17286861
Sb       0.00000000       0.00000000       3.70727273       0.00000000       0.00000000      -1.17286861
2
Properties=species:S:1:pos:R:3:forces:R:3 energy=-3.3113989010795732 pbc="F F F"
Sb       0.00000000       0.00000000       0.00000000       0.00000000       0.00000000       1.04759014
Sb       0.00000000       0.00000000       3.76606061       0.00000000       0.00000000      -1.04759014
2
Properties=species:S:1:pos:R:3:forces:R:3 energy=-3.2533902099522156 pbc="F F F"
Sb       0.00000000       0.00000000       0.00000000       0.00000000       0.00000000       0.92705327
Sb       0.00000000       0.00000000       3.82484848       0.00000000       0.00000000      -0.92705327
2
Properties=species:S:1:pos:R:3:forces:R:3 energy=-3.202232470959441 pbc="F F F"
Sb       0.00000000       0.00000000       0.00000000       0.00000000       0.00000000       0.81503928
Sb       0.00000000       0.00000000       3.88363636       0.00000000       0.00000000      -0.81503928
2
Properties=species:S:1:pos:R:3:forces:R:3 energy=-3.157336464789775 pbc="F F F"
Sb       0.00000000       0.00000000       0.00000000       0.00000000       0.00000000       0.71443623
Sb       0.00000000       0.00000000       3.94242424       0.00000000       0.00000000      -0.71443623
2
Properties=species:S:1:pos:R:3:forces:R:3 energy=-3.117980301359903 pbc="F F F"
Sb       0.00000000       0.00000000       0.00000000       0.00000000       0.00000000       0.62667364
Sb       0.00000000       0.00000000       4.00121212       0.00000000       0.00000000      -0.62667364
2
Properties=species:S:1:pos:R:3:forces:R:3 energy=-3.0834047095547485 pbc="F F F"
Sb       0.00000000       0.00000000       0.00000000       0.00000000       0.00000000       0.55163676
Sb       0.00000000       0.00000000       4.06000000       0.00000000       0.00000000      -0.55163676
2
Properties=species:S:1:pos:R:3:forces:R:3 energy=-3.0528985146238505 pbc="F F F"
Sb       0.00000000       0.00000000       0.00000000       0.00000000       0.00000000       0.48792875
Sb       0.00000000       0.00000000       4.11878788       0.00000000       0.00000000      -0.48792875
2
Properties=species:S:1:pos:R:3:forces:R:3 energy=-3.025857968729602 pbc="F F F"
Sb       0.00000000       0.00000000       0.00000000       0.00000000       0.00000000       0.43329835
Sb       0.00000000       0.00000000       4.17757576       0.00000000       0.00000000      -0.43329835
2
Properties=species:S:1:pos:R:3:forces:R:3 energy=-3.0018260298241777 pbc="F F F"
Sb       0.00000000       0.00000000       0.00000000       0.00000000       0.00000000       0.38513821
Sb       0.00000000       0.00000000       4.23636364       0.00000000       0.00000000      -0.38513821
2
Properties=species:S:1:pos:R:3:forces:R:3 energy=-2.980497139524584 pbc="F F F"
Sb       0.00000000       0.00000000       0.00000000       0.00000000       0.00000000       0.34094423
Sb       0.00000000       0.00000000       4.29515152       0.00000000       0.00000000      -0.34094423
2
Properties=species:S:1:pos:R:3:forces:R:3 energy=-2.9617024728389776 pbc="F F F"
Sb       0.00000000       0.00000000       0.00000000       0.00000000       0.00000000       0.29867157
Sb       0.00000000       0.00000000       4.35393939       0.00000000       0.00000000      -0.29867157
2
Properties=species:S:1:pos:R:3:forces:R:3 energy=-2.945370647450361 pbc="F F F"
Sb       0.00000000       0.00000000       0.00000000       0.00000000       0.00000000       0.25696218
Sb       0.00000000       0.00000000       4.41272727       0.00000000       0.00000000      -0.25696218
2
Properties=species:S:1:pos:R:3:forces:R:3 energy=-2.9314897771486415 pbc="F F F"
Sb       0.00000000       0.00000000       0.00000000       0.00000000       0.00000000       0.21526991
Sb       0.00000000       0.00000000       4.47151515       0.00000000       0.00000000      -0.21526991
2
Properties=species:S:1:pos:R:3:forces:R:3 energy=-2.920054994400651 pbc="F F F"
Sb       0.00000000       0.00000000       0.00000000       0.00000000       0.00000000       0.17384484
Sb       0.00000000       0.00000000       4.53030303       0.00000000       0.00000000      -0.17384484
2
Properties=species:S:1:pos:R:3:forces:R:3 energy=-2.9110265243581868 pbc="F F F"
Sb       0.00000000       0.00000000       0.00000000       0.00000000       0.00000000       0.13362440
Sb       0.00000000       0.00000000       4.58909091       0.00000000       0.00000000      -0.13362440
2
Properties=species:S:1:pos:R:3:forces:R:3 energy=-2.904293655142166 pbc="F F F"
Sb       0.00000000       0.00000000       0.00000000       0.00000000       0.00000000       0.09600571
Sb       0.00000000       0.00000000       4.64787879       0.00000000       0.00000000      -0.09600571
2
Properties=species:S:1:pos:R:3:forces:R:3 energy=-2.89965628140955 pbc="F F F"
Sb       0.00000000       0.00000000       0.00000000       0.00000000       0.00000000       0.06257802
Sb       0.00000000       0.00000000       4.70666667       0.00000000       0.00000000      -0.06257802
2
Properties=species:S:1:pos:R:3:forces:R:3 energy=-2.896824335649343 pbc="F F F"
Sb       0.00000000       0.00000000       0.00000000       0.00000000       0.00000000       0.03482456
Sb       0.00000000       0.00000000       4.76545455       0.00000000       0.00000000      -0.03482456
2
Properties=species:S:1:pos:R:3:forces:R:3 energy=-2.8954289368350117 pbc="F F F"
Sb       0.00000000       0.00000000       0.00000000       0.00000000       0.00000000       0.01383407
Sb       0.00000000       0.00000000       4.82424242       0.00000000       0.00000000      -0.01383407
2
Properties=species:S:1:pos:R:3:forces:R:3 energy=-2.8950555020965796 pbc="F F F"
Sb       0.00000000       0.00000000       0.00000000       0.00000000       0.00000000       0.00007484
Sb       0.00000000       0.00000000       4.88303030       0.00000000       0.00000000      -0.00007484
2
Properties=species:S:1:pos:R:3:forces:R:3 energy=-2.895284168589212 pbc="F F F"
Sb       0.00000000       0.00000000       0.00000000       0.00000000       0.00000000      -0.00676205
Sb       0.00000000       0.00000000       4.94181818       0.00000000       0.00000000       0.00676205
2
Properties=species:S:1:pos:R:3:forces:R:3 energy=-2.8957353789591567 pbc="F F F"
Sb       0.00000000       0.00000000       0.00000000       0.00000000       0.00000000      -0.00773080
Sb       0.00000000       0.00000000       5.00060606       0.00000000       0.00000000       0.00773080
2
Properties=species:S:1:pos:R:3:forces:R:3 energy=-2.8961084924822673 pbc="F F F"
Sb       0.00000000       0.00000000       0.00000000       0.00000000       0.00000000      -0.00438471
Sb       0.00000000       0.00000000       5.05939394       0.00000000       0.00000000       0.00438471
2
Properties=species:S:1:pos:R:3:forces:R:3 energy=-2.896196997919648 pbc="F F F"
Sb       0.00000000       0.00000000       0.00000000       0.00000000       0.00000000       0.00172501
Sb       0.00000000       0.00000000       5.11818182       0.00000000       0.00000000      -0.00172501
2
Properties=species:S:1:pos:R:3:forces:R:3 energy=-2.895872130743869 pbc="F F F"
Sb       0.00000000       0.00000000       0.00000000       0.00000000       0.00000000       0.00956695
Sb       0.00000000       0.00000000       5.17696970       0.00000000       0.00000000      -0.00956695
2
Properties=species:S:1:pos:R:3:forces:R:3 energy=-2.895045431918582 pbc="F F F"
Sb       0.00000000       0.00000000       0.00000000       0.00000000       0.00000000       0.01877355
Sb       0.00000000       0.00000000       5.23575758       0.00000000       0.00000000      -0.01877355
2
Properties=species:S:1:pos:R:3:forces:R:3 energy=-2.8936432941313566 pbc="F F F"
Sb       0.00000000       0.00000000       0.00000000       0.00000000       0.00000000       0.02904275
Sb       0.00000000       0.00000000       5.29454545       0.00000000       0.00000000      -0.02904275
2
Properties=species:S:1:pos:R:3:forces:R:3 energy=-2.891638698391186 pbc="F F F"
Sb       0.00000000       0.00000000       0.00000000       0.00000000       0.00000000       0.03880230
Sb       0.00000000       0.00000000       5.35333333       0.00000000       0.00000000      -0.03880230
2
Properties=species:S:1:pos:R:3:forces:R:3 energy=-2.8891764154607404 pbc="F F F"
Sb       0.00000000       0.00000000       0.00000000       0.00000000       0.00000000       0.04364904
Sb       0.00000000       0.00000000       5.41212121       0.00000000       0.00000000      -0.04364904
2
Properties=species:S:1:pos:R:3:forces:R:3 energy=-2.88667675911996 pbc="F F F"
Sb       0.00000000       0.00000000       0.00000000       0.00000000       0.00000000       0.04033010
Sb       0.00000000       0.00000000       5.47090909       0.00000000       0.00000000      -0.04033010
2
Properties=species:S:1:pos:R:3:forces:R:3 energy=-2.88444487671962 pbc="F F F"
Sb       0.00000000       0.00000000       0.00000000       0.00000000       0.00000000       0.03633688
Sb       0.00000000       0.00000000       5.52969697       0.00000000       0.00000000      -0.03633688
2
Properties=species:S:1:pos:R:3:forces:R:3 energy=-2.882317659977193 pbc="F F F"
Sb       0.00000000       0.00000000       0.00000000       0.00000000       0.00000000       0.03632053
Sb       0.00000000       0.00000000       5.58848485       0.00000000       0.00000000      -0.03632053
2
Properties=species:S:1:pos:R:3:forces:R:3 energy=-2.8802033733364616 pbc="F F F"
Sb       0.00000000       0.00000000       0.00000000       0.00000000       0.00000000       0.03506943
Sb       0.00000000       0.00000000       5.64727273       0.00000000       0.00000000      -0.03506943
2
Properties=species:S:1:pos:R:3:forces:R:3 energy=-2.878235410984331 pbc="F F F"
Sb       0.00000000       0.00000000       0.00000000       0.00000000       0.00000000       0.03215235
Sb       0.00000000       0.00000000       5.70606061       0.00000000       0.00000000      -0.03215235
2
Properties=species:S:1:pos:R:3:forces:R:3 energy=-2.876280257924362 pbc="F F F"
Sb       0.00000000       0.00000000       0.00000000       0.00000000       0.00000000       0.03608589
Sb       0.00000000       0.00000000       5.76484848       0.00000000       0.00000000      -0.03608589
2
Properties=species:S:1:pos:R:3:forces:R:3 energy=-2.8738927377679397 pbc="F F F"
Sb       0.00000000       0.00000000       0.00000000       0.00000000       0.00000000       0.04414240
Sb       0.00000000       0.00000000       5.82363636       0.00000000       0.00000000      -0.04414240
2
Properties=species:S:1:pos:R:3:forces:R:3 energy=-2.8714334251776394 pbc="F F F"
Sb       0.00000000       0.00000000       0.00000000       0.00000000       0.00000000       0.03633178
Sb       0.00000000       0.00000000       5.88242424       0.00000000       0.00000000      -0.03633178
2
Properties=species:S:1:pos:R:3:forces:R:3 energy=-2.869845327646114 pbc="F F F"
Sb       0.00000000       0.00000000       0.00000000       0.00000000       0.00000000       0.01753926
Sb       0.00000000       0.00000000       5.94121212       0.00000000       0.00000000      -0.01753926
2
Properties=species:S:1:pos:R:3:forces:R:3 energy=-2.8691656870207667 pbc="F F F"
Sb       0.00000000       0.00000000       0.00000000       0.00000000       0.00000000       0.00839876
Sb       0.00000000       0.00000000       6.00000000       0.00000000       0.00000000      -0.00839876
