2
Properties=species:S:1:pos:R:3:forces:R:3 energy=33340.20766892539 pbc="F F F"
Tc       0.00000000       0.00000000       0.00000000       0.00000000       0.00000000 -788921.12500000
Tc       0.00000000       0.00000000       0.10000000       0.00000000       0.00000000  788921.12500000
2
Properties=species:S:1:pos:R:3:forces:R:3 energy=9976.105129862888 pbc="F F F"
Tc       0.00000000       0.00000000       0.00000000       0.00000000       0.00000000 -175220.79687500
Tc       0.00000000       0.00000000       0.15959596       0.00000000       0.00000000  175220.79687500
2
Properties=species:S:1:pos:R:3:forces:R:3 energy=3894.0533720503877 pbc="F F F"
Tc       0.00000000       0.00000000       0.00000000       0.00000000       0.00000000  -55641.15234375
Tc       0.00000000       0.00000000       0.21919192       0.00000000       0.00000000   55641.15234375
2
Properties=species:S:1:pos:R:3:forces:R:3 energy=1777.0349394332 pbc="F F F"
Tc       0.00000000       0.00000000       0.00000000       0.00000000       0.00000000  -21595.94335938
Tc       0.00000000       0.00000000       0.27878788       0.00000000       0.00000000   21595.94335938
2
Properties=species:S:1:pos:R:3:forces:R:3 energy=907.4826323106295 pbc="F F F"
Tc       0.00000000       0.00000000       0.00000000       0.00000000       0.00000000   -9467.06933594
Tc       0.00000000       0.00000000       0.33838384       0.00000000       0.00000000    9467.06933594
2
Properties=species:S:1:pos:R:3:forces:R:3 energy=511.7943388599338 pbc="F F F"
Tc       0.00000000       0.00000000       0.00000000       0.00000000       0.00000000   -4497.12939453
Tc       0.00000000       0.00000000       0.39797980       0.00000000       0.00000000    4497.12939453
2
Properties=species:S:1:pos:R:3:forces:R:3 energy=318.5861174433939 pbc="F F F"
Tc       0.00000000       0.00000000       0.00000000       0.00000000       0.00000000   -2268.33398438
Tc       0.00000000       0.00000000       0.45757576       0.00000000       0.00000000    2268.33398438
2
Properties=species:S:1:pos:R:3:forces:R:3 energy=218.77946159128305 pbc="F F F"
Tc       0.00000000       0.00000000       0.00000000       0.00000000       0.00000000   -1207.14062500
Tc       0.00000000       0.00000000       0.51717172       0.00000000       0.00000000    1207.14062500
2
Properties=species:S:1:pos:R:3:forces:R:3 energy=164.22807005307698 pbc="F F F"
Tc       0.00000000       0.00000000       0.00000000       0.00000000       0.00000000    -683.91998291
Tc       0.00000000       0.00000000       0.57676768       0.00000000       0.00000000     683.91998291
2
Properties=species:S:1:pos:R:3:forces:R:3 energy=132.12641610171292 pbc="F F F"
Tc       0.00000000       0.00000000       0.00000000       0.00000000       0.00000000    -423.83374023
Tc       0.00000000       0.00000000       0.63636364       0.00000000       0.00000000     423.83374023
2
Properties=species:S:1:pos:R:3:forces:R:3 energy=110.78471857356858 pbc="F F F"
Tc       0.00000000       0.00000000       0.00000000       0.00000000       0.00000000    -314.22396851
Tc       0.00000000       0.00000000       0.69595960       0.00000000       0.00000000     314.22396851
2
Properties=species:S:1:pos:R:3:forces:R:3 energy=93.20731861947482 pbc="F F F"
Tc       0.00000000       0.00000000       0.00000000       0.00000000       0.00000000    -280.54559326
Tc       0.00000000       0.00000000       0.75555556       0.00000000       0.00000000     280.54559326
2
Properties=species:S:1:pos:R:3:forces:R:3 energy=76.79435513242598 pbc="F F F"
Tc       0.00000000       0.00000000       0.00000000       0.00000000       0.00000000    -268.77520752
Tc       0.00000000       0.00000000       0.81515152       0.00000000       0.00000000     268.77520752
2
Properties=species:S:1:pos:R:3:forces:R:3 energy=61.585485749545 pbc="F F F"
Tc       0.00000000       0.00000000       0.00000000       0.00000000       0.00000000    -239.24353027
Tc       0.00000000       0.00000000       0.87474747       0.00000000       0.00000000     239.24353027
2
Properties=species:S:1:pos:R:3:forces:R:3 energy=48.35954582448355 pbc="F F F"
Tc       0.00000000       0.00000000       0.00000000       0.00000000       0.00000000    -206.07444763
Tc       0.00000000       0.00000000       0.93434343       0.00000000       0.00000000     206.07444763
2
Properties=species:S:1:pos:R:3:forces:R:3 energy=36.79116082366222 pbc="F F F"
Tc       0.00000000       0.00000000       0.00000000       0.00000000       0.00000000    -183.17779541
Tc       0.00000000       0.00000000       0.99393939       0.00000000       0.00000000     183.17779541
2
Properties=species:S:1:pos:R:3:forces:R:3 energy=26.51844957967652 pbc="F F F"
Tc       0.00000000       0.00000000       0.00000000       0.00000000       0.00000000    -160.74832153
Tc       0.00000000       0.00000000       1.05353535       0.00000000       0.00000000     160.74832153
2
Properties=species:S:1:pos:R:3:forces:R:3 energy=17.79610809256639 pbc="F F F"
Tc       0.00000000       0.00000000       0.00000000       0.00000000       0.00000000    -131.05162048
Tc       0.00000000       0.00000000       1.11313131       0.00000000       0.00000000     131.05162048
2
Properties=species:S:1:pos:R:3:forces:R:3 energy=10.88834621735223 pbc="F F F"
Tc       0.00000000       0.00000000       0.00000000       0.00000000       0.00000000    -101.20571899
Tc       0.00000000       0.00000000       1.17272727       0.00000000       0.00000000     101.20571899
2
Properties=species:S:1:pos:R:3:forces:R:3 energy=5.7260518495662165 pbc="F F F"
Tc       0.00000000       0.00000000       0.00000000       0.00000000       0.00000000     -72.04843140
Tc       0.00000000       0.00000000       1.23232323       0.00000000       0.00000000      72.04843140
2
Properties=species:S:1:pos:R:3:forces:R:3 energy=2.1650190815344166 pbc="F F F"
Tc       0.00000000       0.00000000       0.00000000       0.00000000       0.00000000     -49.88573456
Tc       0.00000000       0.00000000       1.29191919       0.00000000       0.00000000      49.88573456
2
Properties=species:S:1:pos:R:3:forces:R:3 energy=-0.5157968759024076 pbc="F F F"
Tc       0.00000000       0.00000000       0.00000000       0.00000000       0.00000000     -41.76367569
Tc       0.00000000       0.00000000       1.35151515       0.00000000       0.00000000      41.76367569
2
Properties=species:S:1:pos:R:3:forces:R:3 energy=-2.8917441655531997 pbc="F F F"
Tc       0.00000000       0.00000000       0.00000000       0.00000000       0.00000000     -37.88673019
Tc       0.00000000       0.00000000       1.41111111       0.00000000       0.00000000      37.88673019
2
Properties=species:S:1:pos:R:3:forces:R:3 energy=-4.982224993609963 pbc="F F F"
Tc       0.00000000       0.00000000       0.00000000       0.00000000       0.00000000     -31.76302528
Tc       0.00000000       0.00000000       1.47070707       0.00000000       0.00000000      31.76302528
2
Properties=species:S:1:pos:R:3:forces:R:3 energy=-6.647507152952152 pbc="F F F"
Tc       0.00000000       0.00000000       0.00000000       0.00000000       0.00000000     -24.25927544
Tc       0.00000000       0.00000000       1.53030303       0.00000000       0.00000000      24.25927544
2
Properties=species:S:1:pos:R:3:forces:R:3 energy=-7.92763886901992 pbc="F F F"
Tc       0.00000000       0.00000000       0.00000000       0.00000000       0.00000000     -19.29038429
Tc       0.00000000       0.00000000       1.58989899       0.00000000       0.00000000      19.29038429
2
Properties=species:S:1:pos:R:3:forces:R:3 energy=-9.002908051151365 pbc="F F F"
Tc       0.00000000       0.00000000       0.00000000       0.00000000       0.00000000     -17.04999924
Tc       0.00000000       0.00000000       1.64949495       0.00000000       0.00000000      17.04999924
2
Properties=species:S:1:pos:R:3:forces:R:3 energy=-9.962811809403243 pbc="F F F"
Tc       0.00000000       0.00000000       0.00000000       0.00000000       0.00000000     -15.01622581
Tc       0.00000000       0.00000000       1.70909091       0.00000000       0.00000000      15.01622581
2
Properties=species:S:1:pos:R:3:forces:R:3 energy=-10.769266579453895 pbc="F F F"
Tc       0.00000000       0.00000000       0.00000000       0.00000000       0.00000000     -11.87376595
Tc       0.00000000       0.00000000       1.76868687       0.00000000       0.00000000      11.87376595
2
Properties=species:S:1:pos:R:3:forces:R:3 energy=-11.3664228805047 pbc="F F F"
Tc       0.00000000       0.00000000       0.00000000       0.00000000       0.00000000      -8.14644623
Tc       0.00000000       0.00000000       1.82828283       0.00000000       0.00000000       8.14644623
2
Properties=species:S:1:pos:R:3:forces:R:3 energy=-11.744405053877546 pbc="F F F"
Tc       0.00000000       0.00000000       0.00000000       0.00000000       0.00000000      -4.60886049
Tc       0.00000000       0.00000000       1.88787879       0.00000000       0.00000000       4.60886049
2
Properties=species:S:1:pos:R:3:forces:R:3 energy=-11.926016387145093 pbc="F F F"
Tc       0.00000000       0.00000000       0.00000000       0.00000000       0.00000000      -1.58024502
Tc       0.00000000       0.00000000       1.94747475       0.00000000       0.00000000       1.58024502
2
Properties=species:S:1:pos:R:3:forces:R:3 energy=-11.94439942631748 pbc="F F F"
Tc       0.00000000       0.00000000       0.00000000       0.00000000       0.00000000       0.86370939
Tc       0.00000000       0.00000000       2.00707071       0.00000000       0.00000000      -0.86370939
2
Properties=species:S:1:pos:R:3:forces:R:3 energy=-11.834960863617207 pbc="F F F"
Tc       0.00000000       0.00000000       0.00000000       0.00000000       0.00000000       2.71004438
Tc       0.00000000       0.00000000       2.06666667       0.00000000       0.00000000      -2.71004438
2
Properties=species:S:1:pos:R:3:forces:R:3 energy=-11.63291817062248 pbc="F F F"
Tc       0.00000000       0.00000000       0.00000000       0.00000000       0.00000000       3.97657442
Tc       0.00000000       0.00000000       2.12626263       0.00000000       0.00000000      -3.97657442
2
Properties=species:S:1:pos:R:3:forces:R:3 energy=-11.371663463615603 pbc="F F F"
Tc       0.00000000       0.00000000       0.00000000       0.00000000       0.00000000       4.70660305
Tc       0.00000000       0.00000000       2.18585859       0.00000000       0.00000000      -4.70660305
2
Properties=species:S:1:pos:R:3:forces:R:3 energy=-11.081109274461921 pbc="F F F"
Tc       0.00000000       0.00000000       0.00000000       0.00000000       0.00000000       4.97607660
Tc       0.00000000       0.00000000       2.24545455       0.00000000       0.00000000      -4.97607660
2
Properties=species:S:1:pos:R:3:forces:R:3 energy=-10.785394839854265 pbc="F F F"
Tc       0.00000000       0.00000000       0.00000000       0.00000000       0.00000000       4.90207863
Tc       0.00000000       0.00000000       2.30505051       0.00000000       0.00000000      -4.90207863
2
Properties=species:S:1:pos:R:3:forces:R:3 energy=-10.500880000735625 pbc="F F F"
Tc       0.00000000       0.00000000       0.00000000       0.00000000       0.00000000       4.62308741
Tc       0.00000000       0.00000000       2.36464646       0.00000000       0.00000000      -4.62308741
2
Properties=species:S:1:pos:R:3:forces:R:3 energy=-10.23601058722194 pbc="F F F"
Tc       0.00000000       0.00000000       0.00000000       0.00000000       0.00000000       4.25940466
Tc       0.00000000       0.00000000       2.42424242       0.00000000       0.00000000      -4.25940466
2
Properties=species:S:1:pos:R:3:forces:R:3 energy=-9.993347515199618 pbc="F F F"
Tc       0.00000000       0.00000000       0.00000000       0.00000000       0.00000000       3.88624954
Tc       0.00000000       0.00000000       2.48383838       0.00000000       0.00000000      -3.88624954
2
Properties=species:S:1:pos:R:3:forces:R:3 energy=-9.772415476724921 pbc="F F F"
Tc       0.00000000       0.00000000       0.00000000       0.00000000       0.00000000       3.53147244
Tc       0.00000000       0.00000000       2.54343434       0.00000000       0.00000000      -3.53147244
2
Properties=species:S:1:pos:R:3:forces:R:3 energy=-9.57216242609558 pbc="F F F"
Tc       0.00000000       0.00000000       0.00000000       0.00000000       0.00000000       3.18948936
Tc       0.00000000       0.00000000       2.60303030       0.00000000       0.00000000      -3.18948936
2
Properties=species:S:1:pos:R:3:forces:R:3 energy=-9.392388484323615 pbc="F F F"
Tc       0.00000000       0.00000000       0.00000000       0.00000000       0.00000000       2.84094691
Tc       0.00000000       0.00000000       2.66262626       0.00000000       0.00000000      -2.84094691
2
Properties=species:S:1:pos:R:3:forces:R:3 energy=-9.233951609742142 pbc="F F F"
Tc       0.00000000       0.00000000       0.00000000       0.00000000       0.00000000       2.47271895
Tc       0.00000000       0.00000000       2.72222222       0.00000000       0.00000000      -2.47271895
2
Properties=species:S:1:pos:R:3:forces:R:3 energy=-9.09781837299852 pbc="F F F"
Tc       0.00000000       0.00000000       0.00000000       0.00000000       0.00000000       2.09802365
Tc       0.00000000       0.00000000       2.78181818       0.00000000       0.00000000      -2.09802365
2
Properties=species:S:1:pos:R:3:forces:R:3 energy=-8.982981681971218 pbc="F F F"
Tc       0.00000000       0.00000000       0.00000000       0.00000000       0.00000000       1.76897550
Tc       0.00000000       0.00000000       2.84141414       0.00000000       0.00000000      -1.76897550
2
Properties=species:S:1:pos:R:3:forces:R:3 energy=-8.88504625684588 pbc="F F F"
Tc       0.00000000       0.00000000       0.00000000       0.00000000       0.00000000       1.53384686
Tc       0.00000000       0.00000000       2.90101010       0.00000000       0.00000000      -1.53384686
2
Properties=species:S:1:pos:R:3:forces:R:3 energy=-8.798569570818536 pbc="F F F"
Tc       0.00000000       0.00000000       0.00000000       0.00000000       0.00000000       1.37898421
Tc       0.00000000       0.00000000       2.96060606       0.00000000       0.00000000      -1.37898421
2
Properties=species:S:1:pos:R:3:forces:R:3 energy=-8.719444767494608 pbc="F F F"
Tc       0.00000000       0.00000000       0.00000000       0.00000000       0.00000000       1.28794217
Tc       0.00000000       0.00000000       3.02020202       0.00000000       0.00000000      -1.28794217
2
Properties=species:S:1:pos:R:3:forces:R:3 energy=-8.64342197736896 pbc="F F F"
Tc       0.00000000       0.00000000       0.00000000       0.00000000       0.00000000       1.27900875
Tc       0.00000000       0.00000000       3.07979798       0.00000000       0.00000000      -1.27900875
2
Properties=species:S:1:pos:R:3:forces:R:3 energy=-8.565038335982797 pbc="F F F"
Tc       0.00000000       0.00000000       0.00000000       0.00000000       0.00000000       1.36761677
Tc       0.00000000       0.00000000       3.13939394       0.00000000       0.00000000      -1.36761677
2
Properties=species:S:1:pos:R:3:forces:R:3 energy=-8.478735181060735 pbc="F F F"
Tc       0.00000000       0.00000000       0.00000000       0.00000000       0.00000000       1.53955472
Tc       0.00000000       0.00000000       3.19898990       0.00000000       0.00000000      -1.53955472
2
Properties=species:S:1:pos:R:3:forces:R:3 energy=-8.380766069944869 pbc="F F F"
Tc       0.00000000       0.00000000       0.00000000       0.00000000       0.00000000       1.74969804
Tc       0.00000000       0.00000000       3.25858586       0.00000000       0.00000000      -1.74969804
2
Properties=species:S:1:pos:R:3:forces:R:3 energy=-8.27063332095989 pbc="F F F"
Tc       0.00000000       0.00000000       0.00000000       0.00000000       0.00000000       1.93747926
Tc       0.00000000       0.00000000       3.31818182       0.00000000       0.00000000      -1.93747926
2
Properties=species:S:1:pos:R:3:forces:R:3 energy=-8.151377417290394 pbc="F F F"
Tc       0.00000000       0.00000000       0.00000000       0.00000000       0.00000000       2.04840255
Tc       0.00000000       0.00000000       3.37777778       0.00000000       0.00000000      -2.04840255
2
Properties=species:S:1:pos:R:3:forces:R:3 energy=-8.028649842279025 pbc="F F F"
Tc       0.00000000       0.00000000       0.00000000       0.00000000       0.00000000       2.05125475
Tc       0.00000000       0.00000000       3.43737374       0.00000000       0.00000000      -2.05125475
2
Properties=species:S:1:pos:R:3:forces:R:3 energy=-7.909052514406755 pbc="F F F"
Tc       0.00000000       0.00000000       0.00000000       0.00000000       0.00000000       1.94590616
Tc       0.00000000       0.00000000       3.49696970       0.00000000       0.00000000      -1.94590616
2
Properties=species:S:1:pos:R:3:forces:R:3 energy=-7.798315148963956 pbc="F F F"
Tc       0.00000000       0.00000000       0.00000000       0.00000000       0.00000000       1.76045167
Tc       0.00000000       0.00000000       3.55656566       0.00000000       0.00000000      -1.76045167
2
Properties=species:S:1:pos:R:3:forces:R:3 energy=-7.69993509973562 pbc="F F F"
Tc       0.00000000       0.00000000       0.00000000       0.00000000       0.00000000       1.53902662
Tc       0.00000000       0.00000000       3.61616162       0.00000000       0.00000000      -1.53902662
2
Properties=species:S:1:pos:R:3:forces:R:3 energy=-7.614708130566919 pbc="F F F"
Tc       0.00000000       0.00000000       0.00000000       0.00000000       0.00000000       1.32559693
Tc       0.00000000       0.00000000       3.67575758       0.00000000       0.00000000      -1.32559693
2
Properties=species:S:1:pos:R:3:forces:R:3 energy=-7.541151878437915 pbc="F F F"
Tc       0.00000000       0.00000000       0.00000000       0.00000000       0.00000000       1.15096653
Tc       0.00000000       0.00000000       3.73535354       0.00000000       0.00000000      -1.15096653
2
Properties=species:S:1:pos:R:3:forces:R:3 energy=-7.476496267919883 pbc="F F F"
Tc       0.00000000       0.00000000       0.00000000       0.00000000       0.00000000       1.02739072
Tc       0.00000000       0.00000000       3.79494949       0.00000000       0.00000000      -1.02739072
2
Properties=species:S:1:pos:R:3:forces:R:3 energy=-7.41776138656424 pbc="F F F"
Tc       0.00000000       0.00000000       0.00000000       0.00000000       0.00000000       0.95043027
Tc       0.00000000       0.00000000       3.85454545       0.00000000       0.00000000      -0.95043027
2
Properties=species:S:1:pos:R:3:forces:R:3 energy=-7.362585622669623 pbc="F F F"
Tc       0.00000000       0.00000000       0.00000000       0.00000000       0.00000000       0.90492141
Tc       0.00000000       0.00000000       3.91414141       0.00000000       0.00000000      -0.90492141
2
Properties=species:S:1:pos:R:3:forces:R:3 energy=-7.309658544722513 pbc="F F F"
Tc       0.00000000       0.00000000       0.00000000       0.00000000       0.00000000       0.87172174
Tc       0.00000000       0.00000000       3.97373737       0.00000000       0.00000000      -0.87172174
2
Properties=species:S:1:pos:R:3:forces:R:3 energy=-7.258794492710712 pbc="F F F"
Tc       0.00000000       0.00000000       0.00000000       0.00000000       0.00000000       0.83307707
Tc       0.00000000       0.00000000       4.03333333       0.00000000       0.00000000      -0.83307707
2
Properties=species:S:1:pos:R:3:forces:R:3 energy=-7.2107359945012695 pbc="F F F"
Tc       0.00000000       0.00000000       0.00000000       0.00000000       0.00000000       0.77585030
Tc       0.00000000       0.00000000       4.09292929       0.00000000       0.00000000      -0.77585030
2
Properties=species:S:1:pos:R:3:forces:R:3 energy=-7.1668329241251065 pbc="F F F"
Tc       0.00000000       0.00000000       0.00000000       0.00000000       0.00000000       0.69297445
Tc       0.00000000       0.00000000       4.15252525       0.00000000       0.00000000      -0.69297445
2
Properties=species:S:1:pos:R:3:forces:R:3 energy=-7.12866709154933 pbc="F F F"
Tc       0.00000000       0.00000000       0.00000000       0.00000000       0.00000000       0.58374393
Tc       0.00000000       0.00000000       4.21212121       0.00000000       0.00000000      -0.58374393
2
Properties=species:S:1:pos:R:3:forces:R:3 energy=-7.097679203964057 pbc="F F F"
Tc       0.00000000       0.00000000       0.00000000       0.00000000       0.00000000       0.45335644
Tc       0.00000000       0.00000000       4.27171717       0.00000000       0.00000000      -0.45335644
2
Properties=species:S:1:pos:R:3:forces:R:3 energy=-7.07485365741391 pbc="F F F"
Tc       0.00000000       0.00000000       0.00000000       0.00000000       0.00000000       0.31181759
Tc       0.00000000       0.00000000       4.33131313       0.00000000       0.00000000      -0.31181759
2
Properties=species:S:1:pos:R:3:forces:R:3 energy=-7.0604764762478815 pbc="F F F"
Tc       0.00000000       0.00000000       0.00000000       0.00000000       0.00000000       0.17214808
Tc       0.00000000       0.00000000       4.39090909       0.00000000       0.00000000      -0.17214808
2
Properties=species:S:1:pos:R:3:forces:R:3 energy=-7.054024013656498 pbc="F F F"
Tc       0.00000000       0.00000000       0.00000000       0.00000000       0.00000000       0.04808252
Tc       0.00000000       0.00000000       4.45050505       0.00000000       0.00000000      -0.04808252
2
Properties=species:S:1:pos:R:3:forces:R:3 energy=-7.05419528789956 pbc="F F F"
Tc       0.00000000       0.00000000       0.00000000       0.00000000       0.00000000      -0.04842526
Tc       0.00000000       0.00000000       4.51010101       0.00000000       0.00000000       0.04842526
2
Properties=species:S:1:pos:R:3:forces:R:3 energy=-7.059085075858402 pbc="F F F"
Tc       0.00000000       0.00000000       0.00000000       0.00000000       0.00000000      -0.10932066
Tc       0.00000000       0.00000000       4.56969697       0.00000000       0.00000000       0.10932066
2
Properties=species:S:1:pos:R:3:forces:R:3 energy=-7.066455258721493 pbc="F F F"
Tc       0.00000000       0.00000000       0.00000000       0.00000000       0.00000000      -0.13162127
Tc       0.00000000       0.00000000       4.62929293       0.00000000       0.00000000       0.13162127
2
Properties=species:S:1:pos:R:3:forces:R:3 energy=-7.074046306018526 pbc="F F F"
Tc       0.00000000       0.00000000       0.00000000       0.00000000       0.00000000      -0.11748456
Tc       0.00000000       0.00000000       4.68888889       0.00000000       0.00000000       0.11748456
2
Properties=species:S:1:pos:R:3:forces:R:3 energy=-7.079857560834783 pbc="F F F"
Tc       0.00000000       0.00000000       0.00000000       0.00000000       0.00000000      -0.07317272
Tc       0.00000000       0.00000000       4.74848485       0.00000000       0.00000000       0.07317272
2
Properties=species:S:1:pos:R:3:forces:R:3 energy=-7.082341905077109 pbc="F F F"
Tc       0.00000000       0.00000000       0.00000000       0.00000000       0.00000000      -0.00743090
Tc       0.00000000       0.00000000       4.80808081       0.00000000       0.00000000       0.00743090
2
Properties=species:S:1:pos:R:3:forces:R:3 energy=-7.080506492491539 pbc="F F F"
Tc       0.00000000       0.00000000       0.00000000       0.00000000       0.00000000       0.07022335
Tc       0.00000000       0.00000000       4.86767677       0.00000000       0.00000000      -0.07022335
2
Properties=species:S:1:pos:R:3:forces:R:3 energy=-7.073915839433278 pbc="F F F"
Tc       0.00000000       0.00000000       0.00000000       0.00000000       0.00000000       0.15074848
Tc       0.00000000       0.00000000       4.92727273       0.00000000       0.00000000      -0.15074848
2
Properties=species:S:1:pos:R:3:forces:R:3 energy=-7.062638807243117 pbc="F F F"
Tc       0.00000000       0.00000000       0.00000000       0.00000000       0.00000000       0.22628945
Tc       0.00000000       0.00000000       4.98686869       0.00000000       0.00000000      -0.22628945
2
Properties=species:S:1:pos:R:3:forces:R:3 energy=-7.047172387497676 pbc="F F F"
Tc       0.00000000       0.00000000       0.00000000       0.00000000       0.00000000       0.29046124
Tc       0.00000000       0.00000000       5.04646465       0.00000000       0.00000000      -0.29046124
2
Properties=species:S:1:pos:R:3:forces:R:3 energy=-7.028339955128845 pbc="F F F"
Tc       0.00000000       0.00000000       0.00000000       0.00000000       0.00000000       0.33853549
Tc       0.00000000       0.00000000       5.10606061       0.00000000       0.00000000      -0.33853549
2
Properties=species:S:1:pos:R:3:forces:R:3 energy=-7.007201800436081 pbc="F F F"
Tc       0.00000000       0.00000000       0.00000000       0.00000000       0.00000000       0.36734846
Tc       0.00000000       0.00000000       5.16565657       0.00000000       0.00000000      -0.36734846
2
Properties=species:S:1:pos:R:3:forces:R:3 energy=-6.9849745942918275 pbc="F F F"
Tc       0.00000000       0.00000000       0.00000000       0.00000000       0.00000000       0.37500584
Tc       0.00000000       0.00000000       5.22525253       0.00000000       0.00000000      -0.37500584
2
Properties=species:S:1:pos:R:3:forces:R:3 energy=-6.9629311636392694 pbc="F F F"
Tc       0.00000000       0.00000000       0.00000000       0.00000000       0.00000000       0.36143452
Tc       0.00000000       0.00000000       5.28484848       0.00000000       0.00000000      -0.36143452
2
Properties=species:S:1:pos:R:3:forces:R:3 energy=-6.94221286474213 pbc="F F F"
Tc       0.00000000       0.00000000       0.00000000       0.00000000       0.00000000       0.33220384
Tc       0.00000000       0.00000000       5.34444444       0.00000000       0.00000000      -0.33220384
2
Properties=species:S:1:pos:R:3:forces:R:3 energy=-6.923368920475981 pbc="F F F"
Tc       0.00000000       0.00000000       0.00000000       0.00000000       0.00000000       0.30106893
Tc       0.00000000       0.00000000       5.40404040       0.00000000       0.00000000      -0.30106893
2
Properties=species:S:1:pos:R:3:forces:R:3 energy=-6.906177319626086 pbc="F F F"
Tc       0.00000000       0.00000000       0.00000000       0.00000000       0.00000000       0.27661070
Tc       0.00000000       0.00000000       5.46363636       0.00000000       0.00000000      -0.27661070
2
Properties=species:S:1:pos:R:3:forces:R:3 energy=-6.890425418322316 pbc="F F F"
Tc       0.00000000       0.00000000       0.00000000       0.00000000       0.00000000       0.25111204
Tc       0.00000000       0.00000000       5.52323232       0.00000000       0.00000000      -0.25111204
2
Properties=species:S:1:pos:R:3:forces:R:3 energy=-6.876451302269165 pbc="F F F"
Tc       0.00000000       0.00000000       0.00000000       0.00000000       0.00000000       0.21620397
Tc       0.00000000       0.00000000       5.58282828       0.00000000       0.00000000      -0.21620397
2
Properties=species:S:1:pos:R:3:forces:R:3 energy=-6.864725136392143 pbc="F F F"
Tc       0.00000000       0.00000000       0.00000000       0.00000000       0.00000000       0.17817217
Tc       0.00000000       0.00000000       5.64242424       0.00000000       0.00000000      -0.17817217
2
Properties=species:S:1:pos:R:3:forces:R:3 energy=-6.854943799961989 pbc="F F F"
Tc       0.00000000       0.00000000       0.00000000       0.00000000       0.00000000       0.15320778
Tc       0.00000000       0.00000000       5.70202020       0.00000000       0.00000000      -0.15320778
2
Properties=species:S:1:pos:R:3:forces:R:3 energy=-6.846066700066685 pbc="F F F"
Tc       0.00000000       0.00000000       0.00000000       0.00000000       0.00000000       0.14730784
Tc       0.00000000       0.00000000       5.76161616       0.00000000       0.00000000      -0.14730784
2
Properties=species:S:1:pos:R:3:forces:R:3 energy=-6.837452598913953 pbc="F F F"
Tc       0.00000000       0.00000000       0.00000000       0.00000000       0.00000000       0.13750336
Tc       0.00000000       0.00000000       5.82121212       0.00000000       0.00000000      -0.13750336
2
Properties=species:S:1:pos:R:3:forces:R:3 energy=-6.83038940880507 pbc="F F F"
Tc       0.00000000       0.00000000       0.00000000       0.00000000       0.00000000       0.09491923
Tc       0.00000000       0.00000000       5.88080808       0.00000000       0.00000000      -0.09491923
2
Properties=species:S:1:pos:R:3:forces:R:3 energy=-6.826346579198328 pbc="F F F"
Tc       0.00000000       0.00000000       0.00000000       0.00000000       0.00000000       0.04167438
Tc       0.00000000       0.00000000       5.94040404       0.00000000       0.00000000      -0.04167438
2
Properties=species:S:1:pos:R:3:forces:R:3 energy=-6.824789392385247 pbc="F F F"
Tc       0.00000000       0.00000000       0.00000000       0.00000000       0.00000000       0.01818999
Tc       0.00000000       0.00000000       6.00000000       0.00000000       0.00000000      -0.01818999
