2
Properties=species:S:1:pos:R:3:forces:R:3 energy=9354.96443467833 pbc="F F F"
Te       0.00000000       0.00000000       0.00000000       0.00000000       0.00000000 -153256.06250000
Te       0.00000000       0.00000000       0.18000000       0.00000000       0.00000000  153256.06250000
2
Properties=species:S:1:pos:R:3:forces:R:3 energy=3920.81941514708 pbc="F F F"
Te       0.00000000       0.00000000       0.00000000       0.00000000       0.00000000  -52501.70703125
Te       0.00000000       0.00000000       0.23878788       0.00000000       0.00000000   52501.70703125
2
Properties=species:S:1:pos:R:3:forces:R:3 energy=1912.81843858458 pbc="F F F"
Te       0.00000000       0.00000000       0.00000000       0.00000000       0.00000000  -21193.85156250
Te       0.00000000       0.00000000       0.29757576       0.00000000       0.00000000   21193.85156250
2
Properties=species:S:1:pos:R:3:forces:R:3 energy=1062.9593077315405 pbc="F F F"
Te       0.00000000       0.00000000       0.00000000       0.00000000       0.00000000   -9472.89550781
Te       0.00000000       0.00000000       0.35636364       0.00000000       0.00000000    9472.89550781
2
Properties=species:S:1:pos:R:3:forces:R:3 energy=670.5003233628763 pbc="F F F"
Te       0.00000000       0.00000000       0.00000000       0.00000000       0.00000000   -4544.78173828
Te       0.00000000       0.00000000       0.41515152       0.00000000       0.00000000    4544.78173828
2
Properties=species:S:1:pos:R:3:forces:R:3 energy=477.31517323539885 pbc="F F F"
Te       0.00000000       0.00000000       0.00000000       0.00000000       0.00000000   -2307.24487305
Te       0.00000000       0.00000000       0.47393939       0.00000000       0.00000000    2307.24487305
2
Properties=species:S:1:pos:R:3:forces:R:3 energy=376.902484051757 pbc="F F F"
Te       0.00000000       0.00000000       0.00000000       0.00000000       0.00000000   -1235.29394531
Te       0.00000000       0.00000000       0.53272727       0.00000000       0.00000000    1235.29394531
2
Properties=species:S:1:pos:R:3:forces:R:3 energy=321.74437253651223 pbc="F F F"
Te       0.00000000       0.00000000       0.00000000       0.00000000       0.00000000    -701.90179443
Te       0.00000000       0.00000000       0.59151515       0.00000000       0.00000000     701.90179443
2
Properties=species:S:1:pos:R:3:forces:R:3 energy=286.577227843485 pbc="F F F"
Te       0.00000000       0.00000000       0.00000000       0.00000000       0.00000000    -523.01629639
Te       0.00000000       0.00000000       0.65030303       0.00000000       0.00000000     523.01629639
2
Properties=species:S:1:pos:R:3:forces:R:3 energy=259.6497987836504 pbc="F F F"
Te       0.00000000       0.00000000       0.00000000       0.00000000       0.00000000    -412.18225098
Te       0.00000000       0.00000000       0.70909091       0.00000000       0.00000000     412.18225098
2
Properties=species:S:1:pos:R:3:forces:R:3 energy=236.48939860210166 pbc="F F F"
Te       0.00000000       0.00000000       0.00000000       0.00000000       0.00000000    -388.17453003
Te       0.00000000       0.00000000       0.76787879       0.00000000       0.00000000     388.17453003
2
Properties=species:S:1:pos:R:3:forces:R:3 energy=212.67921824215009 pbc="F F F"
Te       0.00000000       0.00000000       0.00000000       0.00000000       0.00000000    -423.46011353
Te       0.00000000       0.00000000       0.82666667       0.00000000       0.00000000     423.46011353
2
Properties=species:S:1:pos:R:3:forces:R:3 energy=186.9795574212589 pbc="F F F"
Te       0.00000000       0.00000000       0.00000000       0.00000000       0.00000000    -447.99386597
Te       0.00000000       0.00000000       0.88545455       0.00000000       0.00000000     447.99386597
2
Properties=species:S:1:pos:R:3:forces:R:3 energy=160.55618767765608 pbc="F F F"
Te       0.00000000       0.00000000       0.00000000       0.00000000       0.00000000    -445.81222534
Te       0.00000000       0.00000000       0.94424242       0.00000000       0.00000000     445.81222534
2
Properties=species:S:1:pos:R:3:forces:R:3 energy=134.84079545705836 pbc="F F F"
Te       0.00000000       0.00000000       0.00000000       0.00000000       0.00000000    -452.11227417
Te       0.00000000       0.00000000       1.00303030       0.00000000       0.00000000     452.11227417
2
Properties=species:S:1:pos:R:3:forces:R:3 energy=110.15849984771246 pbc="F F F"
Te       0.00000000       0.00000000       0.00000000       0.00000000       0.00000000    -384.37408447
Te       0.00000000       0.00000000       1.06181818       0.00000000       0.00000000     384.37408447
2
Properties=species:S:1:pos:R:3:forces:R:3 energy=89.66796944054472 pbc="F F F"
Te       0.00000000       0.00000000       0.00000000       0.00000000       0.00000000    -313.08889771
Te       0.00000000       0.00000000       1.12060606       0.00000000       0.00000000     313.08889771
2
Properties=species:S:1:pos:R:3:forces:R:3 energy=73.23662834498812 pbc="F F F"
Te       0.00000000       0.00000000       0.00000000       0.00000000       0.00000000    -248.17568970
Te       0.00000000       0.00000000       1.17939394       0.00000000       0.00000000     248.17568970
2
Properties=species:S:1:pos:R:3:forces:R:3 energy=60.032102102330306 pbc="F F F"
Te       0.00000000       0.00000000       0.00000000       0.00000000       0.00000000    -205.11767578
Te       0.00000000       0.00000000       1.23818182       0.00000000       0.00000000     205.11767578
2
Properties=species:S:1:pos:R:3:forces:R:3 energy=48.83789151700655 pbc="F F F"
Te       0.00000000       0.00000000       0.00000000       0.00000000       0.00000000    -176.66244507
Te       0.00000000       0.00000000       1.29696970       0.00000000       0.00000000     176.66244507
2
Properties=species:S:1:pos:R:3:forces:R:3 energy=39.20061233849043 pbc="F F F"
Te       0.00000000       0.00000000       0.00000000       0.00000000       0.00000000    -151.65936279
Te       0.00000000       0.00000000       1.35575758       0.00000000       0.00000000     151.65936279
2
Properties=species:S:1:pos:R:3:forces:R:3 energy=30.95770525074175 pbc="F F F"
Te       0.00000000       0.00000000       0.00000000       0.00000000       0.00000000    -128.97874451
Te       0.00000000       0.00000000       1.41454545       0.00000000       0.00000000     128.97874451
2
Properties=species:S:1:pos:R:3:forces:R:3 energy=24.032229916834282 pbc="F F F"
Te       0.00000000       0.00000000       0.00000000       0.00000000       0.00000000    -106.71707916
Te       0.00000000       0.00000000       1.47333333       0.00000000       0.00000000     106.71707916
2
Properties=species:S:1:pos:R:3:forces:R:3 energy=18.364831792250197 pbc="F F F"
Te       0.00000000       0.00000000       0.00000000       0.00000000       0.00000000     -86.71387482
Te       0.00000000       0.00000000       1.53212121       0.00000000       0.00000000      86.71387482
2
Properties=species:S:1:pos:R:3:forces:R:3 energy=13.76617152433714 pbc="F F F"
Te       0.00000000       0.00000000       0.00000000       0.00000000       0.00000000     -70.21576691
Te       0.00000000       0.00000000       1.59090909       0.00000000       0.00000000      70.21576691
2
Properties=species:S:1:pos:R:3:forces:R:3 energy=10.064132149083626 pbc="F F F"
Te       0.00000000       0.00000000       0.00000000       0.00000000       0.00000000     -56.07064056
Te       0.00000000       0.00000000       1.64969697       0.00000000       0.00000000      56.07064056
2
Properties=species:S:1:pos:R:3:forces:R:3 energy=7.132822465680604 pbc="F F F"
Te       0.00000000       0.00000000       0.00000000       0.00000000       0.00000000     -44.01573181
Te       0.00000000       0.00000000       1.70848485       0.00000000       0.00000000      44.01573181
2
Properties=species:S:1:pos:R:3:forces:R:3 energy=4.84509887719403 pbc="F F F"
Te       0.00000000       0.00000000       0.00000000       0.00000000       0.00000000     -34.19425583
Te       0.00000000       0.00000000       1.76727273       0.00000000       0.00000000      34.19425583
2
Properties=species:S:1:pos:R:3:forces:R:3 energy=3.0677404677662468 pbc="F F F"
Te       0.00000000       0.00000000       0.00000000       0.00000000       0.00000000     -26.64694214
Te       0.00000000       0.00000000       1.82606061       0.00000000       0.00000000      26.64694214
2
Properties=species:S:1:pos:R:3:forces:R:3 energy=1.6695456056954243 pbc="F F F"
Te       0.00000000       0.00000000       0.00000000       0.00000000       0.00000000     -21.26268768
Te       0.00000000       0.00000000       1.88484848       0.00000000       0.00000000      21.26268768
2
Properties=species:S:1:pos:R:3:forces:R:3 energy=0.5313294820208136 pbc="F F F"
Te       0.00000000       0.00000000       0.00000000       0.00000000       0.00000000     -17.72808647
Te       0.00000000       0.00000000       1.94363636       0.00000000       0.00000000      17.72808647
2
Properties=species:S:1:pos:R:3:forces:R:3 energy=-0.43995324121984763 pbc="F F F"
Te       0.00000000       0.00000000       0.00000000       0.00000000       0.00000000     -15.47041035
Te       0.00000000       0.00000000       2.00242424       0.00000000       0.00000000      15.47041035
2
Properties=species:S:1:pos:R:3:forces:R:3 energy=-1.2990512753248056 pbc="F F F"
Te       0.00000000       0.00000000       0.00000000       0.00000000       0.00000000     -13.80229759
Te       0.00000000       0.00000000       2.06121212       0.00000000       0.00000000      13.80229759
2
Properties=species:S:1:pos:R:3:forces:R:3 energy=-2.063788062916671 pbc="F F F"
Te       0.00000000       0.00000000       0.00000000       0.00000000       0.00000000     -12.19747734
Te       0.00000000       0.00000000       2.12000000       0.00000000       0.00000000      12.19747734
2
Properties=species:S:1:pos:R:3:forces:R:3 energy=-2.7299576795924017 pbc="F F F"
Te       0.00000000       0.00000000       0.00000000       0.00000000       0.00000000     -10.43745041
Te       0.00000000       0.00000000       2.17878788       0.00000000       0.00000000      10.43745041
2
Properties=species:S:1:pos:R:3:forces:R:3 energy=-3.288548850560481 pbc="F F F"
Te       0.00000000       0.00000000       0.00000000       0.00000000       0.00000000      -8.55634689
Te       0.00000000       0.00000000       2.23757576       0.00000000       0.00000000       8.55634689
2
Properties=species:S:1:pos:R:3:forces:R:3 energy=-3.7362346736245087 pbc="F F F"
Te       0.00000000       0.00000000       0.00000000       0.00000000       0.00000000      -6.68709850
Te       0.00000000       0.00000000       2.29636364       0.00000000       0.00000000       6.68709850
2
Properties=species:S:1:pos:R:3:forces:R:3 energy=-4.07722342543082 pbc="F F F"
Te       0.00000000       0.00000000       0.00000000       0.00000000       0.00000000      -4.93976736
Te       0.00000000       0.00000000       2.35515152       0.00000000       0.00000000       4.93976736
2
Properties=species:S:1:pos:R:3:forces:R:3 energy=-4.320385371172253 pbc="F F F"
Te       0.00000000       0.00000000       0.00000000       0.00000000       0.00000000      -3.36210990
Te       0.00000000       0.00000000       2.41393939       0.00000000       0.00000000       3.36210990
2
Properties=species:S:1:pos:R:3:forces:R:3 energy=-4.475895616414406 pbc="F F F"
Te       0.00000000       0.00000000       0.00000000       0.00000000       0.00000000      -1.95597064
Te       0.00000000       0.00000000       2.47272727       0.00000000       0.00000000       1.95597064
2
Properties=species:S:1:pos:R:3:forces:R:3 energy=-4.553456431995369 pbc="F F F"
Te       0.00000000       0.00000000       0.00000000       0.00000000       0.00000000      -0.70815802
Te       0.00000000       0.00000000       2.53151515       0.00000000       0.00000000       0.70815802
2
Properties=species:S:1:pos:R:3:forces:R:3 energy=-4.56215491496617 pbc="F F F"
Te       0.00000000       0.00000000       0.00000000       0.00000000       0.00000000       0.38609686
Te       0.00000000       0.00000000       2.59030303       0.00000000       0.00000000      -0.38609686
2
Properties=species:S:1:pos:R:3:forces:R:3 energy=-4.511326836955583 pbc="F F F"
Te       0.00000000       0.00000000       0.00000000       0.00000000       0.00000000       1.31314433
Te       0.00000000       0.00000000       2.64909091       0.00000000       0.00000000      -1.31314433
2
Properties=species:S:1:pos:R:3:forces:R:3 energy=-4.411570300102138 pbc="F F F"
Te       0.00000000       0.00000000       0.00000000       0.00000000       0.00000000       2.04603720
Te       0.00000000       0.00000000       2.70787879       0.00000000       0.00000000      -2.04603720
2
Properties=species:S:1:pos:R:3:forces:R:3 energy=-4.274952733561958 pbc="F F F"
Te       0.00000000       0.00000000       0.00000000       0.00000000       0.00000000       2.56638241
Te       0.00000000       0.00000000       2.76666667       0.00000000       0.00000000      -2.56638241
2
Properties=species:S:1:pos:R:3:forces:R:3 energy=-4.113683489734091 pbc="F F F"
Te       0.00000000       0.00000000       0.00000000       0.00000000       0.00000000       2.89139891
Te       0.00000000       0.00000000       2.82545455       0.00000000       0.00000000      -2.89139891
2
Properties=species:S:1:pos:R:3:forces:R:3 energy=-3.93770137218978 pbc="F F F"
Te       0.00000000       0.00000000       0.00000000       0.00000000       0.00000000       3.07855487
Te       0.00000000       0.00000000       2.88424242       0.00000000       0.00000000      -3.07855487
2
Properties=species:S:1:pos:R:3:forces:R:3 energy=-3.7531233600198477 pbc="F F F"
Te       0.00000000       0.00000000       0.00000000       0.00000000       0.00000000       3.19274354
Te       0.00000000       0.00000000       2.94303030       0.00000000       0.00000000      -3.19274354
2
Properties=species:S:1:pos:R:3:forces:R:3 energy=-3.5631219795342415 pbc="F F F"
Te       0.00000000       0.00000000       0.00000000       0.00000000       0.00000000       3.26404619
Te       0.00000000       0.00000000       3.00181818       0.00000000       0.00000000      -3.26404619
2
Properties=species:S:1:pos:R:3:forces:R:3 energy=-3.3704275119215117 pbc="F F F"
Te       0.00000000       0.00000000       0.00000000       0.00000000       0.00000000       3.28005004
Te       0.00000000       0.00000000       3.06060606       0.00000000       0.00000000      -3.28005004
2
Properties=species:S:1:pos:R:3:forces:R:3 energy=-3.1790248562901446 pbc="F F F"
Te       0.00000000       0.00000000       0.00000000       0.00000000       0.00000000       3.21748209
Te       0.00000000       0.00000000       3.11939394       0.00000000       0.00000000      -3.21748209
2
Properties=species:S:1:pos:R:3:forces:R:3 energy=-2.9937052053692814 pbc="F F F"
Te       0.00000000       0.00000000       0.00000000       0.00000000       0.00000000       3.07545543
Te       0.00000000       0.00000000       3.17818182       0.00000000       0.00000000      -3.07545543
2
Properties=species:S:1:pos:R:3:forces:R:3 energy=-2.818490423482553 pbc="F F F"
Te       0.00000000       0.00000000       0.00000000       0.00000000       0.00000000       2.87931752
Te       0.00000000       0.00000000       3.23696970       0.00000000       0.00000000      -2.87931752
2
Properties=species:S:1:pos:R:3:forces:R:3 energy=-2.655590536464266 pbc="F F F"
Te       0.00000000       0.00000000       0.00000000       0.00000000       0.00000000       2.66115928
Te       0.00000000       0.00000000       3.29575758       0.00000000       0.00000000      -2.66115928
2
Properties=species:S:1:pos:R:3:forces:R:3 energy=-2.5056145363690003 pbc="F F F"
Te       0.00000000       0.00000000       0.00000000       0.00000000       0.00000000       2.44184470
Te       0.00000000       0.00000000       3.35454545       0.00000000       0.00000000      -2.44184470
2
Properties=species:S:1:pos:R:3:forces:R:3 energy=-2.3683832967996548 pbc="F F F"
Te       0.00000000       0.00000000       0.00000000       0.00000000       0.00000000       2.22769570
Te       0.00000000       0.00000000       3.41333333       0.00000000       0.00000000      -2.22769570
2
Properties=species:S:1:pos:R:3:forces:R:3 energy=-2.243619145130556 pbc="F F F"
Te       0.00000000       0.00000000       0.00000000       0.00000000       0.00000000       2.01722264
Te       0.00000000       0.00000000       3.47212121       0.00000000       0.00000000      -2.01722264
2
Properties=species:S:1:pos:R:3:forces:R:3 energy=-2.1311747483431347 pbc="F F F"
Te       0.00000000       0.00000000       0.00000000       0.00000000       0.00000000       1.80853033
Te       0.00000000       0.00000000       3.53090909       0.00000000       0.00000000      -1.80853033
2
Properties=species:S:1:pos:R:3:forces:R:3 energy=-2.0309243486363964 pbc="F F F"
Te       0.00000000       0.00000000       0.00000000       0.00000000       0.00000000       1.60279763
Te       0.00000000       0.00000000       3.58969697       0.00000000       0.00000000      -1.60279763
2
Properties=species:S:1:pos:R:3:forces:R:3 energy=-1.9425839934823703 pbc="F F F"
Te       0.00000000       0.00000000       0.00000000       0.00000000       0.00000000       1.40424752
Te       0.00000000       0.00000000       3.64848485       0.00000000       0.00000000      -1.40424752
2
Properties=species:S:1:pos:R:3:forces:R:3 energy=-1.865571039726839 pbc="F F F"
Te       0.00000000       0.00000000       0.00000000       0.00000000       0.00000000       1.21834850
Te       0.00000000       0.00000000       3.70727273       0.00000000       0.00000000      -1.21834850
2
Properties=species:S:1:pos:R:3:forces:R:3 energy=-1.7989904591921972 pbc="F F F"
Te       0.00000000       0.00000000       0.00000000       0.00000000       0.00000000       1.04997909
Te       0.00000000       0.00000000       3.76606061       0.00000000       0.00000000      -1.04997909
2
Properties=species:S:1:pos:R:3:forces:R:3 energy=-1.741712740532279 pbc="F F F"
Te       0.00000000       0.00000000       0.00000000       0.00000000       0.00000000       0.90226740
Te       0.00000000       0.00000000       3.82484848       0.00000000       0.00000000      -0.90226740
2
Properties=species:S:1:pos:R:3:forces:R:3 energy=-1.692478721715206 pbc="F F F"
Te       0.00000000       0.00000000       0.00000000       0.00000000       0.00000000       0.77628511
Te       0.00000000       0.00000000       3.88363636       0.00000000       0.00000000      -0.77628511
2
Properties=species:S:1:pos:R:3:forces:R:3 energy=-1.6500263031625348 pbc="F F F"
Te       0.00000000       0.00000000       0.00000000       0.00000000       0.00000000       0.67136014
Te       0.00000000       0.00000000       3.94242424       0.00000000       0.00000000      -0.67136014
2
Properties=species:S:1:pos:R:3:forces:R:3 energy=-1.6131688126020023 pbc="F F F"
Te       0.00000000       0.00000000       0.00000000       0.00000000       0.00000000       0.58555263
Te       0.00000000       0.00000000       4.00121212       0.00000000       0.00000000      -0.58555263
2
Properties=species:S:1:pos:R:3:forces:R:3 energy=-1.5808589792743268 pbc="F F F"
Te       0.00000000       0.00000000       0.00000000       0.00000000       0.00000000       0.51611143
Te       0.00000000       0.00000000       4.06000000       0.00000000       0.00000000      -0.51611143
2
Properties=species:S:1:pos:R:3:forces:R:3 energy=-1.552229110631608 pbc="F F F"
Te       0.00000000       0.00000000       0.00000000       0.00000000       0.00000000       0.45980647
Te       0.00000000       0.00000000       4.11878788       0.00000000       0.00000000      -0.45980647
2
Properties=species:S:1:pos:R:3:forces:R:3 energy=-1.5266070030256842 pbc="F F F"
Te       0.00000000       0.00000000       0.00000000       0.00000000       0.00000000       0.41318768
Te       0.00000000       0.00000000       4.17757576       0.00000000       0.00000000      -0.41318768
2
Properties=species:S:1:pos:R:3:forces:R:3 energy=-1.5035238970523113 pbc="F F F"
Te       0.00000000       0.00000000       0.00000000       0.00000000       0.00000000       0.37289852
Te       0.00000000       0.00000000       4.23636364       0.00000000       0.00000000      -0.37289852
2
Properties=species:S:1:pos:R:3:forces:R:3 energy=-1.4826960147824404 pbc="F F F"
Te       0.00000000       0.00000000       0.00000000       0.00000000       0.00000000       0.33604038
Te       0.00000000       0.00000000       4.29515152       0.00000000       0.00000000      -0.33604038
2
Properties=species:S:1:pos:R:3:forces:R:3 energy=-1.4639880278666388 pbc="F F F"
Te       0.00000000       0.00000000       0.00000000       0.00000000       0.00000000       0.30054665
Te       0.00000000       0.00000000       4.35393939       0.00000000       0.00000000      -0.30054665
2
Properties=species:S:1:pos:R:3:forces:R:3 energy=-1.447353413708497 pbc="F F F"
Te       0.00000000       0.00000000       0.00000000       0.00000000       0.00000000       0.26539463
Te       0.00000000       0.00000000       4.41272727       0.00000000       0.00000000      -0.26539463
2
Properties=species:S:1:pos:R:3:forces:R:3 energy=-1.4327775082702667 pbc="F F F"
Te       0.00000000       0.00000000       0.00000000       0.00000000       0.00000000       0.23058274
Te       0.00000000       0.00000000       4.47151515       0.00000000       0.00000000      -0.23058274
2
Properties=species:S:1:pos:R:3:forces:R:3 energy=-1.4202221241023407 pbc="F F F"
Te       0.00000000       0.00000000       0.00000000       0.00000000       0.00000000       0.19680798
Te       0.00000000       0.00000000       4.53030303       0.00000000       0.00000000      -0.19680798
2
Properties=species:S:1:pos:R:3:forces:R:3 energy=-1.4095990933845686 pbc="F F F"
Te       0.00000000       0.00000000       0.00000000       0.00000000       0.00000000       0.16499998
Te       0.00000000       0.00000000       4.58909091       0.00000000       0.00000000      -0.16499998
2
Properties=species:S:1:pos:R:3:forces:R:3 energy=-1.400769450132258 pbc="F F F"
Te       0.00000000       0.00000000       0.00000000       0.00000000       0.00000000       0.13587917
Te       0.00000000       0.00000000       4.64787879       0.00000000       0.00000000      -0.13587917
2
Properties=species:S:1:pos:R:3:forces:R:3 energy=-1.3935648118405632 pbc="F F F"
Te       0.00000000       0.00000000       0.00000000       0.00000000       0.00000000       0.10970704
Te       0.00000000       0.00000000       4.70666667       0.00000000       0.00000000      -0.10970704
2
Properties=species:S:1:pos:R:3:forces:R:3 energy=-1.3878152459478403 pbc="F F F"
Te       0.00000000       0.00000000       0.00000000       0.00000000       0.00000000       0.08635494
Te       0.00000000       0.00000000       4.76545455       0.00000000       0.00000000      -0.08635494
2
Properties=species:S:1:pos:R:3:forces:R:3 energy=-1.3833607951228677 pbc="F F F"
Te       0.00000000       0.00000000       0.00000000       0.00000000       0.00000000       0.06559549
Te       0.00000000       0.00000000       4.82424242       0.00000000       0.00000000      -0.06559549
2
Properties=species:S:1:pos:R:3:forces:R:3 energy=-1.3800504776571085 pbc="F F F"
Te       0.00000000       0.00000000       0.00000000       0.00000000       0.00000000       0.04752608
Te       0.00000000       0.00000000       4.88303030       0.00000000       0.00000000      -0.04752608
2
Properties=species:S:1:pos:R:3:forces:R:3 energy=-1.3777077710396766 pbc="F F F"
Te       0.00000000       0.00000000       0.00000000       0.00000000       0.00000000       0.03281561
Te       0.00000000       0.00000000       4.94181818       0.00000000       0.00000000      -0.03281561
2
Properties=species:S:1:pos:R:3:forces:R:3 energy=-1.3761025070754023 pbc="F F F"
Te       0.00000000       0.00000000       0.00000000       0.00000000       0.00000000       0.02266908
Te       0.00000000       0.00000000       5.00060606       0.00000000       0.00000000      -0.02266908
2
Properties=species:S:1:pos:R:3:forces:R:3 energy=-1.3749285033039944 pbc="F F F"
Te       0.00000000       0.00000000       0.00000000       0.00000000       0.00000000       0.01830502
Te       0.00000000       0.00000000       5.05939394       0.00000000       0.00000000      -0.01830502
2
Properties=species:S:1:pos:R:3:forces:R:3 energy=-1.37382816646307 pbc="F F F"
Te       0.00000000       0.00000000       0.00000000       0.00000000       0.00000000       0.02011211
Te       0.00000000       0.00000000       5.11818182       0.00000000       0.00000000      -0.02011211
2
Properties=species:S:1:pos:R:3:forces:R:3 energy=-1.3724677099660778 pbc="F F F"
Te       0.00000000       0.00000000       0.00000000       0.00000000       0.00000000       0.02674939
Te       0.00000000       0.00000000       5.17696970       0.00000000       0.00000000      -0.02674939
2
Properties=species:S:1:pos:R:3:forces:R:3 energy=-1.370655636848735 pbc="F F F"
Te       0.00000000       0.00000000       0.00000000       0.00000000       0.00000000       0.03474434
Te       0.00000000       0.00000000       5.23575758       0.00000000       0.00000000      -0.03474434
2
Properties=species:S:1:pos:R:3:forces:R:3 energy=-1.3684450355946618 pbc="F F F"
Te       0.00000000       0.00000000       0.00000000       0.00000000       0.00000000       0.03965552
Te       0.00000000       0.00000000       5.29454545       0.00000000       0.00000000      -0.03965552
2
Properties=species:S:1:pos:R:3:forces:R:3 energy=-1.3660769394677745 pbc="F F F"
Te       0.00000000       0.00000000       0.00000000       0.00000000       0.00000000       0.04068305
Te       0.00000000       0.00000000       5.35333333       0.00000000       0.00000000      -0.04068305
2
Properties=species:S:1:pos:R:3:forces:R:3 energy=-1.3635555727262385 pbc="F F F"
Te       0.00000000       0.00000000       0.00000000       0.00000000       0.00000000       0.04731445
Te       0.00000000       0.00000000       5.41212121       0.00000000       0.00000000      -0.04731445
2
Properties=species:S:1:pos:R:3:forces:R:3 energy=-1.360194329163947 pbc="F F F"
Te       0.00000000       0.00000000       0.00000000       0.00000000       0.00000000       0.06896747
Te       0.00000000       0.00000000       5.47090909       0.00000000       0.00000000      -0.06896747
2
Properties=species:S:1:pos:R:3:forces:R:3 energy=-1.3555016662343702 pbc="F F F"
Te       0.00000000       0.00000000       0.00000000       0.00000000       0.00000000       0.08783250
Te       0.00000000       0.00000000       5.52969697       0.00000000       0.00000000      -0.08783250
2
Properties=species:S:1:pos:R:3:forces:R:3 energy=-1.3502740633344903 pbc="F F F"
Te       0.00000000       0.00000000       0.00000000       0.00000000       0.00000000       0.08731601
Te       0.00000000       0.00000000       5.58848485       0.00000000       0.00000000      -0.08731601
2
Properties=species:S:1:pos:R:3:forces:R:3 energy=-1.3453333609696567 pbc="F F F"
Te       0.00000000       0.00000000       0.00000000       0.00000000       0.00000000       0.08209227
Te       0.00000000       0.00000000       5.64727273       0.00000000       0.00000000      -0.08209227
2
Properties=species:S:1:pos:R:3:forces:R:3 energy=-1.3403127784902669 pbc="F F F"
Te       0.00000000       0.00000000       0.00000000       0.00000000       0.00000000       0.09154516
Te       0.00000000       0.00000000       5.70606061       0.00000000       0.00000000      -0.09154516
2
Properties=species:S:1:pos:R:3:forces:R:3 energy=-1.3344779472747235 pbc="F F F"
Te       0.00000000       0.00000000       0.00000000       0.00000000       0.00000000       0.10385569
Te       0.00000000       0.00000000       5.76484848       0.00000000       0.00000000      -0.10385569
2
Properties=species:S:1:pos:R:3:forces:R:3 energy=-1.3287142598829131 pbc="F F F"
Te       0.00000000       0.00000000       0.00000000       0.00000000       0.00000000       0.08667919
Te       0.00000000       0.00000000       5.82363636       0.00000000       0.00000000      -0.08667919
2
Properties=species:S:1:pos:R:3:forces:R:3 energy=-1.3247106567219407 pbc="F F F"
Te       0.00000000       0.00000000       0.00000000       0.00000000       0.00000000       0.04924365
Te       0.00000000       0.00000000       5.88242424       0.00000000       0.00000000      -0.04924365
2
Properties=species:S:1:pos:R:3:forces:R:3 energy=-1.3227795693244238 pbc="F F F"
Te       0.00000000       0.00000000       0.00000000       0.00000000       0.00000000       0.01875668
Te       0.00000000       0.00000000       5.94121212       0.00000000       0.00000000      -0.01875668
2
Properties=species:S:1:pos:R:3:forces:R:3 energy=-1.3221238172765086 pbc="F F F"
Te       0.00000000       0.00000000       0.00000000       0.00000000       0.00000000       0.00726031
Te       0.00000000       0.00000000       6.00000000       0.00000000       0.00000000      -0.00726031
