2
Properties=species:S:1:pos:R:3:forces:R:3 energy=19229.830677288737 pbc="F F F"
Th       0.00000000       0.00000000       0.00000000       0.00000000       0.00000000 -345789.78125000
Th       0.00000000       0.00000000       0.18000000       0.00000000       0.00000000  345789.78125000
2
Properties=species:S:1:pos:R:3:forces:R:3 energy=7259.106067913736 pbc="F F F"
Th       0.00000000       0.00000000       0.00000000       0.00000000       0.00000000 -111709.31250000
Th       0.00000000       0.00000000       0.23878788       0.00000000       0.00000000  111709.31250000
2
Properties=species:S:1:pos:R:3:forces:R:3 energy=3095.3475229918613 pbc="F F F"
Th       0.00000000       0.00000000       0.00000000       0.00000000       0.00000000  -42403.64062500
Th       0.00000000       0.00000000       0.29757576       0.00000000       0.00000000   42403.64062500
2
Properties=species:S:1:pos:R:3:forces:R:3 energy=1440.0153696715486 pbc="F F F"
Th       0.00000000       0.00000000       0.00000000       0.00000000       0.00000000  -17816.39453125
Th       0.00000000       0.00000000       0.35636364       0.00000000       0.00000000   17816.39453125
2
Properties=species:S:1:pos:R:3:forces:R:3 energy=720.5375864810949 pbc="F F F"
Th       0.00000000       0.00000000       0.00000000       0.00000000       0.00000000   -8070.47802734
Th       0.00000000       0.00000000       0.41515152       0.00000000       0.00000000    8070.47802734
2
Properties=species:S:1:pos:R:3:forces:R:3 energy=385.3550303287511 pbc="F F F"
Th       0.00000000       0.00000000       0.00000000       0.00000000       0.00000000   -3891.00610352
Th       0.00000000       0.00000000       0.47393939       0.00000000       0.00000000    3891.00610352
2
Properties=species:S:1:pos:R:3:forces:R:3 energy=219.7568858101724 pbc="F F F"
Th       0.00000000       0.00000000       0.00000000       0.00000000       0.00000000   -1979.68676758
Th       0.00000000       0.00000000       0.53272727       0.00000000       0.00000000    1979.68676758
2
Properties=species:S:1:pos:R:3:forces:R:3 energy=133.71010238824937 pbc="F F F"
Th       0.00000000       0.00000000       0.00000000       0.00000000       0.00000000   -1054.26135254
Th       0.00000000       0.00000000       0.59151515       0.00000000       0.00000000    1054.26135254
2
Properties=species:S:1:pos:R:3:forces:R:3 energy=87.09497487545796 pbc="F F F"
Th       0.00000000       0.00000000       0.00000000       0.00000000       0.00000000    -582.15606689
Th       0.00000000       0.00000000       0.65030303       0.00000000       0.00000000     582.15606689
2
Properties=species:S:1:pos:R:3:forces:R:3 energy=61.03839916366792 pbc="F F F"
Th       0.00000000       0.00000000       0.00000000       0.00000000       0.00000000    -329.45172119
Th       0.00000000       0.00000000       0.70909091       0.00000000       0.00000000     329.45172119
2
Properties=species:S:1:pos:R:3:forces:R:3 energy=46.21322302602456 pbc="F F F"
Th       0.00000000       0.00000000       0.00000000       0.00000000       0.00000000    -188.00285339
Th       0.00000000       0.00000000       0.76787879       0.00000000       0.00000000     188.00285339
2
Properties=species:S:1:pos:R:3:forces:R:3 energy=37.78780813901752 pbc="F F F"
Th       0.00000000       0.00000000       0.00000000       0.00000000       0.00000000    -105.87491608
Th       0.00000000       0.00000000       0.82666667       0.00000000       0.00000000     105.87491608
2
Properties=species:S:1:pos:R:3:forces:R:3 energy=33.106186815587044 pbc="F F F"
Th       0.00000000       0.00000000       0.00000000       0.00000000       0.00000000     -57.72707367
Th       0.00000000       0.00000000       0.88545455       0.00000000       0.00000000      57.72707367
2
Properties=species:S:1:pos:R:3:forces:R:3 energy=30.602719559883514 pbc="F F F"
Th       0.00000000       0.00000000       0.00000000       0.00000000       0.00000000     -30.00637054
Th       0.00000000       0.00000000       0.94424242       0.00000000       0.00000000      30.00637054
2
Properties=species:S:1:pos:R:3:forces:R:3 energy=29.346795753182523 pbc="F F F"
Th       0.00000000       0.00000000       0.00000000       0.00000000       0.00000000     -14.29616642
Th       0.00000000       0.00000000       1.00303030       0.00000000       0.00000000      14.29616642
2
Properties=species:S:1:pos:R:3:forces:R:3 energy=28.754003799732892 pbc="F F F"
Th       0.00000000       0.00000000       0.00000000       0.00000000       0.00000000      -7.21424913
Th       0.00000000       0.00000000       1.06181818       0.00000000       0.00000000       7.21424913
2
Properties=species:S:1:pos:R:3:forces:R:3 energy=28.35124881003423 pbc="F F F"
Th       0.00000000       0.00000000       0.00000000       0.00000000       0.00000000      -7.64896059
Th       0.00000000       0.00000000       1.12060606       0.00000000       0.00000000       7.64896059
2
Properties=species:S:1:pos:R:3:forces:R:3 energy=27.72743426189572 pbc="F F F"
Th       0.00000000       0.00000000       0.00000000       0.00000000       0.00000000     -14.52455997
Th       0.00000000       0.00000000       1.17939394       0.00000000       0.00000000      14.52455997
2
Properties=species:S:1:pos:R:3:forces:R:3 energy=26.57571738937614 pbc="F F F"
Th       0.00000000       0.00000000       0.00000000       0.00000000       0.00000000     -24.74502373
Th       0.00000000       0.00000000       1.23818182       0.00000000       0.00000000      24.74502373
2
Properties=species:S:1:pos:R:3:forces:R:3 energy=24.833069932931938 pbc="F F F"
Th       0.00000000       0.00000000       0.00000000       0.00000000       0.00000000     -34.52744293
Th       0.00000000       0.00000000       1.29696970       0.00000000       0.00000000      34.52744293
2
Properties=species:S:1:pos:R:3:forces:R:3 energy=22.488158490343388 pbc="F F F"
Th       0.00000000       0.00000000       0.00000000       0.00000000       0.00000000     -45.55448914
Th       0.00000000       0.00000000       1.35575758       0.00000000       0.00000000      45.55448914
2
Properties=species:S:1:pos:R:3:forces:R:3 energy=19.473787295989386 pbc="F F F"
Th       0.00000000       0.00000000       0.00000000       0.00000000       0.00000000     -56.59049606
Th       0.00000000       0.00000000       1.41454545       0.00000000       0.00000000      56.59049606
2
Properties=species:S:1:pos:R:3:forces:R:3 energy=15.940278361004305 pbc="F F F"
Th       0.00000000       0.00000000       0.00000000       0.00000000       0.00000000     -62.30224609
Th       0.00000000       0.00000000       1.47333333       0.00000000       0.00000000      62.30224609
2
Properties=species:S:1:pos:R:3:forces:R:3 energy=12.317553941325448 pbc="F F F"
Th       0.00000000       0.00000000       0.00000000       0.00000000       0.00000000     -59.66850662
Th       0.00000000       0.00000000       1.53212121       0.00000000       0.00000000      59.66850662
2
Properties=species:S:1:pos:R:3:forces:R:3 energy=9.021667935638357 pbc="F F F"
Th       0.00000000       0.00000000       0.00000000       0.00000000       0.00000000     -52.10808945
Th       0.00000000       0.00000000       1.59090909       0.00000000       0.00000000      52.10808945
2
Properties=species:S:1:pos:R:3:forces:R:3 energy=6.197071650027202 pbc="F F F"
Th       0.00000000       0.00000000       0.00000000       0.00000000       0.00000000     -44.06781006
Th       0.00000000       0.00000000       1.64969697       0.00000000       0.00000000      44.06781006
2
Properties=species:S:1:pos:R:3:forces:R:3 energy=3.836931457485949 pbc="F F F"
Th       0.00000000       0.00000000       0.00000000       0.00000000       0.00000000     -36.16270065
Th       0.00000000       0.00000000       1.70848485       0.00000000       0.00000000      36.16270065
2
Properties=species:S:1:pos:R:3:forces:R:3 energy=1.954030598621036 pbc="F F F"
Th       0.00000000       0.00000000       0.00000000       0.00000000       0.00000000     -27.90713882
Th       0.00000000       0.00000000       1.76727273       0.00000000       0.00000000      27.90713882
2
Properties=species:S:1:pos:R:3:forces:R:3 energy=0.5347937729641915 pbc="F F F"
Th       0.00000000       0.00000000       0.00000000       0.00000000       0.00000000     -20.69242668
Th       0.00000000       0.00000000       1.82606061       0.00000000       0.00000000      20.69242668
2
Properties=species:S:1:pos:R:3:forces:R:3 energy=-0.5204793615078959 pbc="F F F"
Th       0.00000000       0.00000000       0.00000000       0.00000000       0.00000000     -15.54330730
Th       0.00000000       0.00000000       1.88484848       0.00000000       0.00000000      15.54330730
2
Properties=species:S:1:pos:R:3:forces:R:3 energy=-1.326589336840781 pbc="F F F"
Th       0.00000000       0.00000000       0.00000000       0.00000000       0.00000000     -12.13231182
Th       0.00000000       0.00000000       1.94363636       0.00000000       0.00000000      12.13231182
2
Properties=species:S:1:pos:R:3:forces:R:3 energy=-1.9749928075538743 pbc="F F F"
Th       0.00000000       0.00000000       0.00000000       0.00000000       0.00000000     -10.16303349
Th       0.00000000       0.00000000       2.00242424       0.00000000       0.00000000      10.16303349
2
Properties=species:S:1:pos:R:3:forces:R:3 energy=-2.548764371523689 pbc="F F F"
Th       0.00000000       0.00000000       0.00000000       0.00000000       0.00000000      -9.57273769
Th       0.00000000       0.00000000       2.06121212       0.00000000       0.00000000       9.57273769
2
Properties=species:S:1:pos:R:3:forces:R:3 energy=-3.1212950861420854 pbc="F F F"
Th       0.00000000       0.00000000       0.00000000       0.00000000       0.00000000     -10.02774811
Th       0.00000000       0.00000000       2.12000000       0.00000000       0.00000000      10.02774811
2
Properties=species:S:1:pos:R:3:forces:R:3 energy=-3.7339734837375467 pbc="F F F"
Th       0.00000000       0.00000000       0.00000000       0.00000000       0.00000000     -10.79559708
Th       0.00000000       0.00000000       2.17878788       0.00000000       0.00000000      10.79559708
2
Properties=species:S:1:pos:R:3:forces:R:3 energy=-4.38061475594908 pbc="F F F"
Th       0.00000000       0.00000000       0.00000000       0.00000000       0.00000000     -11.06778431
Th       0.00000000       0.00000000       2.23757576       0.00000000       0.00000000      11.06778431
2
Properties=species:S:1:pos:R:3:forces:R:3 energy=-5.016638864662154 pbc="F F F"
Th       0.00000000       0.00000000       0.00000000       0.00000000       0.00000000     -10.40868092
Th       0.00000000       0.00000000       2.29636364       0.00000000       0.00000000      10.40868092
2
Properties=species:S:1:pos:R:3:forces:R:3 energy=-5.587941852516293 pbc="F F F"
Th       0.00000000       0.00000000       0.00000000       0.00000000       0.00000000      -8.91951180
Th       0.00000000       0.00000000       2.35515152       0.00000000       0.00000000       8.91951180
2
Properties=species:S:1:pos:R:3:forces:R:3 energy=-6.057186723788473 pbc="F F F"
Th       0.00000000       0.00000000       0.00000000       0.00000000       0.00000000      -7.01192999
Th       0.00000000       0.00000000       2.41393939       0.00000000       0.00000000       7.01192999
2
Properties=species:S:1:pos:R:3:forces:R:3 energy=-6.412140465267149 pbc="F F F"
Th       0.00000000       0.00000000       0.00000000       0.00000000       0.00000000      -5.08578253
Th       0.00000000       0.00000000       2.47272727       0.00000000       0.00000000       5.08578253
2
Properties=species:S:1:pos:R:3:forces:R:3 energy=-6.659449916168803 pbc="F F F"
Th       0.00000000       0.00000000       0.00000000       0.00000000       0.00000000      -3.37378168
Th       0.00000000       0.00000000       2.53151515       0.00000000       0.00000000       3.37378168
2
Properties=species:S:1:pos:R:3:forces:R:3 energy=-6.8146090636442 pbc="F F F"
Th       0.00000000       0.00000000       0.00000000       0.00000000       0.00000000      -1.95484436
Th       0.00000000       0.00000000       2.59030303       0.00000000       0.00000000       1.95484436
2
Properties=species:S:1:pos:R:3:forces:R:3 energy=-6.894943337669741 pbc="F F F"
Th       0.00000000       0.00000000       0.00000000       0.00000000       0.00000000      -0.82351369
Th       0.00000000       0.00000000       2.64909091       0.00000000       0.00000000       0.82351369
2
Properties=species:S:1:pos:R:3:forces:R:3 energy=-6.916343791364796 pbc="F F F"
Th       0.00000000       0.00000000       0.00000000       0.00000000       0.00000000       0.05753967
Th       0.00000000       0.00000000       2.70787879       0.00000000       0.00000000      -0.05753967
2
Properties=species:S:1:pos:R:3:forces:R:3 energy=-6.8921579270765765 pbc="F F F"
Th       0.00000000       0.00000000       0.00000000       0.00000000       0.00000000       0.73564470
Th       0.00000000       0.00000000       2.76666667       0.00000000       0.00000000      -0.73564470
2
Properties=species:S:1:pos:R:3:forces:R:3 energy=-6.83283115285102 pbc="F F F"
Th       0.00000000       0.00000000       0.00000000       0.00000000       0.00000000       1.26155472
Th       0.00000000       0.00000000       2.82545455       0.00000000       0.00000000      -1.26155472
2
Properties=species:S:1:pos:R:3:forces:R:3 energy=-6.745879113206338 pbc="F F F"
Th       0.00000000       0.00000000       0.00000000       0.00000000       0.00000000       1.68242872
Th       0.00000000       0.00000000       2.88424242       0.00000000       0.00000000      -1.68242872
2
Properties=species:S:1:pos:R:3:forces:R:3 energy=-6.63640927295635 pbc="F F F"
Th       0.00000000       0.00000000       0.00000000       0.00000000       0.00000000       2.03166366
Th       0.00000000       0.00000000       2.94303030       0.00000000       0.00000000      -2.03166366
2
Properties=species:S:1:pos:R:3:forces:R:3 energy=-6.508125237635973 pbc="F F F"
Th       0.00000000       0.00000000       0.00000000       0.00000000       0.00000000       2.32310510
Th       0.00000000       0.00000000       3.00181818       0.00000000       0.00000000      -2.32310510
2
Properties=species:S:1:pos:R:3:forces:R:3 energy=-6.364435800703466 pbc="F F F"
Th       0.00000000       0.00000000       0.00000000       0.00000000       0.00000000       2.55469155
Th       0.00000000       0.00000000       3.06060606       0.00000000       0.00000000      -2.55469155
2
Properties=species:S:1:pos:R:3:forces:R:3 energy=-6.209080655262306 pbc="F F F"
Th       0.00000000       0.00000000       0.00000000       0.00000000       0.00000000       2.71885157
Th       0.00000000       0.00000000       3.11939394       0.00000000       0.00000000      -2.71885157
2
Properties=species:S:1:pos:R:3:forces:R:3 energy=-6.046148336475157 pbc="F F F"
Th       0.00000000       0.00000000       0.00000000       0.00000000       0.00000000       2.81284976
Th       0.00000000       0.00000000       3.17818182       0.00000000       0.00000000      -2.81284976
2
Properties=species:S:1:pos:R:3:forces:R:3 energy=-5.879592873412203 pbc="F F F"
Th       0.00000000       0.00000000       0.00000000       0.00000000       0.00000000       2.84424114
Th       0.00000000       0.00000000       3.23696970       0.00000000       0.00000000      -2.84424114
2
Properties=species:S:1:pos:R:3:forces:R:3 energy=-5.712630952841582 pbc="F F F"
Th       0.00000000       0.00000000       0.00000000       0.00000000       0.00000000       2.83006263
Th       0.00000000       0.00000000       3.29575758       0.00000000       0.00000000      -2.83006263
2
Properties=species:S:1:pos:R:3:forces:R:3 energy=-5.547324336591691 pbc="F F F"
Th       0.00000000       0.00000000       0.00000000       0.00000000       0.00000000       2.79130983
Th       0.00000000       0.00000000       3.35454545       0.00000000       0.00000000      -2.79130983
2
Properties=species:S:1:pos:R:3:forces:R:3 energy=-5.3845634210046045 pbc="F F F"
Th       0.00000000       0.00000000       0.00000000       0.00000000       0.00000000       2.74597621
Th       0.00000000       0.00000000       3.41333333       0.00000000       0.00000000      -2.74597621
2
Properties=species:S:1:pos:R:3:forces:R:3 energy=-5.224391338820002 pbc="F F F"
Th       0.00000000       0.00000000       0.00000000       0.00000000       0.00000000       2.70404935
Th       0.00000000       0.00000000       3.47212121       0.00000000       0.00000000      -2.70404935
2
Properties=species:S:1:pos:R:3:forces:R:3 energy=-5.06654194085941 pbc="F F F"
Th       0.00000000       0.00000000       0.00000000       0.00000000       0.00000000       2.66656661
Th       0.00000000       0.00000000       3.53090909       0.00000000       0.00000000      -2.66656661
2
Properties=species:S:1:pos:R:3:forces:R:3 energy=-4.910874085307538 pbc="F F F"
Th       0.00000000       0.00000000       0.00000000       0.00000000       0.00000000       2.62871933
Th       0.00000000       0.00000000       3.58969697       0.00000000       0.00000000      -2.62871933
2
Properties=species:S:1:pos:R:3:forces:R:3 energy=-4.757586399830983 pbc="F F F"
Th       0.00000000       0.00000000       0.00000000       0.00000000       0.00000000       2.58493042
Th       0.00000000       0.00000000       3.64848485       0.00000000       0.00000000      -2.58493042
2
Properties=species:S:1:pos:R:3:forces:R:3 energy=-4.607121213898057 pbc="F F F"
Th       0.00000000       0.00000000       0.00000000       0.00000000       0.00000000       2.53257918
Th       0.00000000       0.00000000       3.70727273       0.00000000       0.00000000      -2.53257918
2
Properties=species:S:1:pos:R:3:forces:R:3 energy=-4.459968451993865 pbc="F F F"
Th       0.00000000       0.00000000       0.00000000       0.00000000       0.00000000       2.47245574
Th       0.00000000       0.00000000       3.76606061       0.00000000       0.00000000      -2.47245574
2
Properties=species:S:1:pos:R:3:forces:R:3 energy=-4.316534604772121 pbc="F F F"
Th       0.00000000       0.00000000       0.00000000       0.00000000       0.00000000       2.40648675
Th       0.00000000       0.00000000       3.82484848       0.00000000       0.00000000      -2.40648675
2
Properties=species:S:1:pos:R:3:forces:R:3 energy=-4.177124997381263 pbc="F F F"
Th       0.00000000       0.00000000       0.00000000       0.00000000       0.00000000       2.33531284
Th       0.00000000       0.00000000       3.88363636       0.00000000       0.00000000      -2.33531284
2
Properties=species:S:1:pos:R:3:forces:R:3 energy=-4.042082964894119 pbc="F F F"
Th       0.00000000       0.00000000       0.00000000       0.00000000       0.00000000       2.25765276
Th       0.00000000       0.00000000       3.94242424       0.00000000       0.00000000      -2.25765276
2
Properties=species:S:1:pos:R:3:forces:R:3 energy=-3.911850973827266 pbc="F F F"
Th       0.00000000       0.00000000       0.00000000       0.00000000       0.00000000       2.17136335
Th       0.00000000       0.00000000       4.00121212       0.00000000       0.00000000      -2.17136335
2
Properties=species:S:1:pos:R:3:forces:R:3 energy=-3.7869810135241115 pbc="F F F"
Th       0.00000000       0.00000000       0.00000000       0.00000000       0.00000000       2.07510853
Th       0.00000000       0.00000000       4.06000000       0.00000000       0.00000000      -2.07510853
2
Properties=species:S:1:pos:R:3:forces:R:3 energy=-3.668052567492389 pbc="F F F"
Th       0.00000000       0.00000000       0.00000000       0.00000000       0.00000000       1.96952701
Th       0.00000000       0.00000000       4.11878788       0.00000000       0.00000000      -1.96952701
2
Properties=species:S:1:pos:R:3:forces:R:3 energy=-3.5555419790297464 pbc="F F F"
Th       0.00000000       0.00000000       0.00000000       0.00000000       0.00000000       1.85734248
Th       0.00000000       0.00000000       4.17757576       0.00000000       0.00000000      -1.85734248
2
Properties=species:S:1:pos:R:3:forces:R:3 energy=-3.4497255542462253 pbc="F F F"
Th       0.00000000       0.00000000       0.00000000       0.00000000       0.00000000       1.74245477
Th       0.00000000       0.00000000       4.23636364       0.00000000       0.00000000      -1.74245477
2
Properties=species:S:1:pos:R:3:forces:R:3 energy=-3.350649633028987 pbc="F F F"
Th       0.00000000       0.00000000       0.00000000       0.00000000       0.00000000       1.62853765
Th       0.00000000       0.00000000       4.29515152       0.00000000       0.00000000      -1.62853765
2
Properties=species:S:1:pos:R:3:forces:R:3 energy=-3.2581842545654487 pbc="F F F"
Th       0.00000000       0.00000000       0.00000000       0.00000000       0.00000000       1.51796889
Th       0.00000000       0.00000000       4.35393939       0.00000000       0.00000000      -1.51796889
2
Properties=species:S:1:pos:R:3:forces:R:3 energy=-3.172094988691773 pbc="F F F"
Th       0.00000000       0.00000000       0.00000000       0.00000000       0.00000000       1.41150010
Th       0.00000000       0.00000000       4.41272727       0.00000000       0.00000000      -1.41150010
2
Properties=species:S:1:pos:R:3:forces:R:3 energy=-3.0921520325676957 pbc="F F F"
Th       0.00000000       0.00000000       0.00000000       0.00000000       0.00000000       1.30870569
Th       0.00000000       0.00000000       4.47151515       0.00000000       0.00000000      -1.30870569
2
Properties=species:S:1:pos:R:3:forces:R:3 energy=-3.018165146501959 pbc="F F F"
Th       0.00000000       0.00000000       0.00000000       0.00000000       0.00000000       1.20878172
Th       0.00000000       0.00000000       4.53030303       0.00000000       0.00000000      -1.20878172
2
Properties=species:S:1:pos:R:3:forces:R:3 energy=-2.9499828183193317 pbc="F F F"
Th       0.00000000       0.00000000       0.00000000       0.00000000       0.00000000       1.11125684
Th       0.00000000       0.00000000       4.58909091       0.00000000       0.00000000      -1.11125684
2
Properties=species:S:1:pos:R:3:forces:R:3 energy=-2.8874561694564056 pbc="F F F"
Th       0.00000000       0.00000000       0.00000000       0.00000000       0.00000000       1.01653695
Th       0.00000000       0.00000000       4.64787879       0.00000000       0.00000000      -1.01653695
2
Properties=species:S:1:pos:R:3:forces:R:3 energy=-2.8303777130649874 pbc="F F F"
Th       0.00000000       0.00000000       0.00000000       0.00000000       0.00000000       0.92614865
Th       0.00000000       0.00000000       4.70666667       0.00000000       0.00000000      -0.92614865
2
Properties=species:S:1:pos:R:3:forces:R:3 energy=-2.7784253129747216 pbc="F F F"
Th       0.00000000       0.00000000       0.00000000       0.00000000       0.00000000       0.84277010
Th       0.00000000       0.00000000       4.76545455       0.00000000       0.00000000      -0.84277010
2
Properties=species:S:1:pos:R:3:forces:R:3 energy=-2.731083556247141 pbc="F F F"
Th       0.00000000       0.00000000       0.00000000       0.00000000       0.00000000       0.76983255
Th       0.00000000       0.00000000       4.82424242       0.00000000       0.00000000      -0.76983255
2
Properties=species:S:1:pos:R:3:forces:R:3 energy=-2.687641174920807 pbc="F F F"
Th       0.00000000       0.00000000       0.00000000       0.00000000       0.00000000       0.71079952
Th       0.00000000       0.00000000       4.88303030       0.00000000       0.00000000      -0.71079952
2
Properties=species:S:1:pos:R:3:forces:R:3 energy=-2.647189552143392 pbc="F F F"
Th       0.00000000       0.00000000       0.00000000       0.00000000       0.00000000       0.66814083
Th       0.00000000       0.00000000       4.94181818       0.00000000       0.00000000      -0.66814083
2
Properties=species:S:1:pos:R:3:forces:R:3 energy=-2.608750301454075 pbc="F F F"
Th       0.00000000       0.00000000       0.00000000       0.00000000       0.00000000       0.64221114
Th       0.00000000       0.00000000       5.00060606       0.00000000       0.00000000      -0.64221114
2
Properties=species:S:1:pos:R:3:forces:R:3 energy=-2.5713992761228974 pbc="F F F"
Th       0.00000000       0.00000000       0.00000000       0.00000000       0.00000000       0.63047767
Th       0.00000000       0.00000000       5.05939394       0.00000000       0.00000000      -0.63047767
2
Properties=species:S:1:pos:R:3:forces:R:3 energy=-2.5344519701062835 pbc="F F F"
Th       0.00000000       0.00000000       0.00000000       0.00000000       0.00000000       0.62728798
Th       0.00000000       0.00000000       5.11818182       0.00000000       0.00000000      -0.62728798
2
Properties=species:S:1:pos:R:3:forces:R:3 energy=-2.4976454250872493 pbc="F F F"
Th       0.00000000       0.00000000       0.00000000       0.00000000       0.00000000       0.62411207
Th       0.00000000       0.00000000       5.17696970       0.00000000       0.00000000      -0.62411207
2
Properties=species:S:1:pos:R:3:forces:R:3 energy=-2.4612881197339274 pbc="F F F"
Th       0.00000000       0.00000000       0.00000000       0.00000000       0.00000000       0.61005956
Th       0.00000000       0.00000000       5.23575758       0.00000000       0.00000000      -0.61005956
2
Properties=species:S:1:pos:R:3:forces:R:3 energy=-2.4263288156481284 pbc="F F F"
Th       0.00000000       0.00000000       0.00000000       0.00000000       0.00000000       0.57554013
Th       0.00000000       0.00000000       5.29454545       0.00000000       0.00000000      -0.57554013
2
Properties=species:S:1:pos:R:3:forces:R:3 energy=-2.3939490873423668 pbc="F F F"
Th       0.00000000       0.00000000       0.00000000       0.00000000       0.00000000       0.52514386
Th       0.00000000       0.00000000       5.35333333       0.00000000       0.00000000      -0.52514386
2
Properties=species:S:1:pos:R:3:forces:R:3 energy=-2.3642850335244128 pbc="F F F"
Th       0.00000000       0.00000000       0.00000000       0.00000000       0.00000000       0.48968640
Th       0.00000000       0.00000000       5.41212121       0.00000000       0.00000000      -0.48968640
2
Properties=species:S:1:pos:R:3:forces:R:3 energy=-2.335640407087237 pbc="F F F"
Th       0.00000000       0.00000000       0.00000000       0.00000000       0.00000000       0.48880380
Th       0.00000000       0.00000000       5.47090909       0.00000000       0.00000000      -0.48880380
2
Properties=species:S:1:pos:R:3:forces:R:3 energy=-2.3069520382790545 pbc="F F F"
Th       0.00000000       0.00000000       0.00000000       0.00000000       0.00000000       0.48125488
Th       0.00000000       0.00000000       5.52969697       0.00000000       0.00000000      -0.48125488
2
Properties=species:S:1:pos:R:3:forces:R:3 energy=-2.279863943292982 pbc="F F F"
Th       0.00000000       0.00000000       0.00000000       0.00000000       0.00000000       0.43563795
Th       0.00000000       0.00000000       5.58848485       0.00000000       0.00000000      -0.43563795
2
Properties=species:S:1:pos:R:3:forces:R:3 energy=-2.2556234478203763 pbc="F F F"
Th       0.00000000       0.00000000       0.00000000       0.00000000       0.00000000       0.39670166
Th       0.00000000       0.00000000       5.64727273       0.00000000       0.00000000      -0.39670166
2
Properties=species:S:1:pos:R:3:forces:R:3 energy=-2.231725103425187 pbc="F F F"
Th       0.00000000       0.00000000       0.00000000       0.00000000       0.00000000       0.43077955
Th       0.00000000       0.00000000       5.70606061       0.00000000       0.00000000      -0.43077955
2
Properties=species:S:1:pos:R:3:forces:R:3 energy=-2.204135685751868 pbc="F F F"
Th       0.00000000       0.00000000       0.00000000       0.00000000       0.00000000       0.50011843
Th       0.00000000       0.00000000       5.76484848       0.00000000       0.00000000      -0.50011843
2
Properties=species:S:1:pos:R:3:forces:R:3 energy=-2.1751696623728325 pbc="F F F"
Th       0.00000000       0.00000000       0.00000000       0.00000000       0.00000000       0.45995623
Th       0.00000000       0.00000000       5.82363636       0.00000000       0.00000000      -0.45995623
2
Properties=species:S:1:pos:R:3:forces:R:3 energy=-2.1528711778172998 pbc="F F F"
Th       0.00000000       0.00000000       0.00000000       0.00000000       0.00000000       0.28649592
Th       0.00000000       0.00000000       5.88242424       0.00000000       0.00000000      -0.28649592
2
Properties=species:S:1:pos:R:3:forces:R:3 energy=-2.141579216510816 pbc="F F F"
Th       0.00000000       0.00000000       0.00000000       0.00000000       0.00000000       0.10651478
Th       0.00000000       0.00000000       5.94121212       0.00000000       0.00000000      -0.10651478
2
Properties=species:S:1:pos:R:3:forces:R:3 energy=-2.1381398087952026 pbc="F F F"
Th       0.00000000       0.00000000       0.00000000       0.00000000       0.00000000       0.03418691
Th       0.00000000       0.00000000       6.00000000       0.00000000       0.00000000      -0.03418691
