2
Properties=species:S:1:pos:R:3:forces:R:3 energy=19840.23160308977 pbc="F F F"
U        0.00000000       0.00000000       0.00000000       0.00000000       0.00000000 -357023.78125000
U        0.00000000       0.00000000       0.18000000       0.00000000       0.00000000  357023.78125000
2
Properties=species:S:1:pos:R:3:forces:R:3 energy=7493.399083558522 pbc="F F F"
U        0.00000000       0.00000000       0.00000000       0.00000000       0.00000000 -115042.37500000
U        0.00000000       0.00000000       0.23878788       0.00000000       0.00000000  115042.37500000
2
Properties=species:S:1:pos:R:3:forces:R:3 energy=3210.215001527272 pbc="F F F"
U        0.00000000       0.00000000       0.00000000       0.00000000       0.00000000  -43552.62109375
U        0.00000000       0.00000000       0.29757576       0.00000000       0.00000000   43552.62109375
2
Properties=species:S:1:pos:R:3:forces:R:3 energy=1511.8502554335216 pbc="F F F"
U        0.00000000       0.00000000       0.00000000       0.00000000       0.00000000  -18255.19726562
U        0.00000000       0.00000000       0.35636364       0.00000000       0.00000000   18255.19726562
2
Properties=species:S:1:pos:R:3:forces:R:3 energy=775.2205557264905 pbc="F F F"
U        0.00000000       0.00000000       0.00000000       0.00000000       0.00000000   -8256.58105469
U        0.00000000       0.00000000       0.41515152       0.00000000       0.00000000    8256.58105469
2
Properties=species:S:1:pos:R:3:forces:R:3 energy=432.3180593885998 pbc="F F F"
U        0.00000000       0.00000000       0.00000000       0.00000000       0.00000000   -3982.65332031
U        0.00000000       0.00000000       0.47393939       0.00000000       0.00000000    3982.65332031
2
Properties=species:S:1:pos:R:3:forces:R:3 energy=262.5305533104268 pbc="F F F"
U        0.00000000       0.00000000       0.00000000       0.00000000       0.00000000   -2036.58386230
U        0.00000000       0.00000000       0.53272727       0.00000000       0.00000000    2036.58386230
2
Properties=species:S:1:pos:R:3:forces:R:3 energy=173.5108389803006 pbc="F F F"
U        0.00000000       0.00000000       0.00000000       0.00000000       0.00000000   -1101.15563965
U        0.00000000       0.00000000       0.59151515       0.00000000       0.00000000    1101.15563965
2
Properties=species:S:1:pos:R:3:forces:R:3 energy=124.1346030564004 pbc="F F F"
U        0.00000000       0.00000000       0.00000000       0.00000000       0.00000000    -630.52203369
U        0.00000000       0.00000000       0.65030303       0.00000000       0.00000000     630.52203369
2
Properties=species:S:1:pos:R:3:forces:R:3 energy=95.03597030725685 pbc="F F F"
U        0.00000000       0.00000000       0.00000000       0.00000000       0.00000000    -385.32171631
U        0.00000000       0.00000000       0.70909091       0.00000000       0.00000000     385.32171631
2
Properties=species:S:1:pos:R:3:forces:R:3 energy=76.6165978500334 pbc="F F F"
U        0.00000000       0.00000000       0.00000000       0.00000000       0.00000000    -254.82615662
U        0.00000000       0.00000000       0.76787879       0.00000000       0.00000000     254.82615662
2
Properties=species:S:1:pos:R:3:forces:R:3 energy=63.90135752357324 pbc="F F F"
U        0.00000000       0.00000000       0.00000000       0.00000000       0.00000000    -185.00939941
U        0.00000000       0.00000000       0.82666667       0.00000000       0.00000000     185.00939941
2
Properties=species:S:1:pos:R:3:forces:R:3 energy=54.22997864962968 pbc="F F F"
U        0.00000000       0.00000000       0.00000000       0.00000000       0.00000000    -147.89848328
U        0.00000000       0.00000000       0.88545455       0.00000000       0.00000000     147.89848328
2
Properties=species:S:1:pos:R:3:forces:R:3 energy=46.1977981549365 pbc="F F F"
U        0.00000000       0.00000000       0.00000000       0.00000000       0.00000000    -126.93624115
U        0.00000000       0.00000000       0.94424242       0.00000000       0.00000000     126.93624115
2
Properties=species:S:1:pos:R:3:forces:R:3 energy=39.22229654625758 pbc="F F F"
U        0.00000000       0.00000000       0.00000000       0.00000000       0.00000000    -110.56546783
U        0.00000000       0.00000000       1.00303030       0.00000000       0.00000000     110.56546783
2
Properties=species:S:1:pos:R:3:forces:R:3 energy=33.1346048303808 pbc="F F F"
U        0.00000000       0.00000000       0.00000000       0.00000000       0.00000000     -97.89812469
U        0.00000000       0.00000000       1.06181818       0.00000000       0.00000000      97.89812469
2
Properties=species:S:1:pos:R:3:forces:R:3 energy=27.477378990144253 pbc="F F F"
U        0.00000000       0.00000000       0.00000000       0.00000000       0.00000000     -96.53044891
U        0.00000000       0.00000000       1.12060606       0.00000000       0.00000000      96.53044891
2
Properties=species:S:1:pos:R:3:forces:R:3 energy=21.668103372351638 pbc="F F F"
U        0.00000000       0.00000000       0.00000000       0.00000000       0.00000000    -101.16390228
U        0.00000000       0.00000000       1.17939394       0.00000000       0.00000000     101.16390228
2
Properties=species:S:1:pos:R:3:forces:R:3 energy=15.749640907167706 pbc="F F F"
U        0.00000000       0.00000000       0.00000000       0.00000000       0.00000000     -96.74495697
U        0.00000000       0.00000000       1.23818182       0.00000000       0.00000000      96.74495697
2
Properties=species:S:1:pos:R:3:forces:R:3 energy=10.551922891761594 pbc="F F F"
U        0.00000000       0.00000000       0.00000000       0.00000000       0.00000000     -79.71575928
U        0.00000000       0.00000000       1.29696970       0.00000000       0.00000000      79.71575928
2
Properties=species:S:1:pos:R:3:forces:R:3 energy=6.338749107533297 pbc="F F F"
U        0.00000000       0.00000000       0.00000000       0.00000000       0.00000000     -64.26402283
U        0.00000000       0.00000000       1.35575758       0.00000000       0.00000000      64.26402283
2
Properties=species:S:1:pos:R:3:forces:R:3 energy=2.909144212419728 pbc="F F F"
U        0.00000000       0.00000000       0.00000000       0.00000000       0.00000000     -53.13364410
U        0.00000000       0.00000000       1.41454545       0.00000000       0.00000000      53.13364410
2
Properties=species:S:1:pos:R:3:forces:R:3 energy=0.02142528883328486 pbc="F F F"
U        0.00000000       0.00000000       0.00000000       0.00000000       0.00000000     -45.55903244
U        0.00000000       0.00000000       1.47333333       0.00000000       0.00000000      45.55903244
2
Properties=species:S:1:pos:R:3:forces:R:3 energy=-2.483587224013146 pbc="F F F"
U        0.00000000       0.00000000       0.00000000       0.00000000       0.00000000     -39.82760239
U        0.00000000       0.00000000       1.53212121       0.00000000       0.00000000      39.82760239
2
Properties=species:S:1:pos:R:3:forces:R:3 energy=-4.663320128880556 pbc="F F F"
U        0.00000000       0.00000000       0.00000000       0.00000000       0.00000000     -34.20520401
U        0.00000000       0.00000000       1.59090909       0.00000000       0.00000000      34.20520401
2
Properties=species:S:1:pos:R:3:forces:R:3 energy=-6.484588758033939 pbc="F F F"
U        0.00000000       0.00000000       0.00000000       0.00000000       0.00000000     -27.63922882
U        0.00000000       0.00000000       1.64969697       0.00000000       0.00000000      27.63922882
2
Properties=species:S:1:pos:R:3:forces:R:3 energy=-7.9223861503163215 pbc="F F F"
U        0.00000000       0.00000000       0.00000000       0.00000000       0.00000000     -21.55550003
U        0.00000000       0.00000000       1.70848485       0.00000000       0.00000000      21.55550003
2
Properties=species:S:1:pos:R:3:forces:R:3 energy=-9.062960990322681 pbc="F F F"
U        0.00000000       0.00000000       0.00000000       0.00000000       0.00000000     -17.62635994
U        0.00000000       0.00000000       1.76727273       0.00000000       0.00000000      17.62635994
2
Properties=species:S:1:pos:R:3:forces:R:3 energy=-10.029842496845212 pbc="F F F"
U        0.00000000       0.00000000       0.00000000       0.00000000       0.00000000     -15.46655464
U        0.00000000       0.00000000       1.82606061       0.00000000       0.00000000      15.46655464
2
Properties=species:S:1:pos:R:3:forces:R:3 energy=-10.894452052359412 pbc="F F F"
U        0.00000000       0.00000000       0.00000000       0.00000000       0.00000000     -13.98946953
U        0.00000000       0.00000000       1.88484848       0.00000000       0.00000000      13.98946953
2
Properties=species:S:1:pos:R:3:forces:R:3 energy=-11.675132349898691 pbc="F F F"
U        0.00000000       0.00000000       0.00000000       0.00000000       0.00000000     -12.55408096
U        0.00000000       0.00000000       1.94363636       0.00000000       0.00000000      12.55408096
2
Properties=species:S:1:pos:R:3:forces:R:3 energy=-12.368401220422923 pbc="F F F"
U        0.00000000       0.00000000       0.00000000       0.00000000       0.00000000     -11.01492214
U        0.00000000       0.00000000       2.00242424       0.00000000       0.00000000      11.01492214
2
Properties=species:S:1:pos:R:3:forces:R:3 energy=-12.967857247124309 pbc="F F F"
U        0.00000000       0.00000000       0.00000000       0.00000000       0.00000000      -9.34810162
U        0.00000000       0.00000000       2.06121212       0.00000000       0.00000000       9.34810162
2
Properties=species:S:1:pos:R:3:forces:R:3 energy=-13.461918666979617 pbc="F F F"
U        0.00000000       0.00000000       0.00000000       0.00000000       0.00000000      -7.39910316
U        0.00000000       0.00000000       2.12000000       0.00000000       0.00000000       7.39910316
2
Properties=species:S:1:pos:R:3:forces:R:3 energy=-13.830788614348634 pbc="F F F"
U        0.00000000       0.00000000       0.00000000       0.00000000       0.00000000      -5.10489082
U        0.00000000       0.00000000       2.17878788       0.00000000       0.00000000       5.10489082
2
Properties=species:S:1:pos:R:3:forces:R:3 energy=-14.060320845286158 pbc="F F F"
U        0.00000000       0.00000000       0.00000000       0.00000000       0.00000000      -2.72254562
U        0.00000000       0.00000000       2.23757576       0.00000000       0.00000000       2.72254562
2
Properties=species:S:1:pos:R:3:forces:R:3 energy=-14.15689773178391 pbc="F F F"
U        0.00000000       0.00000000       0.00000000       0.00000000       0.00000000      -0.64164025
U        0.00000000       0.00000000       2.29636364       0.00000000       0.00000000       0.64164025
2
Properties=species:S:1:pos:R:3:forces:R:3 energy=-14.14710624058615 pbc="F F F"
U        0.00000000       0.00000000       0.00000000       0.00000000       0.00000000       0.86697876
U        0.00000000       0.00000000       2.35515152       0.00000000       0.00000000      -0.86697876
2
Properties=species:S:1:pos:R:3:forces:R:3 energy=-14.067893904155104 pbc="F F F"
U        0.00000000       0.00000000       0.00000000       0.00000000       0.00000000       1.72124779
U        0.00000000       0.00000000       2.41393939       0.00000000       0.00000000      -1.72124779
2
Properties=species:S:1:pos:R:3:forces:R:3 energy=-13.955995610923027 pbc="F F F"
U        0.00000000       0.00000000       0.00000000       0.00000000       0.00000000       2.00466585
U        0.00000000       0.00000000       2.47272727       0.00000000       0.00000000      -2.00466585
2
Properties=species:S:1:pos:R:3:forces:R:3 energy=-13.8393838136753 pbc="F F F"
U        0.00000000       0.00000000       0.00000000       0.00000000       0.00000000       1.92327738
U        0.00000000       0.00000000       2.53151515       0.00000000       0.00000000      -1.92327738
2
Properties=species:S:1:pos:R:3:forces:R:3 energy=-13.731795303949546 pbc="F F F"
U        0.00000000       0.00000000       0.00000000       0.00000000       0.00000000       1.74229062
U        0.00000000       0.00000000       2.59030303       0.00000000       0.00000000      -1.74229062
2
Properties=species:S:1:pos:R:3:forces:R:3 energy=-13.631821672834862 pbc="F F F"
U        0.00000000       0.00000000       0.00000000       0.00000000       0.00000000       1.69556093
U        0.00000000       0.00000000       2.64909091       0.00000000       0.00000000      -1.69556093
2
Properties=species:S:1:pos:R:3:forces:R:3 energy=-13.527375966673766 pbc="F F F"
U        0.00000000       0.00000000       0.00000000       0.00000000       0.00000000       1.90238094
U        0.00000000       0.00000000       2.70787879       0.00000000       0.00000000      -1.90238094
2
Properties=species:S:1:pos:R:3:forces:R:3 energy=-13.403457782114733 pbc="F F F"
U        0.00000000       0.00000000       0.00000000       0.00000000       0.00000000       2.34556651
U        0.00000000       0.00000000       2.76666667       0.00000000       0.00000000      -2.34556651
2
Properties=species:S:1:pos:R:3:forces:R:3 energy=-13.249036861985438 pbc="F F F"
U        0.00000000       0.00000000       0.00000000       0.00000000       0.00000000       2.91852665
U        0.00000000       0.00000000       2.82545455       0.00000000       0.00000000      -2.91852665
2
Properties=species:S:1:pos:R:3:forces:R:3 energy=-13.060325814107022 pbc="F F F"
U        0.00000000       0.00000000       0.00000000       0.00000000       0.00000000       3.49131083
U        0.00000000       0.00000000       2.88424242       0.00000000       0.00000000      -3.49131083
2
Properties=species:S:1:pos:R:3:forces:R:3 energy=-12.84079656451196 pbc="F F F"
U        0.00000000       0.00000000       0.00000000       0.00000000       0.00000000       3.95007682
U        0.00000000       0.00000000       2.94303030       0.00000000       0.00000000      -3.95007682
2
Properties=species:S:1:pos:R:3:forces:R:3 energy=-12.599802564153904 pbc="F F F"
U        0.00000000       0.00000000       0.00000000       0.00000000       0.00000000       4.21058559
U        0.00000000       0.00000000       3.00181818       0.00000000       0.00000000      -4.21058559
2
Properties=species:S:1:pos:R:3:forces:R:3 energy=-12.350515193070127 pbc="F F F"
U        0.00000000       0.00000000       0.00000000       0.00000000       0.00000000       4.22887182
U        0.00000000       0.00000000       3.06060606       0.00000000       0.00000000      -4.22887182
2
Properties=species:S:1:pos:R:3:forces:R:3 energy=-12.107189496760974 pbc="F F F"
U        0.00000000       0.00000000       0.00000000       0.00000000       0.00000000       4.01437521
U        0.00000000       0.00000000       3.11939394       0.00000000       0.00000000      -4.01437521
2
Properties=species:S:1:pos:R:3:forces:R:3 energy=-11.88184285865571 pbc="F F F"
U        0.00000000       0.00000000       0.00000000       0.00000000       0.00000000       3.63169003
U        0.00000000       0.00000000       3.17818182       0.00000000       0.00000000      -3.63169003
2
Properties=species:S:1:pos:R:3:forces:R:3 energy=-11.681546143573732 pbc="F F F"
U        0.00000000       0.00000000       0.00000000       0.00000000       0.00000000       3.17954898
U        0.00000000       0.00000000       3.23696970       0.00000000       0.00000000      -3.17954898
2
Properties=species:S:1:pos:R:3:forces:R:3 energy=-11.507494045991779 pbc="F F F"
U        0.00000000       0.00000000       0.00000000       0.00000000       0.00000000       2.75210762
U        0.00000000       0.00000000       3.29575758       0.00000000       0.00000000      -2.75210762
2
Properties=species:S:1:pos:R:3:forces:R:3 energy=-11.356381251426129 pbc="F F F"
U        0.00000000       0.00000000       0.00000000       0.00000000       0.00000000       2.40377617
U        0.00000000       0.00000000       3.35454545       0.00000000       0.00000000      -2.40377617
2
Properties=species:S:1:pos:R:3:forces:R:3 energy=-11.22321694807989 pbc="F F F"
U        0.00000000       0.00000000       0.00000000       0.00000000       0.00000000       2.13853550
U        0.00000000       0.00000000       3.41333333       0.00000000       0.00000000      -2.13853550
2
Properties=species:S:1:pos:R:3:forces:R:3 energy=-11.103890413494744 pbc="F F F"
U        0.00000000       0.00000000       0.00000000       0.00000000       0.00000000       1.92677045
U        0.00000000       0.00000000       3.47212121       0.00000000       0.00000000      -1.92677045
2
Properties=species:S:1:pos:R:3:forces:R:3 energy=-10.996314723482104 pbc="F F F"
U        0.00000000       0.00000000       0.00000000       0.00000000       0.00000000       1.73410428
U        0.00000000       0.00000000       3.53090909       0.00000000       0.00000000      -1.73410428
2
Properties=species:S:1:pos:R:3:forces:R:3 energy=-10.8999751573199 pbc="F F F"
U        0.00000000       0.00000000       0.00000000       0.00000000       0.00000000       1.54364038
U        0.00000000       0.00000000       3.58969697       0.00000000       0.00000000      -1.54364038
2
Properties=species:S:1:pos:R:3:forces:R:3 energy=-10.814650114425987 pbc="F F F"
U        0.00000000       0.00000000       0.00000000       0.00000000       0.00000000       1.36232877
U        0.00000000       0.00000000       3.64848485       0.00000000       0.00000000      -1.36232877
2
Properties=species:S:1:pos:R:3:forces:R:3 energy=-10.73917553591042 pbc="F F F"
U        0.00000000       0.00000000       0.00000000       0.00000000       0.00000000       1.21280420
U        0.00000000       0.00000000       3.70727273       0.00000000       0.00000000      -1.21280420
2
Properties=species:S:1:pos:R:3:forces:R:3 energy=-10.670984495292528 pbc="F F F"
U        0.00000000       0.00000000       0.00000000       0.00000000       0.00000000       1.11729717
U        0.00000000       0.00000000       3.76606061       0.00000000       0.00000000      -1.11729717
2
Properties=species:S:1:pos:R:3:forces:R:3 energy=-10.606602957089986 pbc="F F F"
U        0.00000000       0.00000000       0.00000000       0.00000000       0.00000000       1.08258629
U        0.00000000       0.00000000       3.82484848       0.00000000       0.00000000      -1.08258629
2
Properties=species:S:1:pos:R:3:forces:R:3 energy=-10.542765816523502 pbc="F F F"
U        0.00000000       0.00000000       0.00000000       0.00000000       0.00000000       1.09496224
U        0.00000000       0.00000000       3.88363636       0.00000000       0.00000000      -1.09496224
2
Properties=species:S:1:pos:R:3:forces:R:3 energy=-10.477462177252733 pbc="F F F"
U        0.00000000       0.00000000       0.00000000       0.00000000       0.00000000       1.12777174
U        0.00000000       0.00000000       3.94242424       0.00000000       0.00000000      -1.12777174
2
Properties=species:S:1:pos:R:3:forces:R:3 energy=-10.41029557417084 pbc="F F F"
U        0.00000000       0.00000000       0.00000000       0.00000000       0.00000000       1.15451169
U        0.00000000       0.00000000       4.00121212       0.00000000       0.00000000      -1.15451169
2
Properties=species:S:1:pos:R:3:forces:R:3 energy=-10.342184785766202 pbc="F F F"
U        0.00000000       0.00000000       0.00000000       0.00000000       0.00000000       1.15791404
U        0.00000000       0.00000000       4.06000000       0.00000000       0.00000000      -1.15791404
2
Properties=species:S:1:pos:R:3:forces:R:3 energy=-10.274730493005995 pbc="F F F"
U        0.00000000       0.00000000       0.00000000       0.00000000       0.00000000       1.13211751
U        0.00000000       0.00000000       4.11878788       0.00000000       0.00000000      -1.13211751
2
Properties=species:S:1:pos:R:3:forces:R:3 energy=-10.209582204316867 pbc="F F F"
U        0.00000000       0.00000000       0.00000000       0.00000000       0.00000000       1.08061886
U        0.00000000       0.00000000       4.17757576       0.00000000       0.00000000      -1.08061886
2
Properties=species:S:1:pos:R:3:forces:R:3 energy=-10.14799379266833 pbc="F F F"
U        0.00000000       0.00000000       0.00000000       0.00000000       0.00000000       1.01291645
U        0.00000000       0.00000000       4.23636364       0.00000000       0.00000000      -1.01291645
2
Properties=species:S:1:pos:R:3:forces:R:3 energy=-10.090573677251374 pbc="F F F"
U        0.00000000       0.00000000       0.00000000       0.00000000       0.00000000       0.94074899
U        0.00000000       0.00000000       4.29515152       0.00000000       0.00000000      -0.94074899
2
Properties=species:S:1:pos:R:3:forces:R:3 energy=-10.037264910359418 pbc="F F F"
U        0.00000000       0.00000000       0.00000000       0.00000000       0.00000000       0.87457955
U        0.00000000       0.00000000       4.35393939       0.00000000       0.00000000      -0.87457955
2
Properties=species:S:1:pos:R:3:forces:R:3 energy=-9.987494828228257 pbc="F F F"
U        0.00000000       0.00000000       0.00000000       0.00000000       0.00000000       0.82101381
U        0.00000000       0.00000000       4.41272727       0.00000000       0.00000000      -0.82101381
2
Properties=species:S:1:pos:R:3:forces:R:3 energy=-9.940448888613401 pbc="F F F"
U        0.00000000       0.00000000       0.00000000       0.00000000       0.00000000       0.78181779
U        0.00000000       0.00000000       4.47151515       0.00000000       0.00000000      -0.78181779
2
Properties=species:S:1:pos:R:3:forces:R:3 energy=-9.895337718605596 pbc="F F F"
U        0.00000000       0.00000000       0.00000000       0.00000000       0.00000000       0.75442499
U        0.00000000       0.00000000       4.53030303       0.00000000       0.00000000      -0.75442499
2
Properties=species:S:1:pos:R:3:forces:R:3 energy=-9.85161841775739 pbc="F F F"
U        0.00000000       0.00000000       0.00000000       0.00000000       0.00000000       0.73356199
U        0.00000000       0.00000000       4.58909091       0.00000000       0.00000000      -0.73356199
2
Properties=species:S:1:pos:R:3:forces:R:3 energy=-9.809077521413018 pbc="F F F"
U        0.00000000       0.00000000       0.00000000       0.00000000       0.00000000       0.71338141
U        0.00000000       0.00000000       4.64787879       0.00000000       0.00000000      -0.71338141
2
Properties=species:S:1:pos:R:3:forces:R:3 energy=-9.767818716983879 pbc="F F F"
U        0.00000000       0.00000000       0.00000000       0.00000000       0.00000000       0.68930757
U        0.00000000       0.00000000       4.70666667       0.00000000       0.00000000      -0.68930757
2
Properties=species:S:1:pos:R:3:forces:R:3 energy=-9.728150234351473 pbc="F F F"
U        0.00000000       0.00000000       0.00000000       0.00000000       0.00000000       0.65927637
U        0.00000000       0.00000000       4.76545455       0.00000000       0.00000000      -0.65927637
2
Properties=species:S:1:pos:R:3:forces:R:3 energy=-9.69040854283175 pbc="F F F"
U        0.00000000       0.00000000       0.00000000       0.00000000       0.00000000       0.62397939
U        0.00000000       0.00000000       4.82424242       0.00000000       0.00000000      -0.62397939
2
Properties=species:S:1:pos:R:3:forces:R:3 energy=-9.654835308181367 pbc="F F F"
U        0.00000000       0.00000000       0.00000000       0.00000000       0.00000000       0.58622622
U        0.00000000       0.00000000       4.88303030       0.00000000       0.00000000      -0.58622622
2
Properties=species:S:1:pos:R:3:forces:R:3 energy=-9.621461006317208 pbc="F F F"
U        0.00000000       0.00000000       0.00000000       0.00000000       0.00000000       0.54955804
U        0.00000000       0.00000000       4.94181818       0.00000000       0.00000000      -0.54955804
2
Properties=species:S:1:pos:R:3:forces:R:3 energy=-9.590144017627724 pbc="F F F"
U        0.00000000       0.00000000       0.00000000       0.00000000       0.00000000       0.51655954
U        0.00000000       0.00000000       5.00060606       0.00000000       0.00000000      -0.51655954
2
Properties=species:S:1:pos:R:3:forces:R:3 energy=-9.560647022288551 pbc="F F F"
U        0.00000000       0.00000000       0.00000000       0.00000000       0.00000000       0.48748019
U        0.00000000       0.00000000       5.05939394       0.00000000       0.00000000      -0.48748019
2
Properties=species:S:1:pos:R:3:forces:R:3 energy=-9.532797993823936 pbc="F F F"
U        0.00000000       0.00000000       0.00000000       0.00000000       0.00000000       0.45989129
U        0.00000000       0.00000000       5.11818182       0.00000000       0.00000000      -0.45989129
2
Properties=species:S:1:pos:R:3:forces:R:3 energy=-9.50662090317325 pbc="F F F"
U        0.00000000       0.00000000       0.00000000       0.00000000       0.00000000       0.43005639
U        0.00000000       0.00000000       5.17696970       0.00000000       0.00000000      -0.43005639
2
Properties=species:S:1:pos:R:3:forces:R:3 energy=-9.48232988893913 pbc="F F F"
U        0.00000000       0.00000000       0.00000000       0.00000000       0.00000000       0.39560938
U        0.00000000       0.00000000       5.23575758       0.00000000       0.00000000      -0.39560938
2
Properties=species:S:1:pos:R:3:forces:R:3 energy=-9.460168092763647 pbc="F F F"
U        0.00000000       0.00000000       0.00000000       0.00000000       0.00000000       0.35826895
U        0.00000000       0.00000000       5.29454545       0.00000000       0.00000000      -0.35826895
2
Properties=species:S:1:pos:R:3:forces:R:3 energy=-9.440161535326952 pbc="F F F"
U        0.00000000       0.00000000       0.00000000       0.00000000       0.00000000       0.32296690
U        0.00000000       0.00000000       5.35333333       0.00000000       0.00000000      -0.32296690
2
Properties=species:S:1:pos:R:3:forces:R:3 energy=-9.422152355564167 pbc="F F F"
U        0.00000000       0.00000000       0.00000000       0.00000000       0.00000000       0.28928056
U        0.00000000       0.00000000       5.41212121       0.00000000       0.00000000      -0.28928056
2
Properties=species:S:1:pos:R:3:forces:R:3 energy=-9.40628610656285 pbc="F F F"
U        0.00000000       0.00000000       0.00000000       0.00000000       0.00000000       0.24918395
U        0.00000000       0.00000000       5.47090909       0.00000000       0.00000000      -0.24918395
2
Properties=species:S:1:pos:R:3:forces:R:3 energy=-9.392926834199326 pbc="F F F"
U        0.00000000       0.00000000       0.00000000       0.00000000       0.00000000       0.20551106
U        0.00000000       0.00000000       5.52969697       0.00000000       0.00000000      -0.20551106
2
Properties=species:S:1:pos:R:3:forces:R:3 energy=-9.382040794454023 pbc="F F F"
U        0.00000000       0.00000000       0.00000000       0.00000000       0.00000000       0.16574925
U        0.00000000       0.00000000       5.58848485       0.00000000       0.00000000      -0.16574925
2
Properties=species:S:1:pos:R:3:forces:R:3 energy=-9.373298629611861 pbc="F F F"
U        0.00000000       0.00000000       0.00000000       0.00000000       0.00000000       0.13336273
U        0.00000000       0.00000000       5.64727273       0.00000000       0.00000000      -0.13336273
2
Properties=species:S:1:pos:R:3:forces:R:3 energy=-9.36606934210543 pbc="F F F"
U        0.00000000       0.00000000       0.00000000       0.00000000       0.00000000       0.11625716
U        0.00000000       0.00000000       5.70606061       0.00000000       0.00000000      -0.11625716
2
Properties=species:S:1:pos:R:3:forces:R:3 energy=-9.3590751150976 pbc="F F F"
U        0.00000000       0.00000000       0.00000000       0.00000000       0.00000000       0.12589279
U        0.00000000       0.00000000       5.76484848       0.00000000       0.00000000      -0.12589279
2
Properties=species:S:1:pos:R:3:forces:R:3 energy=-9.35115521828025 pbc="F F F"
U        0.00000000       0.00000000       0.00000000       0.00000000       0.00000000       0.13975137
U        0.00000000       0.00000000       5.82363636       0.00000000       0.00000000      -0.13975137
2
Properties=species:S:1:pos:R:3:forces:R:3 energy=-9.343578414665787 pbc="F F F"
U        0.00000000       0.00000000       0.00000000       0.00000000       0.00000000       0.11034261
U        0.00000000       0.00000000       5.88242424       0.00000000       0.00000000      -0.11034261
2
Properties=species:S:1:pos:R:3:forces:R:3 energy=-9.338664058399395 pbc="F F F"
U        0.00000000       0.00000000       0.00000000       0.00000000       0.00000000       0.05723536
U        0.00000000       0.00000000       5.94121212       0.00000000       0.00000000      -0.05723536
2
Properties=species:S:1:pos:R:3:forces:R:3 energy=-9.336243915527835 pbc="F F F"
U        0.00000000       0.00000000       0.00000000       0.00000000       0.00000000       0.03283592
U        0.00000000       0.00000000       6.00000000       0.00000000       0.00000000      -0.03283592
