2
Properties=species:S:1:pos:R:3:forces:R:3 energy=2870.7427926180076 pbc="F F F"
V        0.00000000       0.00000000       0.00000000       0.00000000       0.00000000  -43364.60156250
V        0.00000000       0.00000000       0.18000000       0.00000000       0.00000000   43364.60156250
2
Properties=species:S:1:pos:R:3:forces:R:3 energy=1283.2737984773828 pbc="F F F"
V        0.00000000       0.00000000       0.00000000       0.00000000       0.00000000  -16011.86621094
V        0.00000000       0.00000000       0.23878788       0.00000000       0.00000000   16011.86621094
2
Properties=species:S:1:pos:R:3:forces:R:3 energy=651.4874215242577 pbc="F F F"
V        0.00000000       0.00000000       0.00000000       0.00000000       0.00000000   -6958.93212891
V        0.00000000       0.00000000       0.29757576       0.00000000       0.00000000    6958.93212891
2
Properties=species:S:1:pos:R:3:forces:R:3 energy=362.44448329817146 pbc="F F F"
V        0.00000000       0.00000000       0.00000000       0.00000000       0.00000000   -3379.11132812
V        0.00000000       0.00000000       0.35636364       0.00000000       0.00000000    3379.11132812
2
Properties=species:S:1:pos:R:3:forces:R:3 energy=216.39087917219493 pbc="F F F"
V        0.00000000       0.00000000       0.00000000       0.00000000       0.00000000   -1791.24658203
V        0.00000000       0.00000000       0.41515152       0.00000000       0.00000000    1791.24658203
2
Properties=species:S:1:pos:R:3:forces:R:3 energy=135.91172269706124 pbc="F F F"
V        0.00000000       0.00000000       0.00000000       0.00000000       0.00000000   -1035.99108887
V        0.00000000       0.00000000       0.47393939       0.00000000       0.00000000    1035.99108887
2
Properties=species:S:1:pos:R:3:forces:R:3 energy=87.508448186271 pbc="F F F"
V        0.00000000       0.00000000       0.00000000       0.00000000       0.00000000    -647.28155518
V        0.00000000       0.00000000       0.53272727       0.00000000       0.00000000     647.28155518
2
Properties=species:S:1:pos:R:3:forces:R:3 energy=57.661676990386134 pbc="F F F"
V        0.00000000       0.00000000       0.00000000       0.00000000       0.00000000    -375.27337646
V        0.00000000       0.00000000       0.59151515       0.00000000       0.00000000     375.27337646
2
Properties=species:S:1:pos:R:3:forces:R:3 energy=41.77875394019316 pbc="F F F"
V        0.00000000       0.00000000       0.00000000       0.00000000       0.00000000    -187.73004150
V        0.00000000       0.00000000       0.65030303       0.00000000       0.00000000     187.73004150
2
Properties=species:S:1:pos:R:3:forces:R:3 energy=33.364588570079874 pbc="F F F"
V        0.00000000       0.00000000       0.00000000       0.00000000       0.00000000    -109.98382568
V        0.00000000       0.00000000       0.70909091       0.00000000       0.00000000     109.98382568
2
Properties=species:S:1:pos:R:3:forces:R:3 energy=27.984313033830844 pbc="F F F"
V        0.00000000       0.00000000       0.00000000       0.00000000       0.00000000     -78.34780121
V        0.00000000       0.00000000       0.76787879       0.00000000       0.00000000      78.34780121
2
Properties=species:S:1:pos:R:3:forces:R:3 energy=23.686320606300367 pbc="F F F"
V        0.00000000       0.00000000       0.00000000       0.00000000       0.00000000     -70.42285919
V        0.00000000       0.00000000       0.82666667       0.00000000       0.00000000      70.42285919
2
Properties=species:S:1:pos:R:3:forces:R:3 energy=19.545598730665684 pbc="F F F"
V        0.00000000       0.00000000       0.00000000       0.00000000       0.00000000     -70.94457245
V        0.00000000       0.00000000       0.88545455       0.00000000       0.00000000      70.94457245
2
Properties=species:S:1:pos:R:3:forces:R:3 energy=15.33308441721869 pbc="F F F"
V        0.00000000       0.00000000       0.00000000       0.00000000       0.00000000     -72.39524078
V        0.00000000       0.00000000       0.94424242       0.00000000       0.00000000      72.39524078
2
Properties=species:S:1:pos:R:3:forces:R:3 energy=11.012560968133407 pbc="F F F"
V        0.00000000       0.00000000       0.00000000       0.00000000       0.00000000     -74.66485596
V        0.00000000       0.00000000       1.00303030       0.00000000       0.00000000      74.66485596
2
Properties=species:S:1:pos:R:3:forces:R:3 energy=6.6228243947948435 pbc="F F F"
V        0.00000000       0.00000000       0.00000000       0.00000000       0.00000000     -73.34674835
V        0.00000000       0.00000000       1.06181818       0.00000000       0.00000000      73.34674835
2
Properties=species:S:1:pos:R:3:forces:R:3 energy=2.5858422859750654 pbc="F F F"
V        0.00000000       0.00000000       0.00000000       0.00000000       0.00000000     -62.43131638
V        0.00000000       0.00000000       1.12060606       0.00000000       0.00000000      62.43131638
2
Properties=species:S:1:pos:R:3:forces:R:3 energy=-0.6207107980452655 pbc="F F F"
V        0.00000000       0.00000000       0.00000000       0.00000000       0.00000000     -46.75857544
V        0.00000000       0.00000000       1.17939394       0.00000000       0.00000000      46.75857544
2
Properties=species:S:1:pos:R:3:forces:R:3 energy=-3.000936985967862 pbc="F F F"
V        0.00000000       0.00000000       0.00000000       0.00000000       0.00000000     -35.22708511
V        0.00000000       0.00000000       1.23818182       0.00000000       0.00000000      35.22708511
2
Properties=species:S:1:pos:R:3:forces:R:3 energy=-4.852163192705815 pbc="F F F"
V        0.00000000       0.00000000       0.00000000       0.00000000       0.00000000     -28.12800980
V        0.00000000       0.00000000       1.29696970       0.00000000       0.00000000      28.12800980
2
Properties=species:S:1:pos:R:3:forces:R:3 energy=-6.325448906407908 pbc="F F F"
V        0.00000000       0.00000000       0.00000000       0.00000000       0.00000000     -22.16234589
V        0.00000000       0.00000000       1.35575758       0.00000000       0.00000000      22.16234589
2
Properties=species:S:1:pos:R:3:forces:R:3 energy=-7.4953498425538845 pbc="F F F"
V        0.00000000       0.00000000       0.00000000       0.00000000       0.00000000     -17.99687767
V        0.00000000       0.00000000       1.41454545       0.00000000       0.00000000      17.99687767
2
Properties=species:S:1:pos:R:3:forces:R:3 energy=-8.468805114199025 pbc="F F F"
V        0.00000000       0.00000000       0.00000000       0.00000000       0.00000000     -15.19803429
V        0.00000000       0.00000000       1.47333333       0.00000000       0.00000000      15.19803429
2
Properties=species:S:1:pos:R:3:forces:R:3 energy=-9.278902249010427 pbc="F F F"
V        0.00000000       0.00000000       0.00000000       0.00000000       0.00000000     -12.28347874
V        0.00000000       0.00000000       1.53212121       0.00000000       0.00000000      12.28347874
2
Properties=species:S:1:pos:R:3:forces:R:3 energy=-9.90508647636339 pbc="F F F"
V        0.00000000       0.00000000       0.00000000       0.00000000       0.00000000      -8.97653389
V        0.00000000       0.00000000       1.59090909       0.00000000       0.00000000       8.97653389
2
Properties=species:S:1:pos:R:3:forces:R:3 energy=-10.331880330672966 pbc="F F F"
V        0.00000000       0.00000000       0.00000000       0.00000000       0.00000000      -5.54333639
V        0.00000000       0.00000000       1.64969697       0.00000000       0.00000000       5.54333639
2
Properties=species:S:1:pos:R:3:forces:R:3 energy=-10.560417394912216 pbc="F F F"
V        0.00000000       0.00000000       0.00000000       0.00000000       0.00000000      -2.29946017
V        0.00000000       0.00000000       1.70848485       0.00000000       0.00000000       2.29946017
2
Properties=species:S:1:pos:R:3:forces:R:3 energy=-10.61402722648534 pbc="F F F"
V        0.00000000       0.00000000       0.00000000       0.00000000       0.00000000       0.35701516
V        0.00000000       0.00000000       1.76727273       0.00000000       0.00000000      -0.35701516
2
Properties=species:S:1:pos:R:3:forces:R:3 energy=-10.531839922227213 pbc="F F F"
V        0.00000000       0.00000000       0.00000000       0.00000000       0.00000000       2.33870888
V        0.00000000       0.00000000       1.82606061       0.00000000       0.00000000      -2.33870888
2
Properties=species:S:1:pos:R:3:forces:R:3 energy=-10.349358882260288 pbc="F F F"
V        0.00000000       0.00000000       0.00000000       0.00000000       0.00000000       3.78670597
V        0.00000000       0.00000000       1.88484848       0.00000000       0.00000000      -3.78670597
2
Properties=species:S:1:pos:R:3:forces:R:3 energy=-10.097338911867846 pbc="F F F"
V        0.00000000       0.00000000       0.00000000       0.00000000       0.00000000       4.68114996
V        0.00000000       0.00000000       1.94363636       0.00000000       0.00000000      -4.68114996
2
Properties=species:S:1:pos:R:3:forces:R:3 energy=-9.813343933583027 pbc="F F F"
V        0.00000000       0.00000000       0.00000000       0.00000000       0.00000000       4.84688854
V        0.00000000       0.00000000       2.00242424       0.00000000       0.00000000      -4.84688854
2
Properties=species:S:1:pos:R:3:forces:R:3 energy=-9.54291150890053 pbc="F F F"
V        0.00000000       0.00000000       0.00000000       0.00000000       0.00000000       4.23514938
V        0.00000000       0.00000000       2.06121212       0.00000000       0.00000000      -4.23514938
2
Properties=species:S:1:pos:R:3:forces:R:3 energy=-9.326122480305466 pbc="F F F"
V        0.00000000       0.00000000       0.00000000       0.00000000       0.00000000       3.08169818
V        0.00000000       0.00000000       2.12000000       0.00000000       0.00000000      -3.08169818
2
Properties=species:S:1:pos:R:3:forces:R:3 energy=-9.183414862756498 pbc="F F F"
V        0.00000000       0.00000000       0.00000000       0.00000000       0.00000000       1.78049183
V        0.00000000       0.00000000       2.17878788       0.00000000       0.00000000      -1.78049183
2
Properties=species:S:1:pos:R:3:forces:R:3 energy=-9.113154137641684 pbc="F F F"
V        0.00000000       0.00000000       0.00000000       0.00000000       0.00000000       0.65828949
V        0.00000000       0.00000000       2.23757576       0.00000000       0.00000000      -0.65828949
2
Properties=species:S:1:pos:R:3:forces:R:3 energy=-9.099157232316308 pbc="F F F"
V        0.00000000       0.00000000       0.00000000       0.00000000       0.00000000      -0.11805619
V        0.00000000       0.00000000       2.29636364       0.00000000       0.00000000       0.11805619
2
Properties=species:S:1:pos:R:3:forces:R:3 energy=-9.11939188557288 pbc="F F F"
V        0.00000000       0.00000000       0.00000000       0.00000000       0.00000000      -0.50703251
V        0.00000000       0.00000000       2.35515152       0.00000000       0.00000000       0.50703251
2
Properties=species:S:1:pos:R:3:forces:R:3 energy=-9.151961975744493 pbc="F F F"
V        0.00000000       0.00000000       0.00000000       0.00000000       0.00000000      -0.55067670
V        0.00000000       0.00000000       2.41393939       0.00000000       0.00000000       0.55067670
2
Properties=species:S:1:pos:R:3:forces:R:3 energy=-9.179426909178579 pbc="F F F"
V        0.00000000       0.00000000       0.00000000       0.00000000       0.00000000      -0.35499591
V        0.00000000       0.00000000       2.47272727       0.00000000       0.00000000       0.35499591
2
Properties=species:S:1:pos:R:3:forces:R:3 energy=-9.191701578917312 pbc="F F F"
V        0.00000000       0.00000000       0.00000000       0.00000000       0.00000000      -0.05652284
V        0.00000000       0.00000000       2.53151515       0.00000000       0.00000000       0.05652284
2
Properties=species:S:1:pos:R:3:forces:R:3 energy=-9.186360547322863 pbc="F F F"
V        0.00000000       0.00000000       0.00000000       0.00000000       0.00000000       0.22937390
V        0.00000000       0.00000000       2.59030303       0.00000000       0.00000000      -0.22937390
2
Properties=species:S:1:pos:R:3:forces:R:3 energy=-9.166129576087393 pbc="F F F"
V        0.00000000       0.00000000       0.00000000       0.00000000       0.00000000       0.44597900
V        0.00000000       0.00000000       2.64909091       0.00000000       0.00000000      -0.44597900
2
Properties=species:S:1:pos:R:3:forces:R:3 energy=-9.135329534188063 pbc="F F F"
V        0.00000000       0.00000000       0.00000000       0.00000000       0.00000000       0.59162098
V        0.00000000       0.00000000       2.70787879       0.00000000       0.00000000      -0.59162098
2
Properties=species:S:1:pos:R:3:forces:R:3 energy=-9.097545308036585 pbc="F F F"
V        0.00000000       0.00000000       0.00000000       0.00000000       0.00000000       0.68741590
V        0.00000000       0.00000000       2.76666667       0.00000000       0.00000000      -0.68741590
2
Properties=species:S:1:pos:R:3:forces:R:3 energy=-9.055017834490016 pbc="F F F"
V        0.00000000       0.00000000       0.00000000       0.00000000       0.00000000       0.75731593
V        0.00000000       0.00000000       2.82545455       0.00000000       0.00000000      -0.75731593
2
Properties=species:S:1:pos:R:3:forces:R:3 energy=-9.008443817289654 pbc="F F F"
V        0.00000000       0.00000000       0.00000000       0.00000000       0.00000000       0.83001876
V        0.00000000       0.00000000       2.88424242       0.00000000       0.00000000      -0.83001876
2
Properties=species:S:1:pos:R:3:forces:R:3 energy=-8.95700638680037 pbc="F F F"
V        0.00000000       0.00000000       0.00000000       0.00000000       0.00000000       0.92249417
V        0.00000000       0.00000000       2.94303030       0.00000000       0.00000000      -0.92249417
2
Properties=species:S:1:pos:R:3:forces:R:3 energy=-8.900073239467938 pbc="F F F"
V        0.00000000       0.00000000       0.00000000       0.00000000       0.00000000       1.00961781
V        0.00000000       0.00000000       3.00181818       0.00000000       0.00000000      -1.00961781
2
Properties=species:S:1:pos:R:3:forces:R:3 energy=-8.839248080819198 pbc="F F F"
V        0.00000000       0.00000000       0.00000000       0.00000000       0.00000000       1.04968536
V        0.00000000       0.00000000       3.06060606       0.00000000       0.00000000      -1.04968536
2
Properties=species:S:1:pos:R:3:forces:R:3 energy=-8.777801207454402 pbc="F F F"
V        0.00000000       0.00000000       0.00000000       0.00000000       0.00000000       1.03248894
V        0.00000000       0.00000000       3.11939394       0.00000000       0.00000000      -1.03248894
2
Properties=species:S:1:pos:R:3:forces:R:3 energy=-8.718499252418855 pbc="F F F"
V        0.00000000       0.00000000       0.00000000       0.00000000       0.00000000       0.98274416
V        0.00000000       0.00000000       3.17818182       0.00000000       0.00000000      -0.98274416
2
Properties=species:S:1:pos:R:3:forces:R:3 energy=-8.662116685874762 pbc="F F F"
V        0.00000000       0.00000000       0.00000000       0.00000000       0.00000000       0.93985540
V        0.00000000       0.00000000       3.23696970       0.00000000       0.00000000      -0.93985540
2
Properties=species:S:1:pos:R:3:forces:R:3 energy=-8.607187655526154 pbc="F F F"
V        0.00000000       0.00000000       0.00000000       0.00000000       0.00000000       0.93740839
V        0.00000000       0.00000000       3.29575758       0.00000000       0.00000000      -0.93740839
2
Properties=species:S:1:pos:R:3:forces:R:3 energy=-8.550854831668033 pbc="F F F"
V        0.00000000       0.00000000       0.00000000       0.00000000       0.00000000       0.98739612
V        0.00000000       0.00000000       3.35454545       0.00000000       0.00000000      -0.98739612
2
Properties=species:S:1:pos:R:3:forces:R:3 energy=-8.490330721807457 pbc="F F F"
V        0.00000000       0.00000000       0.00000000       0.00000000       0.00000000       1.07576418
V        0.00000000       0.00000000       3.41333333       0.00000000       0.00000000      -1.07576418
2
Properties=species:S:1:pos:R:3:forces:R:3 energy=-8.424225438359693 pbc="F F F"
V        0.00000000       0.00000000       0.00000000       0.00000000       0.00000000       1.17146981
V        0.00000000       0.00000000       3.47212121       0.00000000       0.00000000      -1.17146981
2
Properties=species:S:1:pos:R:3:forces:R:3 energy=-8.353083583372236 pbc="F F F"
V        0.00000000       0.00000000       0.00000000       0.00000000       0.00000000       1.24264264
V        0.00000000       0.00000000       3.53090909       0.00000000       0.00000000      -1.24264264
2
Properties=species:S:1:pos:R:3:forces:R:3 energy=-8.278993722924646 pbc="F F F"
V        0.00000000       0.00000000       0.00000000       0.00000000       0.00000000       1.26992023
V        0.00000000       0.00000000       3.58969697       0.00000000       0.00000000      -1.26992023
2
Properties=species:S:1:pos:R:3:forces:R:3 energy=-8.204691727202846 pbc="F F F"
V        0.00000000       0.00000000       0.00000000       0.00000000       0.00000000       1.25068688
V        0.00000000       0.00000000       3.64848485       0.00000000       0.00000000      -1.25068688
2
Properties=species:S:1:pos:R:3:forces:R:3 energy=-8.132663473681294 pbc="F F F"
V        0.00000000       0.00000000       0.00000000       0.00000000       0.00000000       1.19488251
V        0.00000000       0.00000000       3.70727273       0.00000000       0.00000000      -1.19488251
2
Properties=species:S:1:pos:R:3:forces:R:3 energy=-8.064620790414844 pbc="F F F"
V        0.00000000       0.00000000       0.00000000       0.00000000       0.00000000       1.11768305
V        0.00000000       0.00000000       3.76606061       0.00000000       0.00000000      -1.11768305
2
Properties=species:S:1:pos:R:3:forces:R:3 energy=-8.001380352071843 pbc="F F F"
V        0.00000000       0.00000000       0.00000000       0.00000000       0.00000000       1.03375316
V        0.00000000       0.00000000       3.82484848       0.00000000       0.00000000      -1.03375316
2
Properties=species:S:1:pos:R:3:forces:R:3 energy=-7.942983822227233 pbc="F F F"
V        0.00000000       0.00000000       0.00000000       0.00000000       0.00000000       0.95439190
V        0.00000000       0.00000000       3.88363636       0.00000000       0.00000000      -0.95439190
2
Properties=species:S:1:pos:R:3:forces:R:3 energy=-7.888935376951966 pbc="F F F"
V        0.00000000       0.00000000       0.00000000       0.00000000       0.00000000       0.88672131
V        0.00000000       0.00000000       3.94242424       0.00000000       0.00000000      -0.88672131
2
Properties=species:S:1:pos:R:3:forces:R:3 energy=-7.838434418689307 pbc="F F F"
V        0.00000000       0.00000000       0.00000000       0.00000000       0.00000000       0.83391815
V        0.00000000       0.00000000       4.00121212       0.00000000       0.00000000      -0.83391815
2
Properties=species:S:1:pos:R:3:forces:R:3 energy=-7.79059560258922 pbc="F F F"
V        0.00000000       0.00000000       0.00000000       0.00000000       0.00000000       0.79588109
V        0.00000000       0.00000000       4.06000000       0.00000000       0.00000000      -0.79588109
2
Properties=species:S:1:pos:R:3:forces:R:3 energy=-7.744618557194633 pbc="F F F"
V        0.00000000       0.00000000       0.00000000       0.00000000       0.00000000       0.77002013
V        0.00000000       0.00000000       4.11878788       0.00000000       0.00000000      -0.77002013
2
Properties=species:S:1:pos:R:3:forces:R:3 energy=-7.699904909277833 pbc="F F F"
V        0.00000000       0.00000000       0.00000000       0.00000000       0.00000000       0.75203007
V        0.00000000       0.00000000       4.17757576       0.00000000       0.00000000      -0.75203007
2
Properties=species:S:1:pos:R:3:forces:R:3 energy=-7.656145085546369 pbc="F F F"
V        0.00000000       0.00000000       0.00000000       0.00000000       0.00000000       0.73670077
V        0.00000000       0.00000000       4.23636364       0.00000000       0.00000000      -0.73670077
2
Properties=species:S:1:pos:R:3:forces:R:3 energy=-7.613336662202084 pbc="F F F"
V        0.00000000       0.00000000       0.00000000       0.00000000       0.00000000       0.71881783
V        0.00000000       0.00000000       4.29515152       0.00000000       0.00000000      -0.71881783
2
Properties=species:S:1:pos:R:3:forces:R:3 energy=-7.571764700576037 pbc="F F F"
V        0.00000000       0.00000000       0.00000000       0.00000000       0.00000000       0.69413477
V        0.00000000       0.00000000       4.35393939       0.00000000       0.00000000      -0.69413477
2
Properties=species:S:1:pos:R:3:forces:R:3 energy=-7.531907837214749 pbc="F F F"
V        0.00000000       0.00000000       0.00000000       0.00000000       0.00000000       0.66016561
V        0.00000000       0.00000000       4.41272727       0.00000000       0.00000000      -0.66016561
2
Properties=species:S:1:pos:R:3:forces:R:3 energy=-7.494332590757833 pbc="F F F"
V        0.00000000       0.00000000       0.00000000       0.00000000       0.00000000       0.61667728
V        0.00000000       0.00000000       4.47151515       0.00000000       0.00000000      -0.61667728
2
Properties=species:S:1:pos:R:3:forces:R:3 energy=-7.459550909668768 pbc="F F F"
V        0.00000000       0.00000000       0.00000000       0.00000000       0.00000000       0.56559491
V        0.00000000       0.00000000       4.53030303       0.00000000       0.00000000      -0.56559491
2
Properties=species:S:1:pos:R:3:forces:R:3 energy=-7.427912706476265 pbc="F F F"
V        0.00000000       0.00000000       0.00000000       0.00000000       0.00000000       0.51042402
V        0.00000000       0.00000000       4.58909091       0.00000000       0.00000000      -0.51042402
2
Properties=species:S:1:pos:R:3:forces:R:3 energy=-7.399537804773009 pbc="F F F"
V        0.00000000       0.00000000       0.00000000       0.00000000       0.00000000       0.45524207
V        0.00000000       0.00000000       4.64787879       0.00000000       0.00000000      -0.45524207
2
Properties=species:S:1:pos:R:3:forces:R:3 energy=-7.374316416052817 pbc="F F F"
V        0.00000000       0.00000000       0.00000000       0.00000000       0.00000000       0.40361962
V        0.00000000       0.00000000       4.70666667       0.00000000       0.00000000      -0.40361962
2
Properties=species:S:1:pos:R:3:forces:R:3 energy=-7.351966959047861 pbc="F F F"
V        0.00000000       0.00000000       0.00000000       0.00000000       0.00000000       0.35778880
V        0.00000000       0.00000000       4.76545455       0.00000000       0.00000000      -0.35778880
2
Properties=species:S:1:pos:R:3:forces:R:3 energy=-7.332126156608984 pbc="F F F"
V        0.00000000       0.00000000       0.00000000       0.00000000       0.00000000       0.31816608
V        0.00000000       0.00000000       4.82424242       0.00000000       0.00000000      -0.31816608
2
Properties=species:S:1:pos:R:3:forces:R:3 energy=-7.314464214886089 pbc="F F F"
V        0.00000000       0.00000000       0.00000000       0.00000000       0.00000000       0.28333646
V        0.00000000       0.00000000       4.88303030       0.00000000       0.00000000      -0.28333646
2
Properties=species:S:1:pos:R:3:forces:R:3 energy=-7.298774837845079 pbc="F F F"
V        0.00000000       0.00000000       0.00000000       0.00000000       0.00000000       0.25043920
V        0.00000000       0.00000000       4.94181818       0.00000000       0.00000000      -0.25043920
2
Properties=species:S:1:pos:R:3:forces:R:3 energy=-7.285047175825772 pbc="F F F"
V        0.00000000       0.00000000       0.00000000       0.00000000       0.00000000       0.21604505
V        0.00000000       0.00000000       5.00060606       0.00000000       0.00000000      -0.21604505
2
Properties=species:S:1:pos:R:3:forces:R:3 energy=-7.2734549279793494 pbc="F F F"
V        0.00000000       0.00000000       0.00000000       0.00000000       0.00000000       0.17754260
V        0.00000000       0.00000000       5.05939394       0.00000000       0.00000000      -0.17754260
2
Properties=species:S:1:pos:R:3:forces:R:3 energy=-7.264254573213039 pbc="F F F"
V        0.00000000       0.00000000       0.00000000       0.00000000       0.00000000       0.13499598
V        0.00000000       0.00000000       5.11818182       0.00000000       0.00000000      -0.13499598
2
Properties=species:S:1:pos:R:3:forces:R:3 energy=-7.257580479099733 pbc="F F F"
V        0.00000000       0.00000000       0.00000000       0.00000000       0.00000000       0.09272302
V        0.00000000       0.00000000       5.17696970       0.00000000       0.00000000      -0.09272302
2
Properties=species:S:1:pos:R:3:forces:R:3 energy=-7.253185022458942 pbc="F F F"
V        0.00000000       0.00000000       0.00000000       0.00000000       0.00000000       0.05903747
V        0.00000000       0.00000000       5.23575758       0.00000000       0.00000000      -0.05903747
2
Properties=species:S:1:pos:R:3:forces:R:3 energy=-7.25030849517598 pbc="F F F"
V        0.00000000       0.00000000       0.00000000       0.00000000       0.00000000       0.04187234
V        0.00000000       0.00000000       5.29454545       0.00000000       0.00000000      -0.04187234
2
Properties=species:S:1:pos:R:3:forces:R:3 energy=-7.247980051805239 pbc="F F F"
V        0.00000000       0.00000000       0.00000000       0.00000000       0.00000000       0.03824488
V        0.00000000       0.00000000       5.35333333       0.00000000       0.00000000      -0.03824488
2
Properties=species:S:1:pos:R:3:forces:R:3 energy=-7.246010500372674 pbc="F F F"
V        0.00000000       0.00000000       0.00000000       0.00000000       0.00000000       0.02445087
V        0.00000000       0.00000000       5.41212121       0.00000000       0.00000000      -0.02445087
2
Properties=species:S:1:pos:R:3:forces:R:3 energy=-7.245656720270864 pbc="F F F"
V        0.00000000       0.00000000       0.00000000       0.00000000       0.00000000      -0.01464539
V        0.00000000       0.00000000       5.47090909       0.00000000       0.00000000       0.01464539
2
Properties=species:S:1:pos:R:3:forces:R:3 energy=-7.247378175107892 pbc="F F F"
V        0.00000000       0.00000000       0.00000000       0.00000000       0.00000000      -0.03662653
V        0.00000000       0.00000000       5.52969697       0.00000000       0.00000000       0.03662653
2
Properties=species:S:1:pos:R:3:forces:R:3 energy=-7.249123681147428 pbc="F F F"
V        0.00000000       0.00000000       0.00000000       0.00000000       0.00000000      -0.01840074
V        0.00000000       0.00000000       5.58848485       0.00000000       0.00000000       0.01840074
2
Properties=species:S:1:pos:R:3:forces:R:3 energy=-7.249512117062384 pbc="F F F"
V        0.00000000       0.00000000       0.00000000       0.00000000       0.00000000       0.00176419
V        0.00000000       0.00000000       5.64727273       0.00000000       0.00000000      -0.00176419
2
Properties=species:S:1:pos:R:3:forces:R:3 energy=-7.249517992604008 pbc="F F F"
V        0.00000000       0.00000000       0.00000000       0.00000000       0.00000000      -0.00645011
V        0.00000000       0.00000000       5.70606061       0.00000000       0.00000000       0.00645011
2
Properties=species:S:1:pos:R:3:forces:R:3 energy=-7.250239959991357 pbc="F F F"
V        0.00000000       0.00000000       0.00000000       0.00000000       0.00000000      -0.01196276
V        0.00000000       0.00000000       5.76484848       0.00000000       0.00000000       0.01196276
2
Properties=species:S:1:pos:R:3:forces:R:3 energy=-7.25007142218954 pbc="F F F"
V        0.00000000       0.00000000       0.00000000       0.00000000       0.00000000       0.02136726
V        0.00000000       0.00000000       5.82363636       0.00000000       0.00000000      -0.02136726
2
Properties=species:S:1:pos:R:3:forces:R:3 energy=-7.248038296398563 pbc="F F F"
V        0.00000000       0.00000000       0.00000000       0.00000000       0.00000000       0.04108076
V        0.00000000       0.00000000       5.88242424       0.00000000       0.00000000      -0.04108076
2
Properties=species:S:1:pos:R:3:forces:R:3 energy=-7.245905835841552 pbc="F F F"
V        0.00000000       0.00000000       0.00000000       0.00000000       0.00000000       0.02871624
V        0.00000000       0.00000000       5.94121212       0.00000000       0.00000000      -0.02871624
2
Properties=species:S:1:pos:R:3:forces:R:3 energy=-7.2445828324329735 pbc="F F F"
V        0.00000000       0.00000000       0.00000000       0.00000000       0.00000000       0.01901128
V        0.00000000       0.00000000       6.00000000       0.00000000       0.00000000      -0.01901128
