2
Properties=species:S:1:pos:R:3:forces:R:3 energy=14929.963312732702 pbc="F F F"
W        0.00000000       0.00000000       0.00000000       0.00000000       0.00000000 -259538.14062500
W        0.00000000       0.00000000       0.18000000       0.00000000       0.00000000  259538.14062500
2
Properties=species:S:1:pos:R:3:forces:R:3 energy=5864.3339182014515 pbc="F F F"
W        0.00000000       0.00000000       0.00000000       0.00000000       0.00000000  -85722.57812500
W        0.00000000       0.00000000       0.23878788       0.00000000       0.00000000   85722.57812500
2
Properties=species:S:1:pos:R:3:forces:R:3 energy=2637.7499338296193 pbc="F F F"
W        0.00000000       0.00000000       0.00000000       0.00000000       0.00000000  -33310.07812500
W        0.00000000       0.00000000       0.29757576       0.00000000       0.00000000   33310.07812500
2
Properties=species:S:1:pos:R:3:forces:R:3 energy=1324.261286368682 pbc="F F F"
W        0.00000000       0.00000000       0.00000000       0.00000000       0.00000000  -14324.24707031
W        0.00000000       0.00000000       0.35636364       0.00000000       0.00000000   14324.24707031
2
Properties=species:S:1:pos:R:3:forces:R:3 energy=740.2401682077873 pbc="F F F"
W        0.00000000       0.00000000       0.00000000       0.00000000       0.00000000   -6630.97119141
W        0.00000000       0.00000000       0.41515152       0.00000000       0.00000000    6630.97119141
2
Properties=species:S:1:pos:R:3:forces:R:3 energy=462.2673898906427 pbc="F F F"
W        0.00000000       0.00000000       0.00000000       0.00000000       0.00000000   -3266.13208008
W        0.00000000       0.00000000       0.47393939       0.00000000       0.00000000    3266.13208008
2
Properties=species:S:1:pos:R:3:forces:R:3 energy=321.7220407822202 pbc="F F F"
W        0.00000000       0.00000000       0.00000000       0.00000000       0.00000000   -1706.47094727
W        0.00000000       0.00000000       0.53272727       0.00000000       0.00000000    1706.47094727
2
Properties=species:S:1:pos:R:3:forces:R:3 energy=246.233729033649 pbc="F F F"
W        0.00000000       0.00000000       0.00000000       0.00000000       0.00000000    -949.73089600
W        0.00000000       0.00000000       0.59151515       0.00000000       0.00000000     949.73089600
2
Properties=species:S:1:pos:R:3:forces:R:3 energy=202.76308697548347 pbc="F F F"
W        0.00000000       0.00000000       0.00000000       0.00000000       0.00000000    -572.33148193
W        0.00000000       0.00000000       0.65030303       0.00000000       0.00000000     572.33148193
2
Properties=species:S:1:pos:R:3:forces:R:3 energy=175.25126145830956 pbc="F F F"
W        0.00000000       0.00000000       0.00000000       0.00000000       0.00000000    -386.32147217
W        0.00000000       0.00000000       0.70909091       0.00000000       0.00000000     386.32147217
2
Properties=species:S:1:pos:R:3:forces:R:3 energy=155.32952386027102 pbc="F F F"
W        0.00000000       0.00000000       0.00000000       0.00000000       0.00000000    -304.38296509
W        0.00000000       0.00000000       0.76787879       0.00000000       0.00000000     304.38296509
2
Properties=species:S:1:pos:R:3:forces:R:3 energy=138.2506970636801 pbc="F F F"
W        0.00000000       0.00000000       0.00000000       0.00000000       0.00000000    -284.90847778
W        0.00000000       0.00000000       0.82666667       0.00000000       0.00000000     284.90847778
2
Properties=species:S:1:pos:R:3:forces:R:3 energy=121.1228209371651 pbc="F F F"
W        0.00000000       0.00000000       0.00000000       0.00000000       0.00000000    -300.73565674
W        0.00000000       0.00000000       0.88545455       0.00000000       0.00000000     300.73565674
2
Properties=species:S:1:pos:R:3:forces:R:3 energy=102.98585063255747 pbc="F F F"
W        0.00000000       0.00000000       0.00000000       0.00000000       0.00000000    -312.45675659
W        0.00000000       0.00000000       0.94424242       0.00000000       0.00000000     312.45675659
2
Properties=species:S:1:pos:R:3:forces:R:3 energy=84.9411350489851 pbc="F F F"
W        0.00000000       0.00000000       0.00000000       0.00000000       0.00000000    -297.67486572
W        0.00000000       0.00000000       1.00303030       0.00000000       0.00000000     297.67486572
2
Properties=species:S:1:pos:R:3:forces:R:3 energy=68.13027576795491 pbc="F F F"
W        0.00000000       0.00000000       0.00000000       0.00000000       0.00000000    -274.81216431
W        0.00000000       0.00000000       1.06181818       0.00000000       0.00000000     274.81216431
2
Properties=species:S:1:pos:R:3:forces:R:3 energy=52.54483089609629 pbc="F F F"
W        0.00000000       0.00000000       0.00000000       0.00000000       0.00000000    -254.85597229
W        0.00000000       0.00000000       1.12060606       0.00000000       0.00000000     254.85597229
2
Properties=species:S:1:pos:R:3:forces:R:3 energy=38.40117772338826 pbc="F F F"
W        0.00000000       0.00000000       0.00000000       0.00000000       0.00000000    -224.52635193
W        0.00000000       0.00000000       1.17939394       0.00000000       0.00000000     224.52635193
2
Properties=species:S:1:pos:R:3:forces:R:3 energy=26.26705005249311 pbc="F F F"
W        0.00000000       0.00000000       0.00000000       0.00000000       0.00000000    -188.04551697
W        0.00000000       0.00000000       1.23818182       0.00000000       0.00000000     188.04551697
2
Properties=species:S:1:pos:R:3:forces:R:3 energy=16.231036648695607 pbc="F F F"
W        0.00000000       0.00000000       0.00000000       0.00000000       0.00000000    -153.52587891
W        0.00000000       0.00000000       1.29696970       0.00000000       0.00000000     153.52587891
2
Properties=species:S:1:pos:R:3:forces:R:3 energy=8.397754681516354 pbc="F F F"
W        0.00000000       0.00000000       0.00000000       0.00000000       0.00000000    -111.63495636
W        0.00000000       0.00000000       1.35575758       0.00000000       0.00000000     111.63495636
2
Properties=species:S:1:pos:R:3:forces:R:3 energy=2.949565817094996 pbc="F F F"
W        0.00000000       0.00000000       0.00000000       0.00000000       0.00000000     -77.09027100
W        0.00000000       0.00000000       1.41454545       0.00000000       0.00000000      77.09027100
2
Properties=species:S:1:pos:R:3:forces:R:3 energy=-1.0332438425397563 pbc="F F F"
W        0.00000000       0.00000000       0.00000000       0.00000000       0.00000000     -60.26169586
W        0.00000000       0.00000000       1.47333333       0.00000000       0.00000000      60.26169586
2
Properties=species:S:1:pos:R:3:forces:R:3 energy=-4.214480179801237 pbc="F F F"
W        0.00000000       0.00000000       0.00000000       0.00000000       0.00000000     -48.03677368
W        0.00000000       0.00000000       1.53212121       0.00000000       0.00000000      48.03677368
2
Properties=species:S:1:pos:R:3:forces:R:3 energy=-6.693243203066354 pbc="F F F"
W        0.00000000       0.00000000       0.00000000       0.00000000       0.00000000     -36.58475494
W        0.00000000       0.00000000       1.59090909       0.00000000       0.00000000      36.58475494
2
Properties=species:S:1:pos:R:3:forces:R:3 energy=-8.577223622122025 pbc="F F F"
W        0.00000000       0.00000000       0.00000000       0.00000000       0.00000000     -28.19894028
W        0.00000000       0.00000000       1.64969697       0.00000000       0.00000000      28.19894028
2
Properties=species:S:1:pos:R:3:forces:R:3 energy=-10.08657130415185 pbc="F F F"
W        0.00000000       0.00000000       0.00000000       0.00000000       0.00000000     -23.64332581
W        0.00000000       0.00000000       1.70848485       0.00000000       0.00000000      23.64332581
2
Properties=species:S:1:pos:R:3:forces:R:3 energy=-11.383722629908224 pbc="F F F"
W        0.00000000       0.00000000       0.00000000       0.00000000       0.00000000     -20.46943855
W        0.00000000       0.00000000       1.76727273       0.00000000       0.00000000      20.46943855
2
Properties=species:S:1:pos:R:3:forces:R:3 energy=-12.476078929544423 pbc="F F F"
W        0.00000000       0.00000000       0.00000000       0.00000000       0.00000000     -16.50586128
W        0.00000000       0.00000000       1.82606061       0.00000000       0.00000000      16.50586128
2
Properties=species:S:1:pos:R:3:forces:R:3 energy=-13.308939243914066 pbc="F F F"
W        0.00000000       0.00000000       0.00000000       0.00000000       0.00000000     -11.78358364
W        0.00000000       0.00000000       1.88484848       0.00000000       0.00000000      11.78358364
2
Properties=species:S:1:pos:R:3:forces:R:3 energy=-13.866614676837953 pbc="F F F"
W        0.00000000       0.00000000       0.00000000       0.00000000       0.00000000      -7.30207968
W        0.00000000       0.00000000       1.94363636       0.00000000       0.00000000       7.30207968
2
Properties=species:S:1:pos:R:3:forces:R:3 energy=-14.18488431951154 pbc="F F F"
W        0.00000000       0.00000000       0.00000000       0.00000000       0.00000000      -3.68698144
W        0.00000000       0.00000000       2.00242424       0.00000000       0.00000000       3.68698144
2
Properties=species:S:1:pos:R:3:forces:R:3 energy=-14.318065094939156 pbc="F F F"
W        0.00000000       0.00000000       0.00000000       0.00000000       0.00000000      -0.98056155
W        0.00000000       0.00000000       2.06121212       0.00000000       0.00000000       0.98056155
2
Properties=species:S:1:pos:R:3:forces:R:3 energy=-14.31401894817248 pbc="F F F"
W        0.00000000       0.00000000       0.00000000       0.00000000       0.00000000       1.01795363
W        0.00000000       0.00000000       2.12000000       0.00000000       0.00000000      -1.01795363
2
Properties=species:S:1:pos:R:3:forces:R:3 energy=-14.208633308820682 pbc="F F F"
W        0.00000000       0.00000000       0.00000000       0.00000000       0.00000000       2.49040580
W        0.00000000       0.00000000       2.17878788       0.00000000       0.00000000      -2.49040580
2
Properties=species:S:1:pos:R:3:forces:R:3 energy=-14.029389331533503 pbc="F F F"
W        0.00000000       0.00000000       0.00000000       0.00000000       0.00000000       3.54437876
W        0.00000000       0.00000000       2.23757576       0.00000000       0.00000000      -3.54437876
2
Properties=species:S:1:pos:R:3:forces:R:3 energy=-13.798646926890598 pbc="F F F"
W        0.00000000       0.00000000       0.00000000       0.00000000       0.00000000       4.25412083
W        0.00000000       0.00000000       2.29636364       0.00000000       0.00000000      -4.25412083
2
Properties=species:S:1:pos:R:3:forces:R:3 energy=-13.534602395975176 pbc="F F F"
W        0.00000000       0.00000000       0.00000000       0.00000000       0.00000000       4.68828249
W        0.00000000       0.00000000       2.35515152       0.00000000       0.00000000      -4.68828249
2
Properties=species:S:1:pos:R:3:forces:R:3 energy=-13.251570128437027 pbc="F F F"
W        0.00000000       0.00000000       0.00000000       0.00000000       0.00000000       4.91035509
W        0.00000000       0.00000000       2.41393939       0.00000000       0.00000000      -4.91035509
2
Properties=species:S:1:pos:R:3:forces:R:3 energy=-12.960196339261305 pbc="F F F"
W        0.00000000       0.00000000       0.00000000       0.00000000       0.00000000       4.98317909
W        0.00000000       0.00000000       2.47272727       0.00000000       0.00000000      -4.98317909
2
Properties=species:S:1:pos:R:3:forces:R:3 energy=-12.667170786212717 pbc="F F F"
W        0.00000000       0.00000000       0.00000000       0.00000000       0.00000000       4.97920465
W        0.00000000       0.00000000       2.53151515       0.00000000       0.00000000      -4.97920465
2
Properties=species:S:1:pos:R:3:forces:R:3 energy=-12.374963279484264 pbc="F F F"
W        0.00000000       0.00000000       0.00000000       0.00000000       0.00000000       4.96301794
W        0.00000000       0.00000000       2.59030303       0.00000000       0.00000000      -4.96301794
2
Properties=species:S:1:pos:R:3:forces:R:3 energy=-12.083668869797696 pbc="F F F"
W        0.00000000       0.00000000       0.00000000       0.00000000       0.00000000       4.94253063
W        0.00000000       0.00000000       2.64909091       0.00000000       0.00000000      -4.94253063
2
Properties=species:S:1:pos:R:3:forces:R:3 energy=-11.795196113248762 pbc="F F F"
W        0.00000000       0.00000000       0.00000000       0.00000000       0.00000000       4.85246134
W        0.00000000       0.00000000       2.70787879       0.00000000       0.00000000      -4.85246134
2
Properties=species:S:1:pos:R:3:forces:R:3 energy=-11.516036099465603 pbc="F F F"
W        0.00000000       0.00000000       0.00000000       0.00000000       0.00000000       4.61726618
W        0.00000000       0.00000000       2.76666667       0.00000000       0.00000000      -4.61726618
2
Properties=species:S:1:pos:R:3:forces:R:3 energy=-11.255295924541517 pbc="F F F"
W        0.00000000       0.00000000       0.00000000       0.00000000       0.00000000       4.23293734
W        0.00000000       0.00000000       2.82545455       0.00000000       0.00000000      -4.23293734
2
Properties=species:S:1:pos:R:3:forces:R:3 energy=-11.019837925793063 pbc="F F F"
W        0.00000000       0.00000000       0.00000000       0.00000000       0.00000000       3.77281070
W        0.00000000       0.00000000       2.88424242       0.00000000       0.00000000      -3.77281070
2
Properties=species:S:1:pos:R:3:forces:R:3 energy=-10.811477079221042 pbc="F F F"
W        0.00000000       0.00000000       0.00000000       0.00000000       0.00000000       3.32264662
W        0.00000000       0.00000000       2.94303030       0.00000000       0.00000000      -3.32264662
2
Properties=species:S:1:pos:R:3:forces:R:3 energy=-10.62811216151135 pbc="F F F"
W        0.00000000       0.00000000       0.00000000       0.00000000       0.00000000       2.92499042
W        0.00000000       0.00000000       3.00181818       0.00000000       0.00000000      -2.92499042
2
Properties=species:S:1:pos:R:3:forces:R:3 energy=-10.466613408743292 pbc="F F F"
W        0.00000000       0.00000000       0.00000000       0.00000000       0.00000000       2.57555366
W        0.00000000       0.00000000       3.06060606       0.00000000       0.00000000      -2.57555366
2
Properties=species:S:1:pos:R:3:forces:R:3 energy=-10.324775312661789 pbc="F F F"
W        0.00000000       0.00000000       0.00000000       0.00000000       0.00000000       2.25283623
W        0.00000000       0.00000000       3.11939394       0.00000000       0.00000000      -2.25283623
2
Properties=species:S:1:pos:R:3:forces:R:3 energy=-10.201461996629465 pbc="F F F"
W        0.00000000       0.00000000       0.00000000       0.00000000       0.00000000       1.94473457
W        0.00000000       0.00000000       3.17818182       0.00000000       0.00000000      -1.94473457
2
Properties=species:S:1:pos:R:3:forces:R:3 energy=-10.095721387575873 pbc="F F F"
W        0.00000000       0.00000000       0.00000000       0.00000000       0.00000000       1.65739703
W        0.00000000       0.00000000       3.23696970       0.00000000       0.00000000      -1.65739703
2
Properties=species:S:1:pos:R:3:forces:R:3 energy=-10.00583961779688 pbc="F F F"
W        0.00000000       0.00000000       0.00000000       0.00000000       0.00000000       1.40835512
W        0.00000000       0.00000000       3.29575758       0.00000000       0.00000000      -1.40835512
2
Properties=species:S:1:pos:R:3:forces:R:3 energy=-9.929110179809909 pbc="F F F"
W        0.00000000       0.00000000       0.00000000       0.00000000       0.00000000       1.21087706
W        0.00000000       0.00000000       3.35454545       0.00000000       0.00000000      -1.21087706
2
Properties=species:S:1:pos:R:3:forces:R:3 energy=-9.862511502328582 pbc="F F F"
W        0.00000000       0.00000000       0.00000000       0.00000000       0.00000000       1.06168711
W        0.00000000       0.00000000       3.41333333       0.00000000       0.00000000      -1.06168711
2
Properties=species:S:1:pos:R:3:forces:R:3 energy=-9.803693630147263 pbc="F F F"
W        0.00000000       0.00000000       0.00000000       0.00000000       0.00000000       0.94244981
W        0.00000000       0.00000000       3.47212121       0.00000000       0.00000000      -0.94244981
2
Properties=species:S:1:pos:R:3:forces:R:3 energy=-9.75151155220006 pbc="F F F"
W        0.00000000       0.00000000       0.00000000       0.00000000       0.00000000       0.83338726
W        0.00000000       0.00000000       3.53090909       0.00000000       0.00000000      -0.83338726
2
Properties=species:S:1:pos:R:3:forces:R:3 energy=-9.705678859073153 pbc="F F F"
W        0.00000000       0.00000000       0.00000000       0.00000000       0.00000000       0.72631139
W        0.00000000       0.00000000       3.58969697       0.00000000       0.00000000      -0.72631139
2
Properties=species:S:1:pos:R:3:forces:R:3 energy=-9.665977596827238 pbc="F F F"
W        0.00000000       0.00000000       0.00000000       0.00000000       0.00000000       0.62636650
W        0.00000000       0.00000000       3.64848485       0.00000000       0.00000000      -0.62636650
2
Properties=species:S:1:pos:R:3:forces:R:3 energy=-9.631691936509053 pbc="F F F"
W        0.00000000       0.00000000       0.00000000       0.00000000       0.00000000       0.54369247
W        0.00000000       0.00000000       3.70727273       0.00000000       0.00000000      -0.54369247
2
Properties=species:S:1:pos:R:3:forces:R:3 energy=-9.60158923054575 pbc="F F F"
W        0.00000000       0.00000000       0.00000000       0.00000000       0.00000000       0.48439994
W        0.00000000       0.00000000       3.76606061       0.00000000       0.00000000      -0.48439994
2
Properties=species:S:1:pos:R:3:forces:R:3 energy=-9.574302474159648 pbc="F F F"
W        0.00000000       0.00000000       0.00000000       0.00000000       0.00000000       0.44713259
W        0.00000000       0.00000000       3.82484848       0.00000000       0.00000000      -0.44713259
2
Properties=species:S:1:pos:R:3:forces:R:3 energy=-9.548722227498398 pbc="F F F"
W        0.00000000       0.00000000       0.00000000       0.00000000       0.00000000       0.42485636
W        0.00000000       0.00000000       3.88363636       0.00000000       0.00000000      -0.42485636
2
Properties=species:S:1:pos:R:3:forces:R:3 energy=-9.524230402058869 pbc="F F F"
W        0.00000000       0.00000000       0.00000000       0.00000000       0.00000000       0.40873706
W        0.00000000       0.00000000       3.94242424       0.00000000       0.00000000      -0.40873706
2
Properties=species:S:1:pos:R:3:forces:R:3 energy=-9.500689713248855 pbc="F F F"
W        0.00000000       0.00000000       0.00000000       0.00000000       0.00000000       0.39150155
W        0.00000000       0.00000000       4.00121212       0.00000000       0.00000000      -0.39150155
2
Properties=species:S:1:pos:R:3:forces:R:3 energy=-9.478299770599975 pbc="F F F"
W        0.00000000       0.00000000       0.00000000       0.00000000       0.00000000       0.36922422
W        0.00000000       0.00000000       4.06000000       0.00000000       0.00000000      -0.36922422
2
Properties=species:S:1:pos:R:3:forces:R:3 energy=-9.45738822309237 pbc="F F F"
W        0.00000000       0.00000000       0.00000000       0.00000000       0.00000000       0.34138602
W        0.00000000       0.00000000       4.11878788       0.00000000       0.00000000      -0.34138602
2
Properties=species:S:1:pos:R:3:forces:R:3 energy=-9.438233401074434 pbc="F F F"
W        0.00000000       0.00000000       0.00000000       0.00000000       0.00000000       0.30988729
W        0.00000000       0.00000000       4.17757576       0.00000000       0.00000000      -0.30988729
2
Properties=species:S:1:pos:R:3:forces:R:3 energy=-9.420961379625263 pbc="F F F"
W        0.00000000       0.00000000       0.00000000       0.00000000       0.00000000       0.27795178
W        0.00000000       0.00000000       4.23636364       0.00000000       0.00000000      -0.27795178
2
Properties=species:S:1:pos:R:3:forces:R:3 energy=-9.40548587173014 pbc="F F F"
W        0.00000000       0.00000000       0.00000000       0.00000000       0.00000000       0.24943525
W        0.00000000       0.00000000       4.29515152       0.00000000       0.00000000      -0.24943525
2
Properties=species:S:1:pos:R:3:forces:R:3 energy=-9.391487367822817 pbc="F F F"
W        0.00000000       0.00000000       0.00000000       0.00000000       0.00000000       0.22844532
W        0.00000000       0.00000000       4.35393939       0.00000000       0.00000000      -0.22844532
2
Properties=species:S:1:pos:R:3:forces:R:3 energy=-9.378404441842902 pbc="F F F"
W        0.00000000       0.00000000       0.00000000       0.00000000       0.00000000       0.21878907
W        0.00000000       0.00000000       4.41272727       0.00000000       0.00000000      -0.21878907
2
Properties=species:S:1:pos:R:3:forces:R:3 energy=-9.365487207682714 pbc="F F F"
W        0.00000000       0.00000000       0.00000000       0.00000000       0.00000000       0.22308879
W        0.00000000       0.00000000       4.47151515       0.00000000       0.00000000      -0.22308879
2
Properties=species:S:1:pos:R:3:forces:R:3 energy=-9.351892753143204 pbc="F F F"
W        0.00000000       0.00000000       0.00000000       0.00000000       0.00000000       0.24162245
W        0.00000000       0.00000000       4.53030303       0.00000000       0.00000000      -0.24162245
2
Properties=species:S:1:pos:R:3:forces:R:3 energy=-9.336855758937563 pbc="F F F"
W        0.00000000       0.00000000       0.00000000       0.00000000       0.00000000       0.27139580
W        0.00000000       0.00000000       4.58909091       0.00000000       0.00000000      -0.27139580
2
Properties=species:S:1:pos:R:3:forces:R:3 energy=-9.319888773465497 pbc="F F F"
W        0.00000000       0.00000000       0.00000000       0.00000000       0.00000000       0.30594209
W        0.00000000       0.00000000       4.64787879       0.00000000       0.00000000      -0.30594209
2
Properties=species:S:1:pos:R:3:forces:R:3 energy=-9.300969126643588 pbc="F F F"
W        0.00000000       0.00000000       0.00000000       0.00000000       0.00000000       0.33610582
W        0.00000000       0.00000000       4.70666667       0.00000000       0.00000000      -0.33610582
2
Properties=species:S:1:pos:R:3:forces:R:3 energy=-9.280654248469856 pbc="F F F"
W        0.00000000       0.00000000       0.00000000       0.00000000       0.00000000       0.35183263
W        0.00000000       0.00000000       4.76545455       0.00000000       0.00000000      -0.35183263
2
Properties=species:S:1:pos:R:3:forces:R:3 energy=-9.26005400613294 pbc="F F F"
W        0.00000000       0.00000000       0.00000000       0.00000000       0.00000000       0.34463194
W        0.00000000       0.00000000       4.82424242       0.00000000       0.00000000      -0.34463194
2
Properties=species:S:1:pos:R:3:forces:R:3 energy=-9.240674257074689 pbc="F F F"
W        0.00000000       0.00000000       0.00000000       0.00000000       0.00000000       0.31014937
W        0.00000000       0.00000000       4.88303030       0.00000000       0.00000000      -0.31014937
2
Properties=species:S:1:pos:R:3:forces:R:3 energy=-9.22409248568099 pbc="F F F"
W        0.00000000       0.00000000       0.00000000       0.00000000       0.00000000       0.25017834
W        0.00000000       0.00000000       4.94181818       0.00000000       0.00000000      -0.25017834
2
Properties=species:S:1:pos:R:3:forces:R:3 energy=-9.211592514340367 pbc="F F F"
W        0.00000000       0.00000000       0.00000000       0.00000000       0.00000000       0.17328537
W        0.00000000       0.00000000       5.00060606       0.00000000       0.00000000      -0.17328537
2
Properties=species:S:1:pos:R:3:forces:R:3 energy=-9.20378113270443 pbc="F F F"
W        0.00000000       0.00000000       0.00000000       0.00000000       0.00000000       0.09323817
W        0.00000000       0.00000000       5.05939394       0.00000000       0.00000000      -0.09323817
2
Properties=species:S:1:pos:R:3:forces:R:3 energy=-9.200395290749201 pbc="F F F"
W        0.00000000       0.00000000       0.00000000       0.00000000       0.00000000       0.02501383
W        0.00000000       0.00000000       5.11818182       0.00000000       0.00000000      -0.02501383
2
Properties=species:S:1:pos:R:3:forces:R:3 energy=-9.2003945893447 pbc="F F F"
W        0.00000000       0.00000000       0.00000000       0.00000000       0.00000000      -0.02084252
W        0.00000000       0.00000000       5.17696970       0.00000000       0.00000000       0.02084252
2
Properties=species:S:1:pos:R:3:forces:R:3 energy=-9.2023837262989 pbc="F F F"
W        0.00000000       0.00000000       0.00000000       0.00000000       0.00000000      -0.04349795
W        0.00000000       0.00000000       5.23575758       0.00000000       0.00000000       0.04349795
2
Properties=species:S:1:pos:R:3:forces:R:3 energy=-9.20523898118803 pbc="F F F"
W        0.00000000       0.00000000       0.00000000       0.00000000       0.00000000      -0.05243896
W        0.00000000       0.00000000       5.29454545       0.00000000       0.00000000       0.05243896
2
Properties=species:S:1:pos:R:3:forces:R:3 energy=-9.20846297745057 pbc="F F F"
W        0.00000000       0.00000000       0.00000000       0.00000000       0.00000000      -0.05607418
W        0.00000000       0.00000000       5.35333333       0.00000000       0.00000000       0.05607418
2
Properties=species:S:1:pos:R:3:forces:R:3 energy=-9.21145026446458 pbc="F F F"
W        0.00000000       0.00000000       0.00000000       0.00000000       0.00000000      -0.03949253
W        0.00000000       0.00000000       5.41212121       0.00000000       0.00000000       0.03949253
2
Properties=species:S:1:pos:R:3:forces:R:3 energy=-9.212236133274542 pbc="F F F"
W        0.00000000       0.00000000       0.00000000       0.00000000       0.00000000       0.01869625
W        0.00000000       0.00000000       5.47090909       0.00000000       0.00000000      -0.01869625
2
Properties=species:S:1:pos:R:3:forces:R:3 energy=-9.209184559942768 pbc="F F F"
W        0.00000000       0.00000000       0.00000000       0.00000000       0.00000000       0.07995224
W        0.00000000       0.00000000       5.52969697       0.00000000       0.00000000      -0.07995224
2
Properties=species:S:1:pos:R:3:forces:R:3 energy=-9.20371761827514 pbc="F F F"
W        0.00000000       0.00000000       0.00000000       0.00000000       0.00000000       0.09946142
W        0.00000000       0.00000000       5.58848485       0.00000000       0.00000000      -0.09946142
2
Properties=species:S:1:pos:R:3:forces:R:3 energy=-9.197767312732822 pbc="F F F"
W        0.00000000       0.00000000       0.00000000       0.00000000       0.00000000       0.10562474
W        0.00000000       0.00000000       5.64727273       0.00000000       0.00000000      -0.10562474
2
Properties=species:S:1:pos:R:3:forces:R:3 energy=-9.190563524139051 pbc="F F F"
W        0.00000000       0.00000000       0.00000000       0.00000000       0.00000000       0.14648220
W        0.00000000       0.00000000       5.70606061       0.00000000       0.00000000      -0.14648220
2
Properties=species:S:1:pos:R:3:forces:R:3 energy=-9.180363078235587 pbc="F F F"
W        0.00000000       0.00000000       0.00000000       0.00000000       0.00000000       0.19289088
W        0.00000000       0.00000000       5.76484848       0.00000000       0.00000000      -0.19289088
2
Properties=species:S:1:pos:R:3:forces:R:3 energy=-9.16940986599095 pbc="F F F"
W        0.00000000       0.00000000       0.00000000       0.00000000       0.00000000       0.16662189
W        0.00000000       0.00000000       5.82363636       0.00000000       0.00000000      -0.16662189
2
Properties=species:S:1:pos:R:3:forces:R:3 energy=-9.16175085497204 pbc="F F F"
W        0.00000000       0.00000000       0.00000000       0.00000000       0.00000000       0.09282239
W        0.00000000       0.00000000       5.88242424       0.00000000       0.00000000      -0.09282239
2
Properties=species:S:1:pos:R:3:forces:R:3 energy=-9.158160712243863 pbc="F F F"
W        0.00000000       0.00000000       0.00000000       0.00000000       0.00000000       0.03412615
W        0.00000000       0.00000000       5.94121212       0.00000000       0.00000000      -0.03412615
2
Properties=species:S:1:pos:R:3:forces:R:3 energy=-9.156987751502044 pbc="F F F"
W        0.00000000       0.00000000       0.00000000       0.00000000       0.00000000       0.01275367
W        0.00000000       0.00000000       6.00000000       0.00000000       0.00000000      -0.01275367
