2
Properties=species:S:1:pos:R:3:forces:R:3 energy=10811.013279432176 pbc="F F F"
Xe       0.00000000       0.00000000       0.00000000       0.00000000       0.00000000 -162238.07812500
Xe       0.00000000       0.00000000       0.18000000       0.00000000       0.00000000  162238.07812500
2
Properties=species:S:1:pos:R:3:forces:R:3 energy=5066.925388807176 pbc="F F F"
Xe       0.00000000       0.00000000       0.00000000       0.00000000       0.00000000  -55384.63281250
Xe       0.00000000       0.00000000       0.23878788       0.00000000       0.00000000   55384.63281250
2
Properties=species:S:1:pos:R:3:forces:R:3 energy=2951.299168107219 pbc="F F F"
Xe       0.00000000       0.00000000       0.00000000       0.00000000       0.00000000  -22298.50781250
Xe       0.00000000       0.00000000       0.29757576       0.00000000       0.00000000   22298.50781250
2
Properties=species:S:1:pos:R:3:forces:R:3 energy=2057.2681622541795 pbc="F F F"
Xe       0.00000000       0.00000000       0.00000000       0.00000000       0.00000000   -9974.84472656
Xe       0.00000000       0.00000000       0.35636364       0.00000000       0.00000000    9974.84472656
2
Properties=species:S:1:pos:R:3:forces:R:3 energy=1642.3931622605153 pbc="F F F"
Xe       0.00000000       0.00000000       0.00000000       0.00000000       0.00000000   -4844.71044922
Xe       0.00000000       0.00000000       0.41515152       0.00000000       0.00000000    4844.71044922
2
Properties=species:S:1:pos:R:3:forces:R:3 energy=1433.2903790795651 pbc="F F F"
Xe       0.00000000       0.00000000       0.00000000       0.00000000       0.00000000   -2566.04882812
Xe       0.00000000       0.00000000       0.47393939       0.00000000       0.00000000    2566.04882812
2
Properties=species:S:1:pos:R:3:forces:R:3 energy=1316.8903547003486 pbc="F F F"
Xe       0.00000000       0.00000000       0.00000000       0.00000000       0.00000000   -1531.82653809
Xe       0.00000000       0.00000000       0.53272727       0.00000000       0.00000000    1531.82653809
2
Properties=species:S:1:pos:R:3:forces:R:3 energy=1243.78952468558 pbc="F F F"
Xe       0.00000000       0.00000000       0.00000000       0.00000000       0.00000000    -838.49792480
Xe       0.00000000       0.00000000       0.59151515       0.00000000       0.00000000     838.49792480
2
Properties=species:S:1:pos:R:3:forces:R:3 energy=1217.7620589729736 pbc="F F F"
Xe       0.00000000       0.00000000       0.00000000       0.00000000       0.00000000    -256.00204468
Xe       0.00000000       0.00000000       0.65030303       0.00000000       0.00000000     256.00204468
2
Properties=species:S:1:pos:R:3:forces:R:3 energy=1211.9239243720751 pbc="F F F"
Xe       0.00000000       0.00000000       0.00000000       0.00000000       0.00000000      62.58028793
Xe       0.00000000       0.00000000       0.70909091       0.00000000       0.00000000     -62.58028793
2
Properties=species:S:1:pos:R:3:forces:R:3 energy=1224.8049060739813 pbc="F F F"
Xe       0.00000000       0.00000000       0.00000000       0.00000000       0.00000000     352.05639648
Xe       0.00000000       0.00000000       0.76787879       0.00000000       0.00000000    -352.05639648
2
Properties=species:S:1:pos:R:3:forces:R:3 energy=1243.381566607202 pbc="F F F"
Xe       0.00000000       0.00000000       0.00000000       0.00000000       0.00000000     110.17552948
Xe       0.00000000       0.00000000       0.82666667       0.00000000       0.00000000    -110.17552948
2
Properties=species:S:1:pos:R:3:forces:R:3 energy=1214.1670896066694 pbc="F F F"
Xe       0.00000000       0.00000000       0.00000000       0.00000000       0.00000000   -1197.51501465
Xe       0.00000000       0.00000000       0.88545455       0.00000000       0.00000000    1197.51501465
2
Properties=species:S:1:pos:R:3:forces:R:3 energy=1111.8040532512362 pbc="F F F"
Xe       0.00000000       0.00000000       0.00000000       0.00000000       0.00000000   -2173.18627930
Xe       0.00000000       0.00000000       0.94424242       0.00000000       0.00000000    2173.18627930
2
Properties=species:S:1:pos:R:3:forces:R:3 energy=965.2795791862899 pbc="F F F"
Xe       0.00000000       0.00000000       0.00000000       0.00000000       0.00000000   -2820.10083008
Xe       0.00000000       0.00000000       1.00303030       0.00000000       0.00000000    2820.10083008
2
Properties=species:S:1:pos:R:3:forces:R:3 energy=787.847634785686 pbc="F F F"
Xe       0.00000000       0.00000000       0.00000000       0.00000000       0.00000000   -3149.87036133
Xe       0.00000000       0.00000000       1.06181818       0.00000000       0.00000000    3149.87036133
2
Properties=species:S:1:pos:R:3:forces:R:3 energy=600.7006029506235 pbc="F F F"
Xe       0.00000000       0.00000000       0.00000000       0.00000000       0.00000000   -3166.71362305
Xe       0.00000000       0.00000000       1.12060606       0.00000000       0.00000000    3166.71362305
2
Properties=species:S:1:pos:R:3:forces:R:3 energy=425.8331432253078 pbc="F F F"
Xe       0.00000000       0.00000000       0.00000000       0.00000000       0.00000000   -2644.34912109
Xe       0.00000000       0.00000000       1.17939394       0.00000000       0.00000000    2644.34912109
2
Properties=species:S:1:pos:R:3:forces:R:3 energy=288.4152386592793 pbc="F F F"
Xe       0.00000000       0.00000000       0.00000000       0.00000000       0.00000000   -2070.41479492
Xe       0.00000000       0.00000000       1.23818182       0.00000000       0.00000000    2070.41479492
2
Properties=species:S:1:pos:R:3:forces:R:3 energy=183.27841712088997 pbc="F F F"
Xe       0.00000000       0.00000000       0.00000000       0.00000000       0.00000000   -1516.15747070
Xe       0.00000000       0.00000000       1.29696970       0.00000000       0.00000000    1516.15747070
2
Properties=species:S:1:pos:R:3:forces:R:3 energy=108.96784481583423 pbc="F F F"
Xe       0.00000000       0.00000000       0.00000000       0.00000000       0.00000000   -1016.64996338
Xe       0.00000000       0.00000000       1.35575758       0.00000000       0.00000000    1016.64996338
2
Properties=species:S:1:pos:R:3:forces:R:3 energy=62.525319603799026 pbc="F F F"
Xe       0.00000000       0.00000000       0.00000000       0.00000000       0.00000000    -565.74530029
Xe       0.00000000       0.00000000       1.41454545       0.00000000       0.00000000     565.74530029
2
Properties=species:S:1:pos:R:3:forces:R:3 energy=39.280721498952346 pbc="F F F"
Xe       0.00000000       0.00000000       0.00000000       0.00000000       0.00000000    -266.83459473
Xe       0.00000000       0.00000000       1.47333333       0.00000000       0.00000000     266.83459473
2
Properties=species:S:1:pos:R:3:forces:R:3 energy=27.773380334213698 pbc="F F F"
Xe       0.00000000       0.00000000       0.00000000       0.00000000       0.00000000    -141.17382812
Xe       0.00000000       0.00000000       1.53212121       0.00000000       0.00000000     141.17382812
2
Properties=species:S:1:pos:R:3:forces:R:3 energy=21.435324249473414 pbc="F F F"
Xe       0.00000000       0.00000000       0.00000000       0.00000000       0.00000000     -81.52412415
Xe       0.00000000       0.00000000       1.59090909       0.00000000       0.00000000      81.52412415
2
Properties=species:S:1:pos:R:3:forces:R:3 energy=17.59384703353752 pbc="F F F"
Xe       0.00000000       0.00000000       0.00000000       0.00000000       0.00000000     -52.64717865
Xe       0.00000000       0.00000000       1.64969697       0.00000000       0.00000000      52.64717865
2
Properties=species:S:1:pos:R:3:forces:R:3 energy=14.961896956353183 pbc="F F F"
Xe       0.00000000       0.00000000       0.00000000       0.00000000       0.00000000     -38.49679184
Xe       0.00000000       0.00000000       1.70848485       0.00000000       0.00000000      38.49679184
2
Properties=species:S:1:pos:R:3:forces:R:3 energy=12.939302475589612 pbc="F F F"
Xe       0.00000000       0.00000000       0.00000000       0.00000000       0.00000000     -31.02864456
Xe       0.00000000       0.00000000       1.76727273       0.00000000       0.00000000      31.02864456
2
Properties=species:S:1:pos:R:3:forces:R:3 energy=11.257184252005969 pbc="F F F"
Xe       0.00000000       0.00000000       0.00000000       0.00000000       0.00000000     -26.50597954
Xe       0.00000000       0.00000000       1.82606061       0.00000000       0.00000000      26.50597954
2
Properties=species:S:1:pos:R:3:forces:R:3 energy=9.799218469080454 pbc="F F F"
Xe       0.00000000       0.00000000       0.00000000       0.00000000       0.00000000     -23.21895027
Xe       0.00000000       0.00000000       1.88484848       0.00000000       0.00000000      23.21895027
2
Properties=species:S:1:pos:R:3:forces:R:3 energy=8.517783143069877 pbc="F F F"
Xe       0.00000000       0.00000000       0.00000000       0.00000000       0.00000000     -20.42816353
Xe       0.00000000       0.00000000       1.94363636       0.00000000       0.00000000      20.42816353
2
Properties=species:S:1:pos:R:3:forces:R:3 energy=7.392752688310295 pbc="F F F"
Xe       0.00000000       0.00000000       0.00000000       0.00000000       0.00000000     -17.87907219
Xe       0.00000000       0.00000000       2.00242424       0.00000000       0.00000000      17.87907219
2
Properties=species:S:1:pos:R:3:forces:R:3 energy=6.411837005523843 pbc="F F F"
Xe       0.00000000       0.00000000       0.00000000       0.00000000       0.00000000     -15.52524567
Xe       0.00000000       0.00000000       2.06121212       0.00000000       0.00000000      15.52524567
2
Properties=species:S:1:pos:R:3:forces:R:3 energy=5.563341634735341 pbc="F F F"
Xe       0.00000000       0.00000000       0.00000000       0.00000000       0.00000000     -13.37664604
Xe       0.00000000       0.00000000       2.12000000       0.00000000       0.00000000      13.37664604
2
Properties=species:S:1:pos:R:3:forces:R:3 energy=4.834818340960619 pbc="F F F"
Xe       0.00000000       0.00000000       0.00000000       0.00000000       0.00000000     -11.44480705
Xe       0.00000000       0.00000000       2.17878788       0.00000000       0.00000000      11.44480705
2
Properties=species:S:1:pos:R:3:forces:R:3 energy=4.2133311703338645 pbc="F F F"
Xe       0.00000000       0.00000000       0.00000000       0.00000000       0.00000000      -9.73629665
Xe       0.00000000       0.00000000       2.23757576       0.00000000       0.00000000       9.73629665
2
Properties=species:S:1:pos:R:3:forces:R:3 energy=3.6855880698345738 pbc="F F F"
Xe       0.00000000       0.00000000       0.00000000       0.00000000       0.00000000      -8.25632000
Xe       0.00000000       0.00000000       2.29636364       0.00000000       0.00000000       8.25632000
2
Properties=species:S:1:pos:R:3:forces:R:3 energy=3.238050095668068 pbc="F F F"
Xe       0.00000000       0.00000000       0.00000000       0.00000000       0.00000000      -7.00767994
Xe       0.00000000       0.00000000       2.35515152       0.00000000       0.00000000       7.00767994
2
Properties=species:S:1:pos:R:3:forces:R:3 energy=2.8572093903217954 pbc="F F F"
Xe       0.00000000       0.00000000       0.00000000       0.00000000       0.00000000      -5.98530102
Xe       0.00000000       0.00000000       2.41393939       0.00000000       0.00000000       5.98530102
2
Properties=species:S:1:pos:R:3:forces:R:3 energy=2.530220298718965 pbc="F F F"
Xe       0.00000000       0.00000000       0.00000000       0.00000000       0.00000000      -5.17174149
Xe       0.00000000       0.00000000       2.47272727       0.00000000       0.00000000       5.17174149
2
Properties=species:S:1:pos:R:3:forces:R:3 energy=2.245630582161543 pbc="F F F"
Xe       0.00000000       0.00000000       0.00000000       0.00000000       0.00000000      -4.53697395
Xe       0.00000000       0.00000000       2.53151515       0.00000000       0.00000000       4.53697395
2
Properties=species:S:1:pos:R:3:forces:R:3 energy=1.9940346789013461 pbc="F F F"
Xe       0.00000000       0.00000000       0.00000000       0.00000000       0.00000000      -4.04243374
Xe       0.00000000       0.00000000       2.59030303       0.00000000       0.00000000       4.04243374
2
Properties=species:S:1:pos:R:3:forces:R:3 energy=1.7683893861778803 pbc="F F F"
Xe       0.00000000       0.00000000       0.00000000       0.00000000       0.00000000      -3.64749479
Xe       0.00000000       0.00000000       2.64909091       0.00000000       0.00000000       3.64749479
2
Properties=species:S:1:pos:R:3:forces:R:3 energy=1.5639397995713127 pbc="F F F"
Xe       0.00000000       0.00000000       0.00000000       0.00000000       0.00000000      -3.31601381
Xe       0.00000000       0.00000000       2.70787879       0.00000000       0.00000000       3.31601381
2
Properties=species:S:1:pos:R:3:forces:R:3 energy=1.3777989842153335 pbc="F F F"
Xe       0.00000000       0.00000000       0.00000000       0.00000000       0.00000000      -3.02096272
Xe       0.00000000       0.00000000       2.76666667       0.00000000       0.00000000       3.02096272
2
Properties=species:S:1:pos:R:3:forces:R:3 energy=1.2083592971506023 pbc="F F F"
Xe       0.00000000       0.00000000       0.00000000       0.00000000       0.00000000      -2.74605560
Xe       0.00000000       0.00000000       2.82545455       0.00000000       0.00000000       2.74605560
2
Properties=species:S:1:pos:R:3:forces:R:3 energy=1.0546717710920563 pbc="F F F"
Xe       0.00000000       0.00000000       0.00000000       0.00000000       0.00000000      -2.48444748
Xe       0.00000000       0.00000000       2.88424242       0.00000000       0.00000000       2.48444748
2
Properties=species:S:1:pos:R:3:forces:R:3 energy=0.91600120001773 pbc="F F F"
Xe       0.00000000       0.00000000       0.00000000       0.00000000       0.00000000      -2.23552012
Xe       0.00000000       0.00000000       2.94303030       0.00000000       0.00000000       2.23552012
2
Properties=species:S:1:pos:R:3:forces:R:3 energy=0.7915402467820135 pbc="F F F"
Xe       0.00000000       0.00000000       0.00000000       0.00000000       0.00000000      -2.00134611
Xe       0.00000000       0.00000000       3.00181818       0.00000000       0.00000000       2.00134611
2
Properties=species:S:1:pos:R:3:forces:R:3 energy=0.680359101949418 pbc="F F F"
Xe       0.00000000       0.00000000       0.00000000       0.00000000       0.00000000      -1.78407431
Xe       0.00000000       0.00000000       3.06060606       0.00000000       0.00000000       1.78407431
2
Properties=species:S:1:pos:R:3:forces:R:3 energy=0.5814283402999483 pbc="F F F"
Xe       0.00000000       0.00000000       0.00000000       0.00000000       0.00000000      -1.58459103
Xe       0.00000000       0.00000000       3.11939394       0.00000000       0.00000000       1.58459103
2
Properties=species:S:1:pos:R:3:forces:R:3 energy=0.4937099555446316 pbc="F F F"
Xe       0.00000000       0.00000000       0.00000000       0.00000000       0.00000000      -1.40240932
Xe       0.00000000       0.00000000       3.17818182       0.00000000       0.00000000       1.40240932
2
Properties=species:S:1:pos:R:3:forces:R:3 energy=0.41622731529565205 pbc="F F F"
Xe       0.00000000       0.00000000       0.00000000       0.00000000       0.00000000      -1.23610044
Xe       0.00000000       0.00000000       3.23696970       0.00000000       0.00000000       1.23610044
2
Properties=species:S:1:pos:R:3:forces:R:3 energy=0.34809791323467826 pbc="F F F"
Xe       0.00000000       0.00000000       0.00000000       0.00000000       0.00000000      -1.08392930
Xe       0.00000000       0.00000000       3.29575758       0.00000000       0.00000000       1.08392930
2
Properties=species:S:1:pos:R:3:forces:R:3 energy=0.28853622825991404 pbc="F F F"
Xe       0.00000000       0.00000000       0.00000000       0.00000000       0.00000000      -0.94441295
Xe       0.00000000       0.00000000       3.35454545       0.00000000       0.00000000       0.94441295
2
Properties=species:S:1:pos:R:3:forces:R:3 energy=0.2368279448932565 pbc="F F F"
Xe       0.00000000       0.00000000       0.00000000       0.00000000       0.00000000      -0.81664014
Xe       0.00000000       0.00000000       3.41333333       0.00000000       0.00000000       0.81664014
2
Properties=species:S:1:pos:R:3:forces:R:3 energy=0.19229529071948448 pbc="F F F"
Xe       0.00000000       0.00000000       0.00000000       0.00000000       0.00000000      -0.70030642
Xe       0.00000000       0.00000000       3.47212121       0.00000000       0.00000000       0.70030642
2
Properties=species:S:1:pos:R:3:forces:R:3 energy=0.15426335753208745 pbc="F F F"
Xe       0.00000000       0.00000000       0.00000000       0.00000000       0.00000000      -0.59550285
Xe       0.00000000       0.00000000       3.53090909       0.00000000       0.00000000       0.59550285
2
Properties=species:S:1:pos:R:3:forces:R:3 energy=0.12204934563270342 pbc="F F F"
Xe       0.00000000       0.00000000       0.00000000       0.00000000       0.00000000      -0.50238073
Xe       0.00000000       0.00000000       3.58969697       0.00000000       0.00000000       0.50238073
2
Properties=species:S:1:pos:R:3:forces:R:3 energy=0.09496712804618943 pbc="F F F"
Xe       0.00000000       0.00000000       0.00000000       0.00000000       0.00000000      -0.42088303
Xe       0.00000000       0.00000000       3.64848485       0.00000000       0.00000000       0.42088303
2
Properties=species:S:1:pos:R:3:forces:R:3 energy=0.07234419853859363 pbc="F F F"
Xe       0.00000000       0.00000000       0.00000000       0.00000000       0.00000000      -0.35058516
Xe       0.00000000       0.00000000       3.70727273       0.00000000       0.00000000       0.35058516
2
Properties=species:S:1:pos:R:3:forces:R:3 energy=0.05354253154391437 pbc="F F F"
Xe       0.00000000       0.00000000       0.00000000       0.00000000       0.00000000      -0.29069525
Xe       0.00000000       0.00000000       3.76606061       0.00000000       0.00000000       0.29069525
2
Properties=species:S:1:pos:R:3:forces:R:3 energy=0.03798217797586392 pbc="F F F"
Xe       0.00000000       0.00000000       0.00000000       0.00000000       0.00000000      -0.24014291
Xe       0.00000000       0.00000000       3.82484848       0.00000000       0.00000000       0.24014291
2
Properties=species:S:1:pos:R:3:forces:R:3 energy=0.02514894325466823 pbc="F F F"
Xe       0.00000000       0.00000000       0.00000000       0.00000000       0.00000000      -0.19768895
Xe       0.00000000       0.00000000       3.88363636       0.00000000       0.00000000       0.19768895
2
Properties=species:S:1:pos:R:3:forces:R:3 energy=0.014605044044179866 pbc="F F F"
Xe       0.00000000       0.00000000       0.00000000       0.00000000       0.00000000      -0.16205554
Xe       0.00000000       0.00000000       3.94242424       0.00000000       0.00000000       0.16205554
2
Properties=species:S:1:pos:R:3:forces:R:3 energy=0.005985738589578144 pbc="F F F"
Xe       0.00000000       0.00000000       0.00000000       0.00000000       0.00000000      -0.13201967
Xe       0.00000000       0.00000000       4.00121212       0.00000000       0.00000000       0.13201967
2
Properties=species:S:1:pos:R:3:forces:R:3 energy=-0.0010052276137535454 pbc="F F F"
Xe       0.00000000       0.00000000       0.00000000       0.00000000       0.00000000      -0.10648851
Xe       0.00000000       0.00000000       4.06000000       0.00000000       0.00000000       0.10648851
2
Properties=species:S:1:pos:R:3:forces:R:3 energy=-0.0066053490841573095 pbc="F F F"
Xe       0.00000000       0.00000000       0.00000000       0.00000000       0.00000000      -0.08457209
Xe       0.00000000       0.00000000       4.11878788       0.00000000       0.00000000       0.08457209
2
Properties=species:S:1:pos:R:3:forces:R:3 energy=-0.011006553049049517 pbc="F F F"
Xe       0.00000000       0.00000000       0.00000000       0.00000000       0.00000000      -0.06560285
Xe       0.00000000       0.00000000       4.17757576       0.00000000       0.00000000       0.06560285
2
Properties=species:S:1:pos:R:3:forces:R:3 energy=-0.014368022221593724 pbc="F F F"
Xe       0.00000000       0.00000000       0.00000000       0.00000000       0.00000000      -0.04914838
Xe       0.00000000       0.00000000       4.23636364       0.00000000       0.00000000       0.04914838
2
Properties=species:S:1:pos:R:3:forces:R:3 energy=-0.016830136836867612 pbc="F F F"
Xe       0.00000000       0.00000000       0.00000000       0.00000000       0.00000000      -0.03498440
Xe       0.00000000       0.00000000       4.29515152       0.00000000       0.00000000       0.03498440
2
Properties=species:S:1:pos:R:3:forces:R:3 energy=-0.018525144617732678 pbc="F F F"
Xe       0.00000000       0.00000000       0.00000000       0.00000000       0.00000000      -0.02306167
Xe       0.00000000       0.00000000       4.35393939       0.00000000       0.00000000       0.02306167
2
Properties=species:S:1:pos:R:3:forces:R:3 energy=-0.01958663540046263 pbc="F F F"
Xe       0.00000000       0.00000000       0.00000000       0.00000000       0.00000000      -0.01344713
Xe       0.00000000       0.00000000       4.41272727       0.00000000       0.00000000       0.01344713
2
Properties=species:S:1:pos:R:3:forces:R:3 energy=-0.020154315081006905 pbc="F F F"
Xe       0.00000000       0.00000000       0.00000000       0.00000000       0.00000000      -0.00628429
Xe       0.00000000       0.00000000       4.47151515       0.00000000       0.00000000       0.00628429
2
Properties=species:S:1:pos:R:3:forces:R:3 energy=-0.020376621781969202 pbc="F F F"
Xe       0.00000000       0.00000000       0.00000000       0.00000000       0.00000000      -0.00171973
Xe       0.00000000       0.00000000       4.53030303       0.00000000       0.00000000       0.00171973
2
Properties=species:S:1:pos:R:3:forces:R:3 energy=-0.020408889877436064 pbc="F F F"
Xe       0.00000000       0.00000000       0.00000000       0.00000000       0.00000000       0.00017715
Xe       0.00000000       0.00000000       4.58909091       0.00000000       0.00000000      -0.00017715
2
Properties=species:S:1:pos:R:3:forces:R:3 energy=-0.020406149197070678 pbc="F F F"
Xe       0.00000000       0.00000000       0.00000000       0.00000000       0.00000000      -0.00049100
Xe       0.00000000       0.00000000       4.64787879       0.00000000       0.00000000       0.00049100
2
Properties=species:S:1:pos:R:3:forces:R:3 energy=-0.020510186522184202 pbc="F F F"
Xe       0.00000000       0.00000000       0.00000000       0.00000000       0.00000000      -0.00337249
Xe       0.00000000       0.00000000       4.70666667       0.00000000       0.00000000       0.00337249
2
Properties=species:S:1:pos:R:3:forces:R:3 energy=-0.020833778192800214 pbc="F F F"
Xe       0.00000000       0.00000000       0.00000000       0.00000000       0.00000000      -0.00783544
Xe       0.00000000       0.00000000       4.76545455       0.00000000       0.00000000       0.00783544
2
Properties=species:S:1:pos:R:3:forces:R:3 energy=-0.021445410183534044 pbc="F F F"
Xe       0.00000000       0.00000000       0.00000000       0.00000000       0.00000000      -0.01300840
Xe       0.00000000       0.00000000       4.82424242       0.00000000       0.00000000       0.01300840
2
Properties=species:S:1:pos:R:3:forces:R:3 energy=-0.022357592255034864 pbc="F F F"
Xe       0.00000000       0.00000000       0.00000000       0.00000000       0.00000000      -0.01790216
Xe       0.00000000       0.00000000       4.88303030       0.00000000       0.00000000       0.01790216
2
Properties=species:S:1:pos:R:3:forces:R:3 energy=-0.02352635838460429 pbc="F F F"
Xe       0.00000000       0.00000000       0.00000000       0.00000000       0.00000000      -0.02158187
Xe       0.00000000       0.00000000       4.94181818       0.00000000       0.00000000       0.02158187
2
Properties=species:S:1:pos:R:3:forces:R:3 energy=-0.02485771070871841 pbc="F F F"
Xe       0.00000000       0.00000000       0.00000000       0.00000000       0.00000000      -0.02335491
Xe       0.00000000       0.00000000       5.00060606       0.00000000       0.00000000       0.02335491
2
Properties=species:S:1:pos:R:3:forces:R:3 energy=-0.026229279458020484 pbc="F F F"
Xe       0.00000000       0.00000000       0.00000000       0.00000000       0.00000000      -0.02294279
Xe       0.00000000       0.00000000       5.05939394       0.00000000       0.00000000       0.02294279
2
Properties=species:S:1:pos:R:3:forces:R:3 energy=-0.027517595338621276 pbc="F F F"
Xe       0.00000000       0.00000000       0.00000000       0.00000000       0.00000000      -0.02062699
Xe       0.00000000       0.00000000       5.11818182       0.00000000       0.00000000       0.02062699
2
Properties=species:S:1:pos:R:3:forces:R:3 energy=-0.028635189401708505 pbc="F F F"
Xe       0.00000000       0.00000000       0.00000000       0.00000000       0.00000000      -0.01735525
Xe       0.00000000       0.00000000       5.17696970       0.00000000       0.00000000       0.01735525
2
Properties=species:S:1:pos:R:3:forces:R:3 energy=-0.02956983890160174 pbc="F F F"
Xe       0.00000000       0.00000000       0.00000000       0.00000000       0.00000000      -0.01469483
Xe       0.00000000       0.00000000       5.23575758       0.00000000       0.00000000       0.01469483
2
Properties=species:S:1:pos:R:3:forces:R:3 energy=-0.03040570805271602 pbc="F F F"
Xe       0.00000000       0.00000000       0.00000000       0.00000000       0.00000000      -0.01415634
Xe       0.00000000       0.00000000       5.29454545       0.00000000       0.00000000       0.01415634
2
Properties=species:S:1:pos:R:3:forces:R:3 energy=-0.031267826278587804 pbc="F F F"
Xe       0.00000000       0.00000000       0.00000000       0.00000000       0.00000000      -0.01516386
Xe       0.00000000       0.00000000       5.35333333       0.00000000       0.00000000       0.01516386
2
Properties=species:S:1:pos:R:3:forces:R:3 energy=-0.03213058375316634 pbc="F F F"
Xe       0.00000000       0.00000000       0.00000000       0.00000000       0.00000000      -0.01319957
Xe       0.00000000       0.00000000       5.41212121       0.00000000       0.00000000       0.01319957
2
Properties=species:S:1:pos:R:3:forces:R:3 energy=-0.03268736069906178 pbc="F F F"
Xe       0.00000000       0.00000000       0.00000000       0.00000000       0.00000000      -0.00490342
Xe       0.00000000       0.00000000       5.47090909       0.00000000       0.00000000       0.00490342
2
Properties=species:S:1:pos:R:3:forces:R:3 energy=-0.032699915015804666 pbc="F F F"
Xe       0.00000000       0.00000000       0.00000000       0.00000000       0.00000000       0.00375692
Xe       0.00000000       0.00000000       5.52969697       0.00000000       0.00000000      -0.00375692
2
Properties=species:S:1:pos:R:3:forces:R:3 energy=-0.03236519690461498 pbc="F F F"
Xe       0.00000000       0.00000000       0.00000000       0.00000000       0.00000000       0.00674908
Xe       0.00000000       0.00000000       5.58848485       0.00000000       0.00000000      -0.00674908
2
Properties=species:S:1:pos:R:3:forces:R:3 energy=-0.03194077076515896 pbc="F F F"
Xe       0.00000000       0.00000000       0.00000000       0.00000000       0.00000000       0.00811914
Xe       0.00000000       0.00000000       5.64727273       0.00000000       0.00000000      -0.00811914
2
Properties=species:S:1:pos:R:3:forces:R:3 energy=-0.03128698385347997 pbc="F F F"
Xe       0.00000000       0.00000000       0.00000000       0.00000000       0.00000000       0.01547633
Xe       0.00000000       0.00000000       5.70606061       0.00000000       0.00000000      -0.01547633
2
Properties=species:S:1:pos:R:3:forces:R:3 energy=-0.030020788958121016 pbc="F F F"
Xe       0.00000000       0.00000000       0.00000000       0.00000000       0.00000000       0.02732163
Xe       0.00000000       0.00000000       5.76484848       0.00000000       0.00000000      -0.02732163
2
Properties=species:S:1:pos:R:3:forces:R:3 energy=-0.028248392504643914 pbc="F F F"
Xe       0.00000000       0.00000000       0.00000000       0.00000000       0.00000000       0.03076036
Xe       0.00000000       0.00000000       5.82363636       0.00000000       0.00000000      -0.03076036
2
Properties=species:S:1:pos:R:3:forces:R:3 energy=-0.026663541926898186 pbc="F F F"
Xe       0.00000000       0.00000000       0.00000000       0.00000000       0.00000000       0.02176028
Xe       0.00000000       0.00000000       5.88242424       0.00000000       0.00000000      -0.02176028
2
Properties=species:S:1:pos:R:3:forces:R:3 energy=-0.02574121900784926 pbc="F F F"
Xe       0.00000000       0.00000000       0.00000000       0.00000000       0.00000000       0.01000336
Xe       0.00000000       0.00000000       5.94121212       0.00000000       0.00000000      -0.01000336
2
Properties=species:S:1:pos:R:3:forces:R:3 energy=-0.025349661953620893 pbc="F F F"
Xe       0.00000000       0.00000000       0.00000000       0.00000000       0.00000000       0.00489970
Xe       0.00000000       0.00000000       6.00000000       0.00000000       0.00000000      -0.00489970
