2
Properties=species:S:1:pos:R:3:forces:R:3 energy=13712.443814142882 pbc="F F F"
Yb       0.00000000       0.00000000       0.00000000       0.00000000       0.00000000 -239064.60937500
Yb       0.00000000       0.00000000       0.18000000       0.00000000       0.00000000  239064.60937500
2
Properties=species:S:1:pos:R:3:forces:R:3 energy=5341.508755549132 pbc="F F F"
Yb       0.00000000       0.00000000       0.00000000       0.00000000       0.00000000  -79435.73437500
Yb       0.00000000       0.00000000       0.23878788       0.00000000       0.00000000   79435.73437500
2
Properties=species:S:1:pos:R:3:forces:R:3 energy=2343.6723297678814 pbc="F F F"
Yb       0.00000000       0.00000000       0.00000000       0.00000000       0.00000000  -31061.47656250
Yb       0.00000000       0.00000000       0.29757576       0.00000000       0.00000000   31061.47656250
2
Properties=species:S:1:pos:R:3:forces:R:3 energy=1115.5793121960921 pbc="F F F"
Yb       0.00000000       0.00000000       0.00000000       0.00000000       0.00000000  -13438.63769531
Yb       0.00000000       0.00000000       0.35636364       0.00000000       0.00000000   13438.63769531
2
Properties=species:S:1:pos:R:3:forces:R:3 energy=566.4314240124984 pbc="F F F"
Yb       0.00000000       0.00000000       0.00000000       0.00000000       0.00000000   -6250.78564453
Yb       0.00000000       0.00000000       0.41515152       0.00000000       0.00000000    6250.78564453
2
Properties=species:S:1:pos:R:3:forces:R:3 energy=304.12460028836523 pbc="F F F"
Yb       0.00000000       0.00000000       0.00000000       0.00000000       0.00000000   -3083.25097656
Yb       0.00000000       0.00000000       0.47393939       0.00000000       0.00000000    3083.25097656
2
Properties=species:S:1:pos:R:3:forces:R:3 energy=171.70486153150526 pbc="F F F"
Yb       0.00000000       0.00000000       0.00000000       0.00000000       0.00000000   -1600.62121582
Yb       0.00000000       0.00000000       0.53272727       0.00000000       0.00000000    1600.62121582
2
Properties=species:S:1:pos:R:3:forces:R:3 energy=101.51263896796864 pbc="F F F"
Yb       0.00000000       0.00000000       0.00000000       0.00000000       0.00000000    -869.76348877
Yb       0.00000000       0.00000000       0.59151515       0.00000000       0.00000000     869.76348877
2
Properties=species:S:1:pos:R:3:forces:R:3 energy=62.64696594079696 pbc="F F F"
Yb       0.00000000       0.00000000       0.00000000       0.00000000       0.00000000    -492.31036377
Yb       0.00000000       0.00000000       0.65030303       0.00000000       0.00000000     492.31036377
2
Properties=species:S:1:pos:R:3:forces:R:3 energy=40.2737360300203 pbc="F F F"
Yb       0.00000000       0.00000000       0.00000000       0.00000000       0.00000000    -288.98275757
Yb       0.00000000       0.00000000       0.70909091       0.00000000       0.00000000     288.98275757
2
Properties=species:S:1:pos:R:3:forces:R:3 energy=26.93964112383426 pbc="F F F"
Yb       0.00000000       0.00000000       0.00000000       0.00000000       0.00000000    -175.26518250
Yb       0.00000000       0.00000000       0.76787879       0.00000000       0.00000000     175.26518250
2
Properties=species:S:1:pos:R:3:forces:R:3 energy=18.73862198878035 pbc="F F F"
Yb       0.00000000       0.00000000       0.00000000       0.00000000       0.00000000    -109.54434204
Yb       0.00000000       0.00000000       0.82666667       0.00000000       0.00000000     109.54434204
2
Properties=species:S:1:pos:R:3:forces:R:3 energy=13.544074557329656 pbc="F F F"
Yb       0.00000000       0.00000000       0.00000000       0.00000000       0.00000000     -70.45739746
Yb       0.00000000       0.00000000       0.88545455       0.00000000       0.00000000      70.45739746
2
Properties=species:S:1:pos:R:3:forces:R:3 energy=10.159206233278768 pbc="F F F"
Yb       0.00000000       0.00000000       0.00000000       0.00000000       0.00000000     -46.60242844
Yb       0.00000000       0.00000000       0.94424242       0.00000000       0.00000000      46.60242844
2
Properties=species:S:1:pos:R:3:forces:R:3 energy=7.891326682174504 pbc="F F F"
Yb       0.00000000       0.00000000       0.00000000       0.00000000       0.00000000     -31.68575859
Yb       0.00000000       0.00000000       1.00303030       0.00000000       0.00000000      31.68575859
2
Properties=species:S:1:pos:R:3:forces:R:3 energy=6.328798635817354 pbc="F F F"
Yb       0.00000000       0.00000000       0.00000000       0.00000000       0.00000000     -22.17895699
Yb       0.00000000       0.00000000       1.06181818       0.00000000       0.00000000      22.17895699
2
Properties=species:S:1:pos:R:3:forces:R:3 energy=5.214326027856584 pbc="F F F"
Yb       0.00000000       0.00000000       0.00000000       0.00000000       0.00000000     -16.24337769
Yb       0.00000000       0.00000000       1.12060606       0.00000000       0.00000000      16.24337769
2
Properties=species:S:1:pos:R:3:forces:R:3 energy=4.366436143328325 pbc="F F F"
Yb       0.00000000       0.00000000       0.00000000       0.00000000       0.00000000     -12.97515488
Yb       0.00000000       0.00000000       1.17939394       0.00000000       0.00000000      12.97515488
2
Properties=species:S:1:pos:R:3:forces:R:3 energy=3.6585721659318433 pbc="F F F"
Yb       0.00000000       0.00000000       0.00000000       0.00000000       0.00000000     -11.23307323
Yb       0.00000000       0.00000000       1.23818182       0.00000000       0.00000000      11.23307323
2
Properties=species:S:1:pos:R:3:forces:R:3 energy=3.04373755287695 pbc="F F F"
Yb       0.00000000       0.00000000       0.00000000       0.00000000       0.00000000      -9.61991501
Yb       0.00000000       0.00000000       1.29696970       0.00000000       0.00000000       9.61991501
2
Properties=species:S:1:pos:R:3:forces:R:3 energy=2.5390303365087106 pbc="F F F"
Yb       0.00000000       0.00000000       0.00000000       0.00000000       0.00000000      -7.45126867
Yb       0.00000000       0.00000000       1.35575758       0.00000000       0.00000000       7.45126867
2
Properties=species:S:1:pos:R:3:forces:R:3 energy=2.1742333775903546 pbc="F F F"
Yb       0.00000000       0.00000000       0.00000000       0.00000000       0.00000000      -4.96526146
Yb       0.00000000       0.00000000       1.41454545       0.00000000       0.00000000       4.96526146
2
Properties=species:S:1:pos:R:3:forces:R:3 energy=1.9472010166159206 pbc="F F F"
Yb       0.00000000       0.00000000       0.00000000       0.00000000       0.00000000      -2.87344837
Yb       0.00000000       0.00000000       1.47333333       0.00000000       0.00000000       2.87344837
2
Properties=species:S:1:pos:R:3:forces:R:3 energy=1.821330864190532 pbc="F F F"
Yb       0.00000000       0.00000000       0.00000000       0.00000000       0.00000000      -1.52755833
Yb       0.00000000       0.00000000       1.53212121       0.00000000       0.00000000       1.52755833
2
Properties=species:S:1:pos:R:3:forces:R:3 energy=1.756903478094359 pbc="F F F"
Yb       0.00000000       0.00000000       0.00000000       0.00000000       0.00000000      -0.73503214
Yb       0.00000000       0.00000000       1.59090909       0.00000000       0.00000000       0.73503214
2
Properties=species:S:1:pos:R:3:forces:R:3 energy=1.7243918230354531 pbc="F F F"
Yb       0.00000000       0.00000000       0.00000000       0.00000000       0.00000000      -0.49902165
Yb       0.00000000       0.00000000       1.64969697       0.00000000       0.00000000       0.49902165
2
Properties=species:S:1:pos:R:3:forces:R:3 energy=1.6808645007032612 pbc="F F F"
Yb       0.00000000       0.00000000       0.00000000       0.00000000       0.00000000      -1.11793721
Yb       0.00000000       0.00000000       1.70848485       0.00000000       0.00000000       1.11793721
2
Properties=species:S:1:pos:R:3:forces:R:3 energy=1.5816850128015834 pbc="F F F"
Yb       0.00000000       0.00000000       0.00000000       0.00000000       0.00000000      -2.31013680
Yb       0.00000000       0.00000000       1.76727273       0.00000000       0.00000000       2.31013680
2
Properties=species:S:1:pos:R:3:forces:R:3 energy=1.4066285266771401 pbc="F F F"
Yb       0.00000000       0.00000000       0.00000000       0.00000000       0.00000000      -3.64442658
Yb       0.00000000       0.00000000       1.82606061       0.00000000       0.00000000       3.64442658
2
Properties=species:S:1:pos:R:3:forces:R:3 energy=1.1549681000825107 pbc="F F F"
Yb       0.00000000       0.00000000       0.00000000       0.00000000       0.00000000      -4.89091349
Yb       0.00000000       0.00000000       1.88484848       0.00000000       0.00000000       4.89091349
2
Properties=species:S:1:pos:R:3:forces:R:3 energy=0.8357944543769616 pbc="F F F"
Yb       0.00000000       0.00000000       0.00000000       0.00000000       0.00000000      -5.92272472
Yb       0.00000000       0.00000000       1.94363636       0.00000000       0.00000000       5.92272472
2
Properties=species:S:1:pos:R:3:forces:R:3 energy=0.46470809180354794 pbc="F F F"
Yb       0.00000000       0.00000000       0.00000000       0.00000000       0.00000000      -6.64507151
Yb       0.00000000       0.00000000       2.00242424       0.00000000       0.00000000       6.64507151
2
Properties=species:S:1:pos:R:3:forces:R:3 energy=0.06125351076855466 pbc="F F F"
Yb       0.00000000       0.00000000       0.00000000       0.00000000       0.00000000      -7.02530766
Yb       0.00000000       0.00000000       2.06121212       0.00000000       0.00000000       7.02530766
2
Properties=species:S:1:pos:R:3:forces:R:3 energy=-0.35534095236455476 pbc="F F F"
Yb       0.00000000       0.00000000       0.00000000       0.00000000       0.00000000      -7.10254335
Yb       0.00000000       0.00000000       2.12000000       0.00000000       0.00000000       7.10254335
2
Properties=species:S:1:pos:R:3:forces:R:3 energy=-0.7692586233933074 pbc="F F F"
Yb       0.00000000       0.00000000       0.00000000       0.00000000       0.00000000      -6.94587088
Yb       0.00000000       0.00000000       2.17878788       0.00000000       0.00000000       6.94587088
2
Properties=species:S:1:pos:R:3:forces:R:3 energy=-1.16870019384438 pbc="F F F"
Yb       0.00000000       0.00000000       0.00000000       0.00000000       0.00000000      -6.61988497
Yb       0.00000000       0.00000000       2.23757576       0.00000000       0.00000000       6.61988497
2
Properties=species:S:1:pos:R:3:forces:R:3 energy=-1.5452880373214064 pbc="F F F"
Yb       0.00000000       0.00000000       0.00000000       0.00000000       0.00000000      -6.17571163
Yb       0.00000000       0.00000000       2.29636364       0.00000000       0.00000000       6.17571163
2
Properties=species:S:1:pos:R:3:forces:R:3 energy=-1.8932656886153743 pbc="F F F"
Yb       0.00000000       0.00000000       0.00000000       0.00000000       0.00000000      -5.65245008
Yb       0.00000000       0.00000000       2.35515152       0.00000000       0.00000000       5.65245008
2
Properties=species:S:1:pos:R:3:forces:R:3 energy=-2.208972550554066 pbc="F F F"
Yb       0.00000000       0.00000000       0.00000000       0.00000000       0.00000000      -5.08299112
Yb       0.00000000       0.00000000       2.41393939       0.00000000       0.00000000       5.08299112
2
Properties=species:S:1:pos:R:3:forces:R:3 energy=-2.4906524438830395 pbc="F F F"
Yb       0.00000000       0.00000000       0.00000000       0.00000000       0.00000000      -4.50075531
Yb       0.00000000       0.00000000       2.47272727       0.00000000       0.00000000       4.50075531
2
Properties=species:S:1:pos:R:3:forces:R:3 energy=-2.738581173876738 pbc="F F F"
Yb       0.00000000       0.00000000       0.00000000       0.00000000       0.00000000      -3.94025564
Yb       0.00000000       0.00000000       2.53151515       0.00000000       0.00000000       3.94025564
2
Properties=species:S:1:pos:R:3:forces:R:3 energy=-2.9549409027542333 pbc="F F F"
Yb       0.00000000       0.00000000       0.00000000       0.00000000       0.00000000      -3.43093181
Yb       0.00000000       0.00000000       2.59030303       0.00000000       0.00000000       3.43093181
2
Properties=species:S:1:pos:R:3:forces:R:3 energy=-3.143333248255549 pbc="F F F"
Yb       0.00000000       0.00000000       0.00000000       0.00000000       0.00000000      -2.99046373
Yb       0.00000000       0.00000000       2.64909091       0.00000000       0.00000000       2.99046373
2
Properties=species:S:1:pos:R:3:forces:R:3 energy=-3.307984094323912 pbc="F F F"
Yb       0.00000000       0.00000000       0.00000000       0.00000000       0.00000000      -2.62285280
Yb       0.00000000       0.00000000       2.70787879       0.00000000       0.00000000       2.62285280
2
Properties=species:S:1:pos:R:3:forces:R:3 energy=-3.4530061330982753 pbc="F F F"
Yb       0.00000000       0.00000000       0.00000000       0.00000000       0.00000000      -2.32073855
Yb       0.00000000       0.00000000       2.76666667       0.00000000       0.00000000       2.32073855
2
Properties=species:S:1:pos:R:3:forces:R:3 energy=-3.5818495398355172 pbc="F F F"
Yb       0.00000000       0.00000000       0.00000000       0.00000000       0.00000000      -2.06976056
Yb       0.00000000       0.00000000       2.82545455       0.00000000       0.00000000       2.06976056
2
Properties=species:S:1:pos:R:3:forces:R:3 energy=-3.69702846478661 pbc="F F F"
Yb       0.00000000       0.00000000       0.00000000       0.00000000       0.00000000      -1.85295129
Yb       0.00000000       0.00000000       2.88424242       0.00000000       0.00000000       1.85295129
2
Properties=species:S:1:pos:R:3:forces:R:3 energy=-3.800069106295622 pbc="F F F"
Yb       0.00000000       0.00000000       0.00000000       0.00000000       0.00000000      -1.65447509
Yb       0.00000000       0.00000000       2.94303030       0.00000000       0.00000000       1.65447509
2
Properties=species:S:1:pos:R:3:forces:R:3 energy=-3.891677728541802 pbc="F F F"
Yb       0.00000000       0.00000000       0.00000000       0.00000000       0.00000000      -1.46249652
Yb       0.00000000       0.00000000       3.00181818       0.00000000       0.00000000       1.46249652
2
Properties=species:S:1:pos:R:3:forces:R:3 energy=-3.9720283123873164 pbc="F F F"
Yb       0.00000000       0.00000000       0.00000000       0.00000000       0.00000000      -1.27100241
Yb       0.00000000       0.00000000       3.06060606       0.00000000       0.00000000       1.27100241
2
Properties=species:S:1:pos:R:3:forces:R:3 energy=-4.041123584462447 pbc="F F F"
Yb       0.00000000       0.00000000       0.00000000       0.00000000       0.00000000      -1.08001614
Yb       0.00000000       0.00000000       3.11939394       0.00000000       0.00000000       1.08001614
2
Properties=species:S:1:pos:R:3:forces:R:3 energy=-4.099109421579343 pbc="F F F"
Yb       0.00000000       0.00000000       0.00000000       0.00000000       0.00000000      -0.89404738
Yb       0.00000000       0.00000000       3.17818182       0.00000000       0.00000000       0.89404738
2
Properties=species:S:1:pos:R:3:forces:R:3 energy=-4.146462806935725 pbc="F F F"
Yb       0.00000000       0.00000000       0.00000000       0.00000000       0.00000000      -0.71930844
Yb       0.00000000       0.00000000       3.23696970       0.00000000       0.00000000       0.71930844
2
Properties=species:S:1:pos:R:3:forces:R:3 energy=-4.184003862749537 pbc="F F F"
Yb       0.00000000       0.00000000       0.00000000       0.00000000       0.00000000      -0.56085223
Yb       0.00000000       0.00000000       3.29575758       0.00000000       0.00000000       0.56085223
2
Properties=species:S:1:pos:R:3:forces:R:3 energy=-4.212768448374588 pbc="F F F"
Yb       0.00000000       0.00000000       0.00000000       0.00000000       0.00000000      -0.42083198
Yb       0.00000000       0.00000000       3.35454545       0.00000000       0.00000000       0.42083198
2
Properties=species:S:1:pos:R:3:forces:R:3 energy=-4.2338272869621285 pbc="F F F"
Yb       0.00000000       0.00000000       0.00000000       0.00000000       0.00000000      -0.29828408
Yb       0.00000000       0.00000000       3.41333333       0.00000000       0.00000000       0.29828408
2
Properties=species:S:1:pos:R:3:forces:R:3 energy=-4.248122260596033 pbc="F F F"
Yb       0.00000000       0.00000000       0.00000000       0.00000000       0.00000000      -0.19013079
Yb       0.00000000       0.00000000       3.47212121       0.00000000       0.00000000       0.19013079
2
Properties=species:S:1:pos:R:3:forces:R:3 energy=-4.256390122683127 pbc="F F F"
Yb       0.00000000       0.00000000       0.00000000       0.00000000       0.00000000      -0.09263950
Yb       0.00000000       0.00000000       3.53090909       0.00000000       0.00000000       0.09263950
2
Properties=species:S:1:pos:R:3:forces:R:3 energy=-4.2591615506145155 pbc="F F F"
Yb       0.00000000       0.00000000       0.00000000       0.00000000       0.00000000      -0.00270671
Yb       0.00000000       0.00000000       3.58969697       0.00000000       0.00000000       0.00270671
2
Properties=species:S:1:pos:R:3:forces:R:3 energy=-4.256821843468851 pbc="F F F"
Yb       0.00000000       0.00000000       0.00000000       0.00000000       0.00000000       0.08138720
Yb       0.00000000       0.00000000       3.64848485       0.00000000       0.00000000      -0.08138720
2
Properties=species:S:1:pos:R:3:forces:R:3 energy=-4.249703778545297 pbc="F F F"
Yb       0.00000000       0.00000000       0.00000000       0.00000000       0.00000000       0.15973827
Yb       0.00000000       0.00000000       3.70727273       0.00000000       0.00000000      -0.15973827
2
Properties=species:S:1:pos:R:3:forces:R:3 energy=-4.238178737945897 pbc="F F F"
Yb       0.00000000       0.00000000       0.00000000       0.00000000       0.00000000       0.23098038
Yb       0.00000000       0.00000000       3.76606061       0.00000000       0.00000000      -0.23098038
2
Properties=species:S:1:pos:R:3:forces:R:3 energy=-4.22273258270453 pbc="F F F"
Yb       0.00000000       0.00000000       0.00000000       0.00000000       0.00000000       0.29271922
Yb       0.00000000       0.00000000       3.82484848       0.00000000       0.00000000      -0.29271922
2
Properties=species:S:1:pos:R:3:forces:R:3 energy=-4.204001753026759 pbc="F F F"
Yb       0.00000000       0.00000000       0.00000000       0.00000000       0.00000000       0.34225020
Yb       0.00000000       0.00000000       3.88363636       0.00000000       0.00000000      -0.34225020
2
Properties=species:S:1:pos:R:3:forces:R:3 energy=-4.182774907877567 pbc="F F F"
Yb       0.00000000       0.00000000       0.00000000       0.00000000       0.00000000       0.37739298
Yb       0.00000000       0.00000000       3.94242424       0.00000000       0.00000000      -0.37739298
2
Properties=species:S:1:pos:R:3:forces:R:3 energy=-4.159930796766614 pbc="F F F"
Yb       0.00000000       0.00000000       0.00000000       0.00000000       0.00000000       0.39725074
Yb       0.00000000       0.00000000       4.00121212       0.00000000       0.00000000      -0.39725074
2
Properties=species:S:1:pos:R:3:forces:R:3 energy=-4.136354005291056 pbc="F F F"
Yb       0.00000000       0.00000000       0.00000000       0.00000000       0.00000000       0.40255186
Yb       0.00000000       0.00000000       4.06000000       0.00000000       0.00000000      -0.40255186
2
Properties=species:S:1:pos:R:3:forces:R:3 energy=-4.112842925564014 pbc="F F F"
Yb       0.00000000       0.00000000       0.00000000       0.00000000       0.00000000       0.39549083
Yb       0.00000000       0.00000000       4.11878788       0.00000000       0.00000000      -0.39549083
2
Properties=species:S:1:pos:R:3:forces:R:3 energy=-4.09003469237602 pbc="F F F"
Yb       0.00000000       0.00000000       0.00000000       0.00000000       0.00000000       0.37919870
Yb       0.00000000       0.00000000       4.17757576       0.00000000       0.00000000      -0.37919870
2
Properties=species:S:1:pos:R:3:forces:R:3 energy=-4.068371365770647 pbc="F F F"
Yb       0.00000000       0.00000000       0.00000000       0.00000000       0.00000000       0.35712582
Yb       0.00000000       0.00000000       4.23636364       0.00000000       0.00000000      -0.35712582
2
Properties=species:S:1:pos:R:3:forces:R:3 energy=-4.048094008593904 pbc="F F F"
Yb       0.00000000       0.00000000       0.00000000       0.00000000       0.00000000       0.33254349
Yb       0.00000000       0.00000000       4.29515152       0.00000000       0.00000000      -0.33254349
2
Properties=species:S:1:pos:R:3:forces:R:3 energy=-4.029266604379875 pbc="F F F"
Yb       0.00000000       0.00000000       0.00000000       0.00000000       0.00000000       0.30824256
Yb       0.00000000       0.00000000       4.35393939       0.00000000       0.00000000      -0.30824256
2
Properties=species:S:1:pos:R:3:forces:R:3 energy=-4.0118048933275 pbc="F F F"
Yb       0.00000000       0.00000000       0.00000000       0.00000000       0.00000000       0.28635272
Yb       0.00000000       0.00000000       4.41272727       0.00000000       0.00000000      -0.28635272
2
Properties=species:S:1:pos:R:3:forces:R:3 energy=-3.9955231720341677 pbc="F F F"
Yb       0.00000000       0.00000000       0.00000000       0.00000000       0.00000000       0.26826751
Yb       0.00000000       0.00000000       4.47151515       0.00000000       0.00000000      -0.26826751
2
Properties=species:S:1:pos:R:3:forces:R:3 energy=-3.980175848020567 pbc="F F F"
Yb       0.00000000       0.00000000       0.00000000       0.00000000       0.00000000       0.25459599
Yb       0.00000000       0.00000000       4.53030303       0.00000000       0.00000000      -0.25459599
2
Properties=species:S:1:pos:R:3:forces:R:3 energy=-3.965505110775217 pbc="F F F"
Yb       0.00000000       0.00000000       0.00000000       0.00000000       0.00000000       0.24518113
Yb       0.00000000       0.00000000       4.58909091       0.00000000       0.00000000      -0.24518113
2
Properties=species:S:1:pos:R:3:forces:R:3 energy=-3.9512815262693586 pbc="F F F"
Yb       0.00000000       0.00000000       0.00000000       0.00000000       0.00000000       0.23918703
Yb       0.00000000       0.00000000       4.64787879       0.00000000       0.00000000      -0.23918703
2
Properties=species:S:1:pos:R:3:forces:R:3 energy=-3.9373410108436477 pbc="F F F"
Yb       0.00000000       0.00000000       0.00000000       0.00000000       0.00000000       0.23528187
Yb       0.00000000       0.00000000       4.70666667       0.00000000       0.00000000      -0.23528187
2
Properties=species:S:1:pos:R:3:forces:R:3 energy=-3.9236070231429445 pbc="F F F"
Yb       0.00000000       0.00000000       0.00000000       0.00000000       0.00000000       0.23193021
Yb       0.00000000       0.00000000       4.76545455       0.00000000       0.00000000      -0.23193021
2
Properties=species:S:1:pos:R:3:forces:R:3 energy=-3.9100882306156772 pbc="F F F"
Yb       0.00000000       0.00000000       0.00000000       0.00000000       0.00000000       0.22775044
Yb       0.00000000       0.00000000       4.82424242       0.00000000       0.00000000      -0.22775044
2
Properties=species:S:1:pos:R:3:forces:R:3 energy=-3.8968637022193593 pbc="F F F"
Yb       0.00000000       0.00000000       0.00000000       0.00000000       0.00000000       0.22187403
Yb       0.00000000       0.00000000       4.88303030       0.00000000       0.00000000      -0.22187403
2
Properties=species:S:1:pos:R:3:forces:R:3 energy=-3.8840373324581177 pbc="F F F"
Yb       0.00000000       0.00000000       0.00000000       0.00000000       0.00000000       0.21418701
Yb       0.00000000       0.00000000       4.94181818       0.00000000       0.00000000      -0.21418701
2
Properties=species:S:1:pos:R:3:forces:R:3 energy=-3.871702323350048 pbc="F F F"
Yb       0.00000000       0.00000000       0.00000000       0.00000000       0.00000000       0.20534731
Yb       0.00000000       0.00000000       5.00060606       0.00000000       0.00000000      -0.20534731
2
Properties=species:S:1:pos:R:3:forces:R:3 energy=-3.859893074559393 pbc="F F F"
Yb       0.00000000       0.00000000       0.00000000       0.00000000       0.00000000       0.19650407
Yb       0.00000000       0.00000000       5.05939394       0.00000000       0.00000000      -0.19650407
2
Properties=species:S:1:pos:R:3:forces:R:3 energy=-3.848577144521035 pbc="F F F"
Yb       0.00000000       0.00000000       0.00000000       0.00000000       0.00000000       0.18869755
Yb       0.00000000       0.00000000       5.11818182       0.00000000       0.00000000      -0.18869755
2
Properties=species:S:1:pos:R:3:forces:R:3 energy=-3.837684865029458 pbc="F F F"
Yb       0.00000000       0.00000000       0.00000000       0.00000000       0.00000000       0.18199041
Yb       0.00000000       0.00000000       5.17696970       0.00000000       0.00000000      -0.18199041
2
Properties=species:S:1:pos:R:3:forces:R:3 energy=-3.8271897809986677 pbc="F F F"
Yb       0.00000000       0.00000000       0.00000000       0.00000000       0.00000000       0.17475894
Yb       0.00000000       0.00000000       5.23575758       0.00000000       0.00000000      -0.17475894
2
Properties=species:S:1:pos:R:3:forces:R:3 energy=-3.817198101778862 pbc="F F F"
Yb       0.00000000       0.00000000       0.00000000       0.00000000       0.00000000       0.16457900
Yb       0.00000000       0.00000000       5.29454545       0.00000000       0.00000000      -0.16457900
2
Properties=species:S:1:pos:R:3:forces:R:3 energy=-3.8078782219557787 pbc="F F F"
Yb       0.00000000       0.00000000       0.00000000       0.00000000       0.00000000       0.15270470
Yb       0.00000000       0.00000000       5.35333333       0.00000000       0.00000000      -0.15270470
2
Properties=species:S:1:pos:R:3:forces:R:3 energy=-3.799111079336491 pbc="F F F"
Yb       0.00000000       0.00000000       0.00000000       0.00000000       0.00000000       0.14742768
Yb       0.00000000       0.00000000       5.41212121       0.00000000       0.00000000      -0.14742768
2
Properties=species:S:1:pos:R:3:forces:R:3 energy=-3.790325690479337 pbc="F F F"
Yb       0.00000000       0.00000000       0.00000000       0.00000000       0.00000000       0.15252624
Yb       0.00000000       0.00000000       5.47090909       0.00000000       0.00000000      -0.15252624
2
Properties=species:S:1:pos:R:3:forces:R:3 energy=-3.7812342245156065 pbc="F F F"
Yb       0.00000000       0.00000000       0.00000000       0.00000000       0.00000000       0.15484664
Yb       0.00000000       0.00000000       5.52969697       0.00000000       0.00000000      -0.15484664
2
Properties=species:S:1:pos:R:3:forces:R:3 energy=-3.7723913268004714 pbc="F F F"
Yb       0.00000000       0.00000000       0.00000000       0.00000000       0.00000000       0.14420615
Yb       0.00000000       0.00000000       5.58848485       0.00000000       0.00000000      -0.14420615
2
Properties=species:S:1:pos:R:3:forces:R:3 energy=-3.7643090457909145 pbc="F F F"
Yb       0.00000000       0.00000000       0.00000000       0.00000000       0.00000000       0.13239971
Yb       0.00000000       0.00000000       5.64727273       0.00000000       0.00000000      -0.13239971
2
Properties=species:S:1:pos:R:3:forces:R:3 energy=-3.7564434337073087 pbc="F F F"
Yb       0.00000000       0.00000000       0.00000000       0.00000000       0.00000000       0.13928759
Yb       0.00000000       0.00000000       5.70606061       0.00000000       0.00000000      -0.13928759
2
Properties=species:S:1:pos:R:3:forces:R:3 energy=-3.7476095794266557 pbc="F F F"
Yb       0.00000000       0.00000000       0.00000000       0.00000000       0.00000000       0.16046956
Yb       0.00000000       0.00000000       5.76484848       0.00000000       0.00000000      -0.16046956
2
Properties=species:S:1:pos:R:3:forces:R:3 energy=-3.7380850037116846 pbc="F F F"
Yb       0.00000000       0.00000000       0.00000000       0.00000000       0.00000000       0.15650815
Yb       0.00000000       0.00000000       5.82363636       0.00000000       0.00000000      -0.15650815
2
Properties=species:S:1:pos:R:3:forces:R:3 energy=-3.730122972075753 pbc="F F F"
Yb       0.00000000       0.00000000       0.00000000       0.00000000       0.00000000       0.10929824
Yb       0.00000000       0.00000000       5.88242424       0.00000000       0.00000000      -0.10929824
2
Properties=species:S:1:pos:R:3:forces:R:3 energy=-3.7253917707054263 pbc="F F F"
Yb       0.00000000       0.00000000       0.00000000       0.00000000       0.00000000       0.05372139
Yb       0.00000000       0.00000000       5.94121212       0.00000000       0.00000000      -0.05372139
2
Properties=species:S:1:pos:R:3:forces:R:3 energy=-3.723145721512459 pbc="F F F"
Yb       0.00000000       0.00000000       0.00000000       0.00000000       0.00000000       0.03022114
Yb       0.00000000       0.00000000       6.00000000       0.00000000       0.00000000      -0.03022114
