2
Properties=species:S:1:pos:R:3:forces:R:3 energy=4584.740387047705 pbc="F F F"
Zn       0.00000000       0.00000000       0.00000000       0.00000000       0.00000000  -65861.70312500
Zn       0.00000000       0.00000000       0.18000000       0.00000000       0.00000000   65861.70312500
2
Properties=species:S:1:pos:R:3:forces:R:3 energy=2198.0140686883296 pbc="F F F"
Zn       0.00000000       0.00000000       0.00000000       0.00000000       0.00000000  -23757.00390625
Zn       0.00000000       0.00000000       0.23878788       0.00000000       0.00000000   23757.00390625
2
Properties=species:S:1:pos:R:3:forces:R:3 energy=1269.1980286524347 pbc="F F F"
Zn       0.00000000       0.00000000       0.00000000       0.00000000       0.00000000  -10106.66015625
Zn       0.00000000       0.00000000       0.29757576       0.00000000       0.00000000   10106.66015625
2
Properties=species:S:1:pos:R:3:forces:R:3 energy=853.4565735774776 pbc="F F F"
Zn       0.00000000       0.00000000       0.00000000       0.00000000       0.00000000   -4799.76074219
Zn       0.00000000       0.00000000       0.35636364       0.00000000       0.00000000    4799.76074219
2
Properties=species:S:1:pos:R:3:forces:R:3 energy=648.0162049314695 pbc="F F F"
Zn       0.00000000       0.00000000       0.00000000       0.00000000       0.00000000   -2491.14477539
Zn       0.00000000       0.00000000       0.41515152       0.00000000       0.00000000    2491.14477539
2
Properties=species:S:1:pos:R:3:forces:R:3 energy=536.708770871613 pbc="F F F"
Zn       0.00000000       0.00000000       0.00000000       0.00000000       0.00000000   -1430.59191895
Zn       0.00000000       0.00000000       0.47393939       0.00000000       0.00000000    1430.59191895
2
Properties=species:S:1:pos:R:3:forces:R:3 energy=468.6022035204787 pbc="F F F"
Zn       0.00000000       0.00000000       0.00000000       0.00000000       0.00000000    -953.45245361
Zn       0.00000000       0.00000000       0.53272727       0.00000000       0.00000000     953.45245361
2
Properties=species:S:1:pos:R:3:forces:R:3 energy=418.79885884460134 pbc="F F F"
Zn       0.00000000       0.00000000       0.00000000       0.00000000       0.00000000    -777.02661133
Zn       0.00000000       0.00000000       0.59151515       0.00000000       0.00000000     777.02661133
2
Properties=species:S:1:pos:R:3:forces:R:3 energy=374.0663760294798 pbc="F F F"
Zn       0.00000000       0.00000000       0.00000000       0.00000000       0.00000000    -764.24163818
Zn       0.00000000       0.00000000       0.65030303       0.00000000       0.00000000     764.24163818
2
Properties=species:S:1:pos:R:3:forces:R:3 energy=327.4809269564496 pbc="F F F"
Zn       0.00000000       0.00000000       0.00000000       0.00000000       0.00000000    -825.73468018
Zn       0.00000000       0.00000000       0.70909091       0.00000000       0.00000000     825.73468018
2
Properties=species:S:1:pos:R:3:forces:R:3 energy=276.6931769340565 pbc="F F F"
Zn       0.00000000       0.00000000       0.00000000       0.00000000       0.00000000    -904.13275146
Zn       0.00000000       0.00000000       0.76787879       0.00000000       0.00000000     904.13275146
2
Properties=species:S:1:pos:R:3:forces:R:3 energy=222.11566261824035 pbc="F F F"
Zn       0.00000000       0.00000000       0.00000000       0.00000000       0.00000000    -936.45275879
Zn       0.00000000       0.00000000       0.82666667       0.00000000       0.00000000     936.45275879
2
Properties=species:S:1:pos:R:3:forces:R:3 energy=168.88084558536303 pbc="F F F"
Zn       0.00000000       0.00000000       0.00000000       0.00000000       0.00000000    -856.34747314
Zn       0.00000000       0.00000000       0.88545455       0.00000000       0.00000000     856.34747314
2
Properties=species:S:1:pos:R:3:forces:R:3 energy=122.99151824134036 pbc="F F F"
Zn       0.00000000       0.00000000       0.00000000       0.00000000       0.00000000    -696.33166504
Zn       0.00000000       0.00000000       0.94424242       0.00000000       0.00000000     696.33166504
2
Properties=species:S:1:pos:R:3:forces:R:3 energy=87.51867979820439 pbc="F F F"
Zn       0.00000000       0.00000000       0.00000000       0.00000000       0.00000000    -507.01119995
Zn       0.00000000       0.00000000       1.00303030       0.00000000       0.00000000     507.01119995
2
Properties=species:S:1:pos:R:3:forces:R:3 energy=63.32872435911249 pbc="F F F"
Zn       0.00000000       0.00000000       0.00000000       0.00000000       0.00000000    -327.45825195
Zn       0.00000000       0.00000000       1.06181818       0.00000000       0.00000000     327.45825195
2
Properties=species:S:1:pos:R:3:forces:R:3 energy=46.86843317121097 pbc="F F F"
Zn       0.00000000       0.00000000       0.00000000       0.00000000       0.00000000    -246.04611206
Zn       0.00000000       0.00000000       1.12060606       0.00000000       0.00000000     246.04611206
2
Properties=species:S:1:pos:R:3:forces:R:3 energy=34.037292877618164 pbc="F F F"
Zn       0.00000000       0.00000000       0.00000000       0.00000000       0.00000000    -187.76562500
Zn       0.00000000       0.00000000       1.17939394       0.00000000       0.00000000     187.76562500
2
Properties=species:S:1:pos:R:3:forces:R:3 energy=24.91099673554013 pbc="F F F"
Zn       0.00000000       0.00000000       0.00000000       0.00000000       0.00000000    -125.36455536
Zn       0.00000000       0.00000000       1.23818182       0.00000000       0.00000000     125.36455536
2
Properties=species:S:1:pos:R:3:forces:R:3 energy=18.742083559055676 pbc="F F F"
Zn       0.00000000       0.00000000       0.00000000       0.00000000       0.00000000     -88.90269470
Zn       0.00000000       0.00000000       1.29696970       0.00000000       0.00000000      88.90269470
2
Properties=species:S:1:pos:R:3:forces:R:3 energy=14.228283586787102 pbc="F F F"
Zn       0.00000000       0.00000000       0.00000000       0.00000000       0.00000000     -64.70403290
Zn       0.00000000       0.00000000       1.35575758       0.00000000       0.00000000      64.70403290
2
Properties=species:S:1:pos:R:3:forces:R:3 energy=11.113210248738945 pbc="F F F"
Zn       0.00000000       0.00000000       0.00000000       0.00000000       0.00000000     -42.31000519
Zn       0.00000000       0.00000000       1.41454545       0.00000000       0.00000000      42.31000519
2
Properties=species:S:1:pos:R:3:forces:R:3 energy=9.06981354810988 pbc="F F F"
Zn       0.00000000       0.00000000       0.00000000       0.00000000       0.00000000     -28.79175949
Zn       0.00000000       0.00000000       1.47333333       0.00000000       0.00000000      28.79175949
2
Properties=species:S:1:pos:R:3:forces:R:3 energy=7.5862967680247975 pbc="F F F"
Zn       0.00000000       0.00000000       0.00000000       0.00000000       0.00000000     -22.47473907
Zn       0.00000000       0.00000000       1.53212121       0.00000000       0.00000000      22.47473907
2
Properties=species:S:1:pos:R:3:forces:R:3 energy=6.370248840883057 pbc="F F F"
Zn       0.00000000       0.00000000       0.00000000       0.00000000       0.00000000     -19.15616226
Zn       0.00000000       0.00000000       1.59090909       0.00000000       0.00000000      19.15616226
2
Properties=species:S:1:pos:R:3:forces:R:3 energy=5.317800970077179 pbc="F F F"
Zn       0.00000000       0.00000000       0.00000000       0.00000000       0.00000000     -16.71178246
Zn       0.00000000       0.00000000       1.64969697       0.00000000       0.00000000      16.71178246
2
Properties=species:S:1:pos:R:3:forces:R:3 energy=4.4013830093273265 pbc="F F F"
Zn       0.00000000       0.00000000       0.00000000       0.00000000       0.00000000     -14.48711109
Zn       0.00000000       0.00000000       1.70848485       0.00000000       0.00000000      14.48711109
2
Properties=species:S:1:pos:R:3:forces:R:3 energy=3.6117857242334876 pbc="F F F"
Zn       0.00000000       0.00000000       0.00000000       0.00000000       0.00000000     -12.40180588
Zn       0.00000000       0.00000000       1.76727273       0.00000000       0.00000000      12.40180588
2
Properties=species:S:1:pos:R:3:forces:R:3 energy=2.9397273077767734 pbc="F F F"
Zn       0.00000000       0.00000000       0.00000000       0.00000000       0.00000000     -10.49433994
Zn       0.00000000       0.00000000       1.82606061       0.00000000       0.00000000      10.49433994
2
Properties=species:S:1:pos:R:3:forces:R:3 energy=2.373996769822379 pbc="F F F"
Zn       0.00000000       0.00000000       0.00000000       0.00000000       0.00000000      -8.78554821
Zn       0.00000000       0.00000000       1.88484848       0.00000000       0.00000000       8.78554821
2
Properties=species:S:1:pos:R:3:forces:R:3 energy=1.9028571161486423 pbc="F F F"
Zn       0.00000000       0.00000000       0.00000000       0.00000000       0.00000000      -7.27570295
Zn       0.00000000       0.00000000       1.94363636       0.00000000       0.00000000       7.27570295
2
Properties=species:S:1:pos:R:3:forces:R:3 energy=1.5147138209456021 pbc="F F F"
Zn       0.00000000       0.00000000       0.00000000       0.00000000       0.00000000      -5.96174288
Zn       0.00000000       0.00000000       2.00242424       0.00000000       0.00000000       5.96174288
2
Properties=species:S:1:pos:R:3:forces:R:3 energy=1.1981046148134993 pbc="F F F"
Zn       0.00000000       0.00000000       0.00000000       0.00000000       0.00000000      -4.84144449
Zn       0.00000000       0.00000000       2.06121212       0.00000000       0.00000000       4.84144449
2
Properties=species:S:1:pos:R:3:forces:R:3 energy=0.9418164167959939 pbc="F F F"
Zn       0.00000000       0.00000000       0.00000000       0.00000000       0.00000000      -3.90761375
Zn       0.00000000       0.00000000       2.12000000       0.00000000       0.00000000       3.90761375
2
Properties=species:S:1:pos:R:3:forces:R:3 energy=0.7353162257399529 pbc="F F F"
Zn       0.00000000       0.00000000       0.00000000       0.00000000       0.00000000      -3.14440465
Zn       0.00000000       0.00000000       2.17878788       0.00000000       0.00000000       3.14440465
2
Properties=species:S:1:pos:R:3:forces:R:3 energy=0.5691953979253759 pbc="F F F"
Zn       0.00000000       0.00000000       0.00000000       0.00000000       0.00000000      -2.52993584
Zn       0.00000000       0.00000000       2.23757576       0.00000000       0.00000000       2.52993584
2
Properties=species:S:1:pos:R:3:forces:R:3 energy=0.4354003877831647 pbc="F F F"
Zn       0.00000000       0.00000000       0.00000000       0.00000000       0.00000000      -2.04085684
Zn       0.00000000       0.00000000       2.29636364       0.00000000       0.00000000       2.04085684
2
Properties=species:S:1:pos:R:3:forces:R:3 energy=0.3272160113674955 pbc="F F F"
Zn       0.00000000       0.00000000       0.00000000       0.00000000       0.00000000      -1.65518641
Zn       0.00000000       0.00000000       2.35515152       0.00000000       0.00000000       1.65518641
2
Properties=species:S:1:pos:R:3:forces:R:3 energy=0.23915653009021764 pbc="F F F"
Zn       0.00000000       0.00000000       0.00000000       0.00000000       0.00000000      -1.35296893
Zn       0.00000000       0.00000000       2.41393939       0.00000000       0.00000000       1.35296893
2
Properties=species:S:1:pos:R:3:forces:R:3 energy=0.1668711170939737 pbc="F F F"
Zn       0.00000000       0.00000000       0.00000000       0.00000000       0.00000000      -1.11540258
Zn       0.00000000       0.00000000       2.47272727       0.00000000       0.00000000       1.11540258
2
Properties=species:S:1:pos:R:3:forces:R:3 energy=0.10713646269402338 pbc="F F F"
Zn       0.00000000       0.00000000       0.00000000       0.00000000       0.00000000      -0.92240280
Zn       0.00000000       0.00000000       2.53151515       0.00000000       0.00000000       0.92240280
2
Properties=species:S:1:pos:R:3:forces:R:3 energy=0.057981379032964284 pbc="F F F"
Zn       0.00000000       0.00000000       0.00000000       0.00000000       0.00000000      -0.75199682
Zn       0.00000000       0.00000000       2.59030303       0.00000000       0.00000000       0.75199682
2
Properties=species:S:1:pos:R:3:forces:R:3 energy=0.01856326609145019 pbc="F F F"
Zn       0.00000000       0.00000000       0.00000000       0.00000000       0.00000000      -0.59039551
Zn       0.00000000       0.00000000       2.64909091       0.00000000       0.00000000       0.59039551
2
Properties=species:S:1:pos:R:3:forces:R:3 energy=-0.011703502177280702 pbc="F F F"
Zn       0.00000000       0.00000000       0.00000000       0.00000000       0.00000000      -0.44263956
Zn       0.00000000       0.00000000       2.70787879       0.00000000       0.00000000       0.44263956
2
Properties=species:S:1:pos:R:3:forces:R:3 energy=-0.033954537033689836 pbc="F F F"
Zn       0.00000000       0.00000000       0.00000000       0.00000000       0.00000000      -0.31866679
Zn       0.00000000       0.00000000       2.76666667       0.00000000       0.00000000       0.31866679
2
Properties=species:S:1:pos:R:3:forces:R:3 energy=-0.04966044159204301 pbc="F F F"
Zn       0.00000000       0.00000000       0.00000000       0.00000000       0.00000000      -0.21957779
Zn       0.00000000       0.00000000       2.82545455       0.00000000       0.00000000       0.21957779
2
Properties=species:S:1:pos:R:3:forces:R:3 energy=-0.060207100238926885 pbc="F F F"
Zn       0.00000000       0.00000000       0.00000000       0.00000000       0.00000000      -0.14277439
Zn       0.00000000       0.00000000       2.88424242       0.00000000       0.00000000       0.14277439
2
Properties=species:S:1:pos:R:3:forces:R:3 energy=-0.06685221839932448 pbc="F F F"
Zn       0.00000000       0.00000000       0.00000000       0.00000000       0.00000000      -0.08662673
Zn       0.00000000       0.00000000       2.94303030       0.00000000       0.00000000       0.08662673
2
Properties=species:S:1:pos:R:3:forces:R:3 energy=-0.07076715795424578 pbc="F F F"
Zn       0.00000000       0.00000000       0.00000000       0.00000000       0.00000000      -0.04955060
Zn       0.00000000       0.00000000       3.00181818       0.00000000       0.00000000       0.04955060
2
Properties=species:S:1:pos:R:3:forces:R:3 energy=-0.0729946211204367 pbc="F F F"
Zn       0.00000000       0.00000000       0.00000000       0.00000000       0.00000000      -0.02857054
Zn       0.00000000       0.00000000       3.06060606       0.00000000       0.00000000       0.02857054
2
Properties=species:S:1:pos:R:3:forces:R:3 energy=-0.07435540341795104 pbc="F F F"
Zn       0.00000000       0.00000000       0.00000000       0.00000000       0.00000000      -0.01925392
Zn       0.00000000       0.00000000       3.11939394       0.00000000       0.00000000       0.01925392
2
Properties=species:S:1:pos:R:3:forces:R:3 energy=-0.07538816475998489 pbc="F F F"
Zn       0.00000000       0.00000000       0.00000000       0.00000000       0.00000000      -0.01658485
Zn       0.00000000       0.00000000       3.17818182       0.00000000       0.00000000       0.01658485
2
Properties=species:S:1:pos:R:3:forces:R:3 energy=-0.0763464171650153 pbc="F F F"
Zn       0.00000000       0.00000000       0.00000000       0.00000000       0.00000000      -0.01605423
Zn       0.00000000       0.00000000       3.23696970       0.00000000       0.00000000       0.01605423
2
Properties=species:S:1:pos:R:3:forces:R:3 energy=-0.07725377870457276 pbc="F F F"
Zn       0.00000000       0.00000000       0.00000000       0.00000000       0.00000000      -0.01446117
Zn       0.00000000       0.00000000       3.29575758       0.00000000       0.00000000       0.01446117
2
Properties=species:S:1:pos:R:3:forces:R:3 energy=-0.07799357149093653 pbc="F F F"
Zn       0.00000000       0.00000000       0.00000000       0.00000000       0.00000000      -0.01020102
Zn       0.00000000       0.00000000       3.35454545       0.00000000       0.00000000       0.01020102
2
Properties=species:S:1:pos:R:3:forces:R:3 energy=-0.07839666052708472 pbc="F F F"
Zn       0.00000000       0.00000000       0.00000000       0.00000000       0.00000000      -0.00307705
Zn       0.00000000       0.00000000       3.41333333       0.00000000       0.00000000       0.00307705
2
Properties=species:S:1:pos:R:3:forces:R:3 energy=-0.078313329877956 pbc="F F F"
Zn       0.00000000       0.00000000       0.00000000       0.00000000       0.00000000       0.00616713
Zn       0.00000000       0.00000000       3.47212121       0.00000000       0.00000000      -0.00616713
2
Properties=species:S:1:pos:R:3:forces:R:3 energy=-0.07765279088273636 pbc="F F F"
Zn       0.00000000       0.00000000       0.00000000       0.00000000       0.00000000       0.01636460
Zn       0.00000000       0.00000000       3.53090909       0.00000000       0.00000000      -0.01636460
2
Properties=species:S:1:pos:R:3:forces:R:3 energy=-0.07639400953412492 pbc="F F F"
Zn       0.00000000       0.00000000       0.00000000       0.00000000       0.00000000       0.02633923
Zn       0.00000000       0.00000000       3.58969697       0.00000000       0.00000000      -0.02633923
2
Properties=species:S:1:pos:R:3:forces:R:3 energy=-0.07457900790192493 pbc="F F F"
Zn       0.00000000       0.00000000       0.00000000       0.00000000       0.00000000       0.03514915
Zn       0.00000000       0.00000000       3.64848485       0.00000000       0.00000000      -0.03514915
2
Properties=species:S:1:pos:R:3:forces:R:3 energy=-0.07229629476299704 pbc="F F F"
Zn       0.00000000       0.00000000       0.00000000       0.00000000       0.00000000       0.04218429
Zn       0.00000000       0.00000000       3.70727273       0.00000000       0.00000000      -0.04218429
2
Properties=species:S:1:pos:R:3:forces:R:3 energy=-0.0696596052057933 pbc="F F F"
Zn       0.00000000       0.00000000       0.00000000       0.00000000       0.00000000       0.04715640
Zn       0.00000000       0.00000000       3.76606061       0.00000000       0.00000000      -0.04715640
2
Properties=species:S:1:pos:R:3:forces:R:3 energy=-0.06679299367773321 pbc="F F F"
Zn       0.00000000       0.00000000       0.00000000       0.00000000       0.00000000       0.05002965
Zn       0.00000000       0.00000000       3.82484848       0.00000000       0.00000000      -0.05002965
2
Properties=species:S:1:pos:R:3:forces:R:3 energy=-0.06381602834987268 pbc="F F F"
Zn       0.00000000       0.00000000       0.00000000       0.00000000       0.00000000       0.05093342
Zn       0.00000000       0.00000000       3.88363636       0.00000000       0.00000000      -0.05093342
2
Properties=species:S:1:pos:R:3:forces:R:3 energy=-0.06083888938258013 pbc="F F F"
Zn       0.00000000       0.00000000       0.00000000       0.00000000       0.00000000       0.05008062
Zn       0.00000000       0.00000000       3.94242424       0.00000000       0.00000000      -0.05008062
2
Properties=species:S:1:pos:R:3:forces:R:3 energy=-0.05795737062136864 pbc="F F F"
Zn       0.00000000       0.00000000       0.00000000       0.00000000       0.00000000       0.04771786
Zn       0.00000000       0.00000000       4.00121212       0.00000000       0.00000000      -0.04771786
2
Properties=species:S:1:pos:R:3:forces:R:3 energy=-0.05525285630720457 pbc="F F F"
Zn       0.00000000       0.00000000       0.00000000       0.00000000       0.00000000       0.04411136
Zn       0.00000000       0.00000000       4.06000000       0.00000000       0.00000000      -0.04411136
2
Properties=species:S:1:pos:R:3:forces:R:3 energy=-0.052789548443052316 pbc="F F F"
Zn       0.00000000       0.00000000       0.00000000       0.00000000       0.00000000       0.03955965
Zn       0.00000000       0.00000000       4.11878788       0.00000000       0.00000000      -0.03955965
2
Properties=species:S:1:pos:R:3:forces:R:3 energy=-0.05061336667853813 pbc="F F F"
Zn       0.00000000       0.00000000       0.00000000       0.00000000       0.00000000       0.03441320
Zn       0.00000000       0.00000000       4.17757576       0.00000000       0.00000000      -0.03441320
2
Properties=species:S:1:pos:R:3:forces:R:3 energy=-0.048747347319921114 pbc="F F F"
Zn       0.00000000       0.00000000       0.00000000       0.00000000       0.00000000       0.02907063
Zn       0.00000000       0.00000000       4.23636364       0.00000000       0.00000000      -0.02907063
2
Properties=species:S:1:pos:R:3:forces:R:3 energy=-0.04719102486563398 pbc="F F F"
Zn       0.00000000       0.00000000       0.00000000       0.00000000       0.00000000       0.02394441
Zn       0.00000000       0.00000000       4.29515152       0.00000000       0.00000000      -0.02394441
2
Properties=species:S:1:pos:R:3:forces:R:3 energy=-0.04592043385567422 pbc="F F F"
Zn       0.00000000       0.00000000       0.00000000       0.00000000       0.00000000       0.01940331
Zn       0.00000000       0.00000000       4.35393939       0.00000000       0.00000000      -0.01940331
2
Properties=species:S:1:pos:R:3:forces:R:3 energy=-0.04489285720552612 pbc="F F F"
Zn       0.00000000       0.00000000       0.00000000       0.00000000       0.00000000       0.01571606
Zn       0.00000000       0.00000000       4.41272727       0.00000000       0.00000000      -0.01571606
2
Properties=species:S:1:pos:R:3:forces:R:3 energy=-0.04405311020017219 pbc="F F F"
Zn       0.00000000       0.00000000       0.00000000       0.00000000       0.00000000       0.01301644
Zn       0.00000000       0.00000000       4.47151515       0.00000000       0.00000000      -0.01301644
2
Properties=species:S:1:pos:R:3:forces:R:3 energy=-0.04334309343034145 pbc="F F F"
Zn       0.00000000       0.00000000       0.00000000       0.00000000       0.00000000       0.01129712
Zn       0.00000000       0.00000000       4.53030303       0.00000000       0.00000000      -0.01129712
2
Properties=species:S:1:pos:R:3:forces:R:3 energy=-0.04270810430595488 pbc="F F F"
Zn       0.00000000       0.00000000       0.00000000       0.00000000       0.00000000       0.01043179
Zn       0.00000000       0.00000000       4.58909091       0.00000000       0.00000000      -0.01043179
2
Properties=species:S:1:pos:R:3:forces:R:3 energy=-0.042103838372013924 pbc="F F F"
Zn       0.00000000       0.00000000       0.00000000       0.00000000       0.00000000       0.01021267
Zn       0.00000000       0.00000000       4.64787879       0.00000000       0.00000000      -0.01021267
2
Properties=species:S:1:pos:R:3:forces:R:3 energy=-0.04149937681443307 pbc="F F F"
Zn       0.00000000       0.00000000       0.00000000       0.00000000       0.00000000       0.01040052
Zn       0.00000000       0.00000000       4.70666667       0.00000000       0.00000000      -0.01040052
2
Properties=species:S:1:pos:R:3:forces:R:3 energy=-0.04087729735603872 pbc="F F F"
Zn       0.00000000       0.00000000       0.00000000       0.00000000       0.00000000       0.01077978
Zn       0.00000000       0.00000000       4.76545455       0.00000000       0.00000000      -0.01077978
2
Properties=species:S:1:pos:R:3:forces:R:3 energy=-0.040230907241841515 pbc="F F F"
Zn       0.00000000       0.00000000       0.00000000       0.00000000       0.00000000       0.01121645
Zn       0.00000000       0.00000000       4.82424242       0.00000000       0.00000000      -0.01121645
2
Properties=species:S:1:pos:R:3:forces:R:3 energy=-0.0395574779348675 pbc="F F F"
Zn       0.00000000       0.00000000       0.00000000       0.00000000       0.00000000       0.01170920
Zn       0.00000000       0.00000000       4.88303030       0.00000000       0.00000000      -0.01170920
2
Properties=species:S:1:pos:R:3:forces:R:3 energy=-0.03885016254138753 pbc="F F F"
Zn       0.00000000       0.00000000       0.00000000       0.00000000       0.00000000       0.01241413
Zn       0.00000000       0.00000000       4.94181818       0.00000000       0.00000000      -0.01241413
2
Properties=species:S:1:pos:R:3:forces:R:3 energy=-0.038088516013312396 pbc="F F F"
Zn       0.00000000       0.00000000       0.00000000       0.00000000       0.00000000       0.01360186
Zn       0.00000000       0.00000000       5.00060606       0.00000000       0.00000000      -0.01360186
2
Properties=species:S:1:pos:R:3:forces:R:3 energy=-0.03723627239307614 pbc="F F F"
Zn       0.00000000       0.00000000       0.00000000       0.00000000       0.00000000       0.01552747
Zn       0.00000000       0.00000000       5.05939394       0.00000000       0.00000000      -0.01552747
2
Properties=species:S:1:pos:R:3:forces:R:3 energy=-0.036247536892073697 pbc="F F F"
Zn       0.00000000       0.00000000       0.00000000       0.00000000       0.00000000       0.01822069
Zn       0.00000000       0.00000000       5.11818182       0.00000000       0.00000000      -0.01822069
2
Properties=species:S:1:pos:R:3:forces:R:3 energy=-0.03508611497961759 pbc="F F F"
Zn       0.00000000       0.00000000       0.00000000       0.00000000       0.00000000       0.02130231
Zn       0.00000000       0.00000000       5.17696970       0.00000000       0.00000000      -0.02130231
2
Properties=species:S:1:pos:R:3:forces:R:3 energy=-0.03375037042215136 pbc="F F F"
Zn       0.00000000       0.00000000       0.00000000       0.00000000       0.00000000       0.02400224
Zn       0.00000000       0.00000000       5.23575758       0.00000000       0.00000000      -0.02400224
2
Properties=species:S:1:pos:R:3:forces:R:3 energy=-0.0322882034853639 pbc="F F F"
Zn       0.00000000       0.00000000       0.00000000       0.00000000       0.00000000       0.02548333
Zn       0.00000000       0.00000000       5.29454545       0.00000000       0.00000000      -0.02548333
2
Properties=species:S:1:pos:R:3:forces:R:3 energy=-0.030788414242367834 pbc="F F F"
Zn       0.00000000       0.00000000       0.00000000       0.00000000       0.00000000       0.02521824
Zn       0.00000000       0.00000000       5.35333333       0.00000000       0.00000000      -0.02521824
2
Properties=species:S:1:pos:R:3:forces:R:3 energy=-0.02936531163857874 pbc="F F F"
Zn       0.00000000       0.00000000       0.00000000       0.00000000       0.00000000       0.02278357
Zn       0.00000000       0.00000000       5.41212121       0.00000000       0.00000000      -0.02278357
2
Properties=species:S:1:pos:R:3:forces:R:3 energy=-0.02816089067166839 pbc="F F F"
Zn       0.00000000       0.00000000       0.00000000       0.00000000       0.00000000       0.01780015
Zn       0.00000000       0.00000000       5.47090909       0.00000000       0.00000000      -0.01780015
2
Properties=species:S:1:pos:R:3:forces:R:3 energy=-0.027299430606292967 pbc="F F F"
Zn       0.00000000       0.00000000       0.00000000       0.00000000       0.00000000       0.01146203
Zn       0.00000000       0.00000000       5.52969697       0.00000000       0.00000000      -0.01146203
2
Properties=species:S:1:pos:R:3:forces:R:3 energy=-0.026805572216886897 pbc="F F F"
Zn       0.00000000       0.00000000       0.00000000       0.00000000       0.00000000       0.00544543
Zn       0.00000000       0.00000000       5.58848485       0.00000000       0.00000000      -0.00544543
2
Properties=species:S:1:pos:R:3:forces:R:3 energy=-0.026648493186978817 pbc="F F F"
Zn       0.00000000       0.00000000       0.00000000       0.00000000       0.00000000      -0.00004415
Zn       0.00000000       0.00000000       5.64727273       0.00000000       0.00000000       0.00004415
2
Properties=species:S:1:pos:R:3:forces:R:3 energy=-0.02680874982057993 pbc="F F F"
Zn       0.00000000       0.00000000       0.00000000       0.00000000       0.00000000      -0.00539623
Zn       0.00000000       0.00000000       5.70606061       0.00000000       0.00000000       0.00539623
2
Properties=species:S:1:pos:R:3:forces:R:3 energy=-0.027258202023487714 pbc="F F F"
Zn       0.00000000       0.00000000       0.00000000       0.00000000       0.00000000      -0.00924949
Zn       0.00000000       0.00000000       5.76484848       0.00000000       0.00000000       0.00924949
2
Properties=species:S:1:pos:R:3:forces:R:3 energy=-0.027787347137649042 pbc="F F F"
Zn       0.00000000       0.00000000       0.00000000       0.00000000       0.00000000      -0.00776143
Zn       0.00000000       0.00000000       5.82363636       0.00000000       0.00000000       0.00776143
2
Properties=species:S:1:pos:R:3:forces:R:3 energy=-0.028077143847841386 pbc="F F F"
Zn       0.00000000       0.00000000       0.00000000       0.00000000       0.00000000      -0.00179655
Zn       0.00000000       0.00000000       5.88242424       0.00000000       0.00000000       0.00179655
2
Properties=species:S:1:pos:R:3:forces:R:3 energy=-0.028008272712742314 pbc="F F F"
Zn       0.00000000       0.00000000       0.00000000       0.00000000       0.00000000       0.00377942
Zn       0.00000000       0.00000000       5.94121212       0.00000000       0.00000000      -0.00377942
2
Properties=species:S:1:pos:R:3:forces:R:3 energy=-0.02770664161236812 pbc="F F F"
Zn       0.00000000       0.00000000       0.00000000       0.00000000       0.00000000       0.00571529
Zn       0.00000000       0.00000000       6.00000000       0.00000000       0.00000000      -0.00571529
