2
Properties=species:S:1:pos:R:3:forces:R:3 energy=10660.022192773382 pbc="F F F"
Ba       0.00000000       0.00000000       0.00000000       0.00000000       0.00000000 -180325.82812500
Ba       0.00000000       0.00000000       0.18000000       0.00000000       0.00000000  180325.82812500
2
Properties=species:S:1:pos:R:3:forces:R:3 energy=4285.587622460882 pbc="F F F"
Ba       0.00000000       0.00000000       0.00000000       0.00000000       0.00000000  -61320.37109375
Ba       0.00000000       0.00000000       0.23878788       0.00000000       0.00000000   61320.37109375
2
Properties=species:S:1:pos:R:3:forces:R:3 energy=1947.8287113280696 pbc="F F F"
Ba       0.00000000       0.00000000       0.00000000       0.00000000       0.00000000  -24564.83007812
Ba       0.00000000       0.00000000       0.29757576       0.00000000       0.00000000   24564.83007812
2
Properties=species:S:1:pos:R:3:forces:R:3 energy=966.1963260741634 pbc="F F F"
Ba       0.00000000       0.00000000       0.00000000       0.00000000       0.00000000  -10891.92382812
Ba       0.00000000       0.00000000       0.35636364       0.00000000       0.00000000   10891.92382812
2
Properties=species:S:1:pos:R:3:forces:R:3 energy=516.5502689452571 pbc="F F F"
Ba       0.00000000       0.00000000       0.00000000       0.00000000       0.00000000   -5183.16699219
Ba       0.00000000       0.00000000       0.41515152       0.00000000       0.00000000    5183.16699219
2
Properties=species:S:1:pos:R:3:forces:R:3 energy=297.08875161127276 pbc="F F F"
Ba       0.00000000       0.00000000       0.00000000       0.00000000       0.00000000   -2607.05468750
Ba       0.00000000       0.00000000       0.47393939       0.00000000       0.00000000    2607.05468750
2
Properties=species:S:1:pos:R:3:forces:R:3 energy=184.31020242960807 pbc="F F F"
Ba       0.00000000       0.00000000       0.00000000       0.00000000       0.00000000   -1374.30834961
Ba       0.00000000       0.00000000       0.53272727       0.00000000       0.00000000    1374.30834961
2
Properties=species:S:1:pos:R:3:forces:R:3 energy=123.73312266933016 pbc="F F F"
Ba       0.00000000       0.00000000       0.00000000       0.00000000       0.00000000    -754.58319092
Ba       0.00000000       0.00000000       0.59151515       0.00000000       0.00000000     754.58319092
2
Properties=species:S:1:pos:R:3:forces:R:3 energy=89.93078503551706 pbc="F F F"
Ba       0.00000000       0.00000000       0.00000000       0.00000000       0.00000000    -428.88525391
Ba       0.00000000       0.00000000       0.65030303       0.00000000       0.00000000     428.88525391
2
Properties=species:S:1:pos:R:3:forces:R:3 energy=70.46509444806668 pbc="F F F"
Ba       0.00000000       0.00000000       0.00000000       0.00000000       0.00000000    -250.54692078
Ba       0.00000000       0.00000000       0.70909091       0.00000000       0.00000000     250.54692078
2
Properties=species:S:1:pos:R:3:forces:R:3 energy=58.98475163376159 pbc="F F F"
Ba       0.00000000       0.00000000       0.00000000       0.00000000       0.00000000    -149.23289490
Ba       0.00000000       0.00000000       0.76787879       0.00000000       0.00000000     149.23289490
2
Properties=species:S:1:pos:R:3:forces:R:3 energy=52.10481166415905 pbc="F F F"
Ba       0.00000000       0.00000000       0.00000000       0.00000000       0.00000000     -90.00274658
Ba       0.00000000       0.00000000       0.82666667       0.00000000       0.00000000      90.00274658
2
Properties=species:S:1:pos:R:3:forces:R:3 energy=47.93213949380085 pbc="F F F"
Ba       0.00000000       0.00000000       0.00000000       0.00000000       0.00000000     -55.05437851
Ba       0.00000000       0.00000000       0.88545455       0.00000000       0.00000000      55.05437851
2
Properties=species:S:1:pos:R:3:forces:R:3 energy=45.337985262603574 pbc="F F F"
Ba       0.00000000       0.00000000       0.00000000       0.00000000       0.00000000     -35.22836685
Ba       0.00000000       0.00000000       0.94424242       0.00000000       0.00000000      35.22836685
2
Properties=species:S:1:pos:R:3:forces:R:3 energy=43.59198705743326 pbc="F F F"
Ba       0.00000000       0.00000000       0.00000000       0.00000000       0.00000000     -25.54848671
Ba       0.00000000       0.00000000       1.00303030       0.00000000       0.00000000      25.54848671
2
Properties=species:S:1:pos:R:3:forces:R:3 energy=42.20748870199633 pbc="F F F"
Ba       0.00000000       0.00000000       0.00000000       0.00000000       0.00000000     -22.34543037
Ba       0.00000000       0.00000000       1.06181818       0.00000000       0.00000000      22.34543037
2
Properties=species:S:1:pos:R:3:forces:R:3 energy=40.89888002266078 pbc="F F F"
Ba       0.00000000       0.00000000       0.00000000       0.00000000       0.00000000     -22.55476189
Ba       0.00000000       0.00000000       1.12060606       0.00000000       0.00000000      22.55476189
2
Properties=species:S:1:pos:R:3:forces:R:3 energy=39.525570351701965 pbc="F F F"
Ba       0.00000000       0.00000000       0.00000000       0.00000000       0.00000000     -24.30509949
Ba       0.00000000       0.00000000       1.17939394       0.00000000       0.00000000      24.30509949
2
Properties=species:S:1:pos:R:3:forces:R:3 energy=38.039368656577146 pbc="F F F"
Ba       0.00000000       0.00000000       0.00000000       0.00000000       0.00000000     -26.15041542
Ba       0.00000000       0.00000000       1.23818182       0.00000000       0.00000000      26.15041542
2
Properties=species:S:1:pos:R:3:forces:R:3 energy=36.47259307786325 pbc="F F F"
Ba       0.00000000       0.00000000       0.00000000       0.00000000       0.00000000     -26.94155884
Ba       0.00000000       0.00000000       1.29696970       0.00000000       0.00000000      26.94155884
2
Properties=species:S:1:pos:R:3:forces:R:3 energy=34.8876177558931 pbc="F F F"
Ba       0.00000000       0.00000000       0.00000000       0.00000000       0.00000000     -26.98370552
Ba       0.00000000       0.00000000       1.35575758       0.00000000       0.00000000      26.98370552
2
Properties=species:S:1:pos:R:3:forces:R:3 energy=33.27708800502372 pbc="F F F"
Ba       0.00000000       0.00000000       0.00000000       0.00000000       0.00000000     -28.17944145
Ba       0.00000000       0.00000000       1.41454545       0.00000000       0.00000000      28.17944145
2
Properties=species:S:1:pos:R:3:forces:R:3 energy=31.5188820523559 pbc="F F F"
Ba       0.00000000       0.00000000       0.00000000       0.00000000       0.00000000     -32.13861847
Ba       0.00000000       0.00000000       1.47333333       0.00000000       0.00000000      32.13861847
2
Properties=species:S:1:pos:R:3:forces:R:3 energy=29.4474096623199 pbc="F F F"
Ba       0.00000000       0.00000000       0.00000000       0.00000000       0.00000000     -38.64949799
Ba       0.00000000       0.00000000       1.53212121       0.00000000       0.00000000      38.64949799
2
Properties=species:S:1:pos:R:3:forces:R:3 energy=26.958247375322948 pbc="F F F"
Ba       0.00000000       0.00000000       0.00000000       0.00000000       0.00000000     -45.96975327
Ba       0.00000000       0.00000000       1.59090909       0.00000000       0.00000000      45.96975327
2
Properties=species:S:1:pos:R:3:forces:R:3 energy=24.072137658432034 pbc="F F F"
Ba       0.00000000       0.00000000       0.00000000       0.00000000       0.00000000     -51.83160782
Ba       0.00000000       0.00000000       1.64969697       0.00000000       0.00000000      51.83160782
2
Properties=species:S:1:pos:R:3:forces:R:3 energy=20.91419884962577 pbc="F F F"
Ba       0.00000000       0.00000000       0.00000000       0.00000000       0.00000000     -55.17380142
Ba       0.00000000       0.00000000       1.70848485       0.00000000       0.00000000      55.17380142
2
Properties=species:S:1:pos:R:3:forces:R:3 energy=17.634398237542335 pbc="F F F"
Ba       0.00000000       0.00000000       0.00000000       0.00000000       0.00000000     -55.98952866
Ba       0.00000000       0.00000000       1.76727273       0.00000000       0.00000000      55.98952866
2
Properties=species:S:1:pos:R:3:forces:R:3 energy=14.380695613712586 pbc="F F F"
Ba       0.00000000       0.00000000       0.00000000       0.00000000       0.00000000     -54.28269196
Ba       0.00000000       0.00000000       1.82606061       0.00000000       0.00000000      54.28269196
2
Properties=species:S:1:pos:R:3:forces:R:3 energy=11.299502987930072 pbc="F F F"
Ba       0.00000000       0.00000000       0.00000000       0.00000000       0.00000000     -50.17373276
Ba       0.00000000       0.00000000       1.88484848       0.00000000       0.00000000      50.17373276
2
Properties=species:S:1:pos:R:3:forces:R:3 energy=8.517693496929457 pbc="F F F"
Ba       0.00000000       0.00000000       0.00000000       0.00000000       0.00000000     -44.22507095
Ba       0.00000000       0.00000000       1.94363636       0.00000000       0.00000000      44.22507095
2
Properties=species:S:1:pos:R:3:forces:R:3 energy=6.121017376756098 pbc="F F F"
Ba       0.00000000       0.00000000       0.00000000       0.00000000       0.00000000     -37.16780090
Ba       0.00000000       0.00000000       2.00242424       0.00000000       0.00000000      37.16780090
2
Properties=species:S:1:pos:R:3:forces:R:3 energy=4.163753146848075 pbc="F F F"
Ba       0.00000000       0.00000000       0.00000000       0.00000000       0.00000000     -29.28968620
Ba       0.00000000       0.00000000       2.06121212       0.00000000       0.00000000      29.28968620
2
Properties=species:S:1:pos:R:3:forces:R:3 energy=2.6860010759240334 pbc="F F F"
Ba       0.00000000       0.00000000       0.00000000       0.00000000       0.00000000     -21.01621056
Ba       0.00000000       0.00000000       2.12000000       0.00000000       0.00000000      21.01621056
2
Properties=species:S:1:pos:R:3:forces:R:3 energy=1.6715177833854686 pbc="F F F"
Ba       0.00000000       0.00000000       0.00000000       0.00000000       0.00000000     -13.81325817
Ba       0.00000000       0.00000000       2.17878788       0.00000000       0.00000000      13.81325817
2
Properties=species:S:1:pos:R:3:forces:R:3 energy=1.0169095279794076 pbc="F F F"
Ba       0.00000000       0.00000000       0.00000000       0.00000000       0.00000000      -8.85118580
Ba       0.00000000       0.00000000       2.23757576       0.00000000       0.00000000       8.85118580
2
Properties=species:S:1:pos:R:3:forces:R:3 energy=0.5898331047526482 pbc="F F F"
Ba       0.00000000       0.00000000       0.00000000       0.00000000       0.00000000      -5.96486616
Ba       0.00000000       0.00000000       2.29636364       0.00000000       0.00000000       5.96486616
2
Properties=species:S:1:pos:R:3:forces:R:3 energy=0.2894535205329005 pbc="F F F"
Ba       0.00000000       0.00000000       0.00000000       0.00000000       0.00000000      -4.41882086
Ba       0.00000000       0.00000000       2.35515152       0.00000000       0.00000000       4.41882086
2
Properties=species:S:1:pos:R:3:forces:R:3 energy=0.0562277514120873 pbc="F F F"
Ba       0.00000000       0.00000000       0.00000000       0.00000000       0.00000000      -3.59858465
Ba       0.00000000       0.00000000       2.41393939       0.00000000       0.00000000       3.59858465
2
Properties=species:S:1:pos:R:3:forces:R:3 energy=-0.14035313382298786 pbc="F F F"
Ba       0.00000000       0.00000000       0.00000000       0.00000000       0.00000000      -3.12594175
Ba       0.00000000       0.00000000       2.47272727       0.00000000       0.00000000       3.12594175
2
Properties=species:S:1:pos:R:3:forces:R:3 energy=-0.314064168548858 pbc="F F F"
Ba       0.00000000       0.00000000       0.00000000       0.00000000       0.00000000      -2.79755402
Ba       0.00000000       0.00000000       2.53151515       0.00000000       0.00000000       2.79755402
2
Properties=species:S:1:pos:R:3:forces:R:3 energy=-0.4702217307879897 pbc="F F F"
Ba       0.00000000       0.00000000       0.00000000       0.00000000       0.00000000      -2.51929140
Ba       0.00000000       0.00000000       2.59030303       0.00000000       0.00000000       2.51929140
2
Properties=species:S:1:pos:R:3:forces:R:3 energy=-0.6105572097406189 pbc="F F F"
Ba       0.00000000       0.00000000       0.00000000       0.00000000       0.00000000      -2.25643587
Ba       0.00000000       0.00000000       2.64909091       0.00000000       0.00000000       2.25643587
2
Properties=species:S:1:pos:R:3:forces:R:3 energy=-0.7356617351792527 pbc="F F F"
Ba       0.00000000       0.00000000       0.00000000       0.00000000       0.00000000      -2.00087476
Ba       0.00000000       0.00000000       2.70787879       0.00000000       0.00000000       2.00087476
2
Properties=species:S:1:pos:R:3:forces:R:3 energy=-0.8459652417781791 pbc="F F F"
Ba       0.00000000       0.00000000       0.00000000       0.00000000       0.00000000      -1.75320661
Ba       0.00000000       0.00000000       2.76666667       0.00000000       0.00000000       1.75320661
2
Properties=species:S:1:pos:R:3:forces:R:3 energy=-0.9419908478263703 pbc="F F F"
Ba       0.00000000       0.00000000       0.00000000       0.00000000       0.00000000      -1.51543534
Ba       0.00000000       0.00000000       2.82545455       0.00000000       0.00000000       1.51543534
2
Properties=species:S:1:pos:R:3:forces:R:3 energy=-1.0243796069419617 pbc="F F F"
Ba       0.00000000       0.00000000       0.00000000       0.00000000       0.00000000      -1.28967953
Ba       0.00000000       0.00000000       2.88424242       0.00000000       0.00000000       1.28967953
2
Properties=species:S:1:pos:R:3:forces:R:3 energy=-1.0939199189288298 pbc="F F F"
Ba       0.00000000       0.00000000       0.00000000       0.00000000       0.00000000      -1.07899320
Ba       0.00000000       0.00000000       2.94303030       0.00000000       0.00000000       1.07899320
2
Properties=species:S:1:pos:R:3:forces:R:3 energy=-1.1516279822077982 pbc="F F F"
Ba       0.00000000       0.00000000       0.00000000       0.00000000       0.00000000      -0.88798082
Ba       0.00000000       0.00000000       3.00181818       0.00000000       0.00000000       0.88798082
2
Properties=species:S:1:pos:R:3:forces:R:3 energy=-1.1988172614021662 pbc="F F F"
Ba       0.00000000       0.00000000       0.00000000       0.00000000       0.00000000      -0.72205997
Ba       0.00000000       0.00000000       3.06060606       0.00000000       0.00000000       0.72205997
2
Properties=species:S:1:pos:R:3:forces:R:3 energy=-1.2371046101930336 pbc="F F F"
Ba       0.00000000       0.00000000       0.00000000       0.00000000       0.00000000      -0.58561385
Ba       0.00000000       0.00000000       3.11939394       0.00000000       0.00000000       0.58561385
2
Properties=species:S:1:pos:R:3:forces:R:3 energy=-1.268273003414462 pbc="F F F"
Ba       0.00000000       0.00000000       0.00000000       0.00000000       0.00000000      -0.47967622
Ba       0.00000000       0.00000000       3.17818182       0.00000000       0.00000000       0.47967622
2
Properties=species:S:1:pos:R:3:forces:R:3 energy=-1.2940240926542497 pbc="F F F"
Ba       0.00000000       0.00000000       0.00000000       0.00000000       0.00000000      -0.40016946
Ba       0.00000000       0.00000000       3.23696970       0.00000000       0.00000000       0.40016946
2
Properties=species:S:1:pos:R:3:forces:R:3 energy=-1.3156636424573098 pbc="F F F"
Ba       0.00000000       0.00000000       0.00000000       0.00000000       0.00000000      -0.33794981
Ba       0.00000000       0.00000000       3.29575758       0.00000000       0.00000000       0.33794981
2
Properties=species:S:1:pos:R:3:forces:R:3 energy=-1.333863265465867 pbc="F F F"
Ba       0.00000000       0.00000000       0.00000000       0.00000000       0.00000000      -0.28111541
Ba       0.00000000       0.00000000       3.35454545       0.00000000       0.00000000       0.28111541
2
Properties=species:S:1:pos:R:3:forces:R:3 energy=-1.3486068347640747 pbc="F F F"
Ba       0.00000000       0.00000000       0.00000000       0.00000000       0.00000000      -0.21886989
Ba       0.00000000       0.00000000       3.41333333       0.00000000       0.00000000       0.21886989
2
Properties=species:S:1:pos:R:3:forces:R:3 energy=-1.359363504234335 pbc="F F F"
Ba       0.00000000       0.00000000       0.00000000       0.00000000       0.00000000      -0.14489774
Ba       0.00000000       0.00000000       3.47212121       0.00000000       0.00000000       0.14489774
2
Properties=species:S:1:pos:R:3:forces:R:3 energy=-1.3653985213654685 pbc="F F F"
Ba       0.00000000       0.00000000       0.00000000       0.00000000       0.00000000      -0.05856795
Ba       0.00000000       0.00000000       3.53090909       0.00000000       0.00000000       0.05856795
2
Properties=species:S:1:pos:R:3:forces:R:3 energy=-1.3660822492332654 pbc="F F F"
Ba       0.00000000       0.00000000       0.00000000       0.00000000       0.00000000       0.03623850
Ba       0.00000000       0.00000000       3.58969697       0.00000000       0.00000000      -0.03623850
2
Properties=species:S:1:pos:R:3:forces:R:3 energy=-1.361088490584714 pbc="F F F"
Ba       0.00000000       0.00000000       0.00000000       0.00000000       0.00000000       0.13356054
Ba       0.00000000       0.00000000       3.64848485       0.00000000       0.00000000      -0.13356054
2
Properties=species:S:1:pos:R:3:forces:R:3 energy=-1.3504421605463672 pbc="F F F"
Ba       0.00000000       0.00000000       0.00000000       0.00000000       0.00000000       0.22770382
Ba       0.00000000       0.00000000       3.70727273       0.00000000       0.00000000      -0.22770382
2
Properties=species:S:1:pos:R:3:forces:R:3 energy=-1.334456712082714 pbc="F F F"
Ba       0.00000000       0.00000000       0.00000000       0.00000000       0.00000000       0.31473568
Ba       0.00000000       0.00000000       3.76606061       0.00000000       0.00000000      -0.31473568
2
Properties=species:S:1:pos:R:3:forces:R:3 energy=-1.3136102031804389 pbc="F F F"
Ba       0.00000000       0.00000000       0.00000000       0.00000000       0.00000000       0.39302519
Ba       0.00000000       0.00000000       3.82484848       0.00000000       0.00000000      -0.39302519
2
Properties=species:S:1:pos:R:3:forces:R:3 energy=-1.2884105453296535 pbc="F F F"
Ba       0.00000000       0.00000000       0.00000000       0.00000000       0.00000000       0.46297181
Ba       0.00000000       0.00000000       3.88363636       0.00000000       0.00000000      -0.46297181
2
Properties=species:S:1:pos:R:3:forces:R:3 energy=-1.2593091509766818 pbc="F F F"
Ba       0.00000000       0.00000000       0.00000000       0.00000000       0.00000000       0.52609164
Ba       0.00000000       0.00000000       3.94242424       0.00000000       0.00000000      -0.52609164
2
Properties=species:S:1:pos:R:3:forces:R:3 energy=-1.226660371007092 pbc="F F F"
Ba       0.00000000       0.00000000       0.00000000       0.00000000       0.00000000       0.58381706
Ba       0.00000000       0.00000000       4.00121212       0.00000000       0.00000000      -0.58381706
2
Properties=species:S:1:pos:R:3:forces:R:3 energy=-1.1907656737149375 pbc="F F F"
Ba       0.00000000       0.00000000       0.00000000       0.00000000       0.00000000       0.63641077
Ba       0.00000000       0.00000000       4.06000000       0.00000000       0.00000000      -0.63641077
2
Properties=species:S:1:pos:R:3:forces:R:3 energy=-1.1519595243363678 pbc="F F F"
Ba       0.00000000       0.00000000       0.00000000       0.00000000       0.00000000       0.68253547
Ba       0.00000000       0.00000000       4.11878788       0.00000000       0.00000000      -0.68253547
2
Properties=species:S:1:pos:R:3:forces:R:3 energy=-1.1106937472454332 pbc="F F F"
Ba       0.00000000       0.00000000       0.00000000       0.00000000       0.00000000       0.71956944
Ba       0.00000000       0.00000000       4.17757576       0.00000000       0.00000000      -0.71956944
2
Properties=species:S:1:pos:R:3:forces:R:3 energy=-1.0675939143166153 pbc="F F F"
Ba       0.00000000       0.00000000       0.00000000       0.00000000       0.00000000       0.74445564
Ba       0.00000000       0.00000000       4.23636364       0.00000000       0.00000000      -0.74445564
2
Properties=species:S:1:pos:R:3:forces:R:3 energy=-1.0234518287172196 pbc="F F F"
Ba       0.00000000       0.00000000       0.00000000       0.00000000       0.00000000       0.75465316
Ba       0.00000000       0.00000000       4.29515152       0.00000000       0.00000000      -0.75465316
2
Properties=species:S:1:pos:R:3:forces:R:3 energy=-0.9791792712724843 pbc="F F F"
Ba       0.00000000       0.00000000       0.00000000       0.00000000       0.00000000       0.74888253
Ba       0.00000000       0.00000000       4.35393939       0.00000000       0.00000000      -0.74888253
2
Properties=species:S:1:pos:R:3:forces:R:3 energy=-0.9357084099845606 pbc="F F F"
Ba       0.00000000       0.00000000       0.00000000       0.00000000       0.00000000       0.72757018
Ba       0.00000000       0.00000000       4.41272727       0.00000000       0.00000000      -0.72757018
2
Properties=species:S:1:pos:R:3:forces:R:3 energy=-0.8938942920404425 pbc="F F F"
Ba       0.00000000       0.00000000       0.00000000       0.00000000       0.00000000       0.69306755
Ba       0.00000000       0.00000000       4.47151515       0.00000000       0.00000000      -0.69306755
2
Properties=species:S:1:pos:R:3:forces:R:3 energy=-0.8543932808270663 pbc="F F F"
Ba       0.00000000       0.00000000       0.00000000       0.00000000       0.00000000       0.64976537
Ba       0.00000000       0.00000000       4.53030303       0.00000000       0.00000000      -0.64976537
2
Properties=species:S:1:pos:R:3:forces:R:3 energy=-0.8175483766268654 pbc="F F F"
Ba       0.00000000       0.00000000       0.00000000       0.00000000       0.00000000       0.60392696
Ba       0.00000000       0.00000000       4.58909091       0.00000000       0.00000000      -0.60392696
2
Properties=species:S:1:pos:R:3:forces:R:3 energy=-0.7832933752192823 pbc="F F F"
Ba       0.00000000       0.00000000       0.00000000       0.00000000       0.00000000       0.56284857
Ba       0.00000000       0.00000000       4.64787879       0.00000000       0.00000000      -0.56284857
2
Properties=species:S:1:pos:R:3:forces:R:3 energy=-0.7511475007873074 pbc="F F F"
Ba       0.00000000       0.00000000       0.00000000       0.00000000       0.00000000       0.53303969
Ba       0.00000000       0.00000000       4.70666667       0.00000000       0.00000000      -0.53303969
2
Properties=species:S:1:pos:R:3:forces:R:3 energy=-0.7203240325872391 pbc="F F F"
Ba       0.00000000       0.00000000       0.00000000       0.00000000       0.00000000       0.51824242
Ba       0.00000000       0.00000000       4.76545455       0.00000000       0.00000000      -0.51824242
2
Properties=species:S:1:pos:R:3:forces:R:3 energy=-0.6899131630804968 pbc="F F F"
Ba       0.00000000       0.00000000       0.00000000       0.00000000       0.00000000       0.51873320
Ba       0.00000000       0.00000000       4.82424242       0.00000000       0.00000000      -0.51873320
2
Properties=species:S:1:pos:R:3:forces:R:3 energy=-0.6590772892417386 pbc="F F F"
Ba       0.00000000       0.00000000       0.00000000       0.00000000       0.00000000       0.53235668
Ba       0.00000000       0.00000000       4.88303030       0.00000000       0.00000000      -0.53235668
2
Properties=species:S:1:pos:R:3:forces:R:3 energy=-0.6271271947920608 pbc="F F F"
Ba       0.00000000       0.00000000       0.00000000       0.00000000       0.00000000       0.55588973
Ba       0.00000000       0.00000000       4.94181818       0.00000000       0.00000000      -0.55588973
2
Properties=species:S:1:pos:R:3:forces:R:3 energy=-0.5935915833622497 pbc="F F F"
Ba       0.00000000       0.00000000       0.00000000       0.00000000       0.00000000       0.58570486
Ba       0.00000000       0.00000000       5.00060606       0.00000000       0.00000000      -0.58570486
2
Properties=species:S:1:pos:R:3:forces:R:3 energy=-0.558215365633568 pbc="F F F"
Ba       0.00000000       0.00000000       0.00000000       0.00000000       0.00000000       0.61784124
Ba       0.00000000       0.00000000       5.05939394       0.00000000       0.00000000      -0.61784124
2
Properties=species:S:1:pos:R:3:forces:R:3 energy=-0.5209878207834095 pbc="F F F"
Ba       0.00000000       0.00000000       0.00000000       0.00000000       0.00000000       0.64793432
Ba       0.00000000       0.00000000       5.11818182       0.00000000       0.00000000      -0.64793432
2
Properties=species:S:1:pos:R:3:forces:R:3 energy=-0.4821670418311274 pbc="F F F"
Ba       0.00000000       0.00000000       0.00000000       0.00000000       0.00000000       0.67138064
Ba       0.00000000       0.00000000       5.17696970       0.00000000       0.00000000      -0.67138064
2
Properties=species:S:1:pos:R:3:forces:R:3 energy=-0.442271094615121 pbc="F F F"
Ba       0.00000000       0.00000000       0.00000000       0.00000000       0.00000000       0.68377918
Ba       0.00000000       0.00000000       5.23575758       0.00000000       0.00000000      -0.68377918
2
Properties=species:S:1:pos:R:3:forces:R:3 energy=-0.40206184553571184 pbc="F F F"
Ba       0.00000000       0.00000000       0.00000000       0.00000000       0.00000000       0.68151778
Ba       0.00000000       0.00000000       5.29454545       0.00000000       0.00000000      -0.68151778
2
Properties=species:S:1:pos:R:3:forces:R:3 energy=-0.3624730132256288 pbc="F F F"
Ba       0.00000000       0.00000000       0.00000000       0.00000000       0.00000000       0.66226959
Ba       0.00000000       0.00000000       5.35333333       0.00000000       0.00000000      -0.66226959
2
Properties=species:S:1:pos:R:3:forces:R:3 energy=-0.32453602631609413 pbc="F F F"
Ba       0.00000000       0.00000000       0.00000000       0.00000000       0.00000000       0.62542111
Ba       0.00000000       0.00000000       5.41212121       0.00000000       0.00000000      -0.62542111
2
Properties=species:S:1:pos:R:3:forces:R:3 energy=-0.28926137040838207 pbc="F F F"
Ba       0.00000000       0.00000000       0.00000000       0.00000000       0.00000000       0.57216668
Ba       0.00000000       0.00000000       5.47090909       0.00000000       0.00000000      -0.57216668
2
Properties=species:S:1:pos:R:3:forces:R:3 energy=-0.25752984661920186 pbc="F F F"
Ba       0.00000000       0.00000000       0.00000000       0.00000000       0.00000000       0.50534767
Ba       0.00000000       0.00000000       5.52969697       0.00000000       0.00000000      -0.50534767
2
Properties=species:S:1:pos:R:3:forces:R:3 energy=-0.23003058041262164 pbc="F F F"
Ba       0.00000000       0.00000000       0.00000000       0.00000000       0.00000000       0.42906877
Ba       0.00000000       0.00000000       5.58848485       0.00000000       0.00000000      -0.42906877
2
Properties=species:S:1:pos:R:3:forces:R:3 energy=-0.2071705159467176 pbc="F F F"
Ba       0.00000000       0.00000000       0.00000000       0.00000000       0.00000000       0.34833661
Ba       0.00000000       0.00000000       5.64727273       0.00000000       0.00000000      -0.34833661
2
Properties=species:S:1:pos:R:3:forces:R:3 energy=-0.18906570551213525 pbc="F F F"
Ba       0.00000000       0.00000000       0.00000000       0.00000000       0.00000000       0.26837087
Ba       0.00000000       0.00000000       5.70606061       0.00000000       0.00000000      -0.26837087
2
Properties=species:S:1:pos:R:3:forces:R:3 energy=-0.17548307315728234 pbc="F F F"
Ba       0.00000000       0.00000000       0.00000000       0.00000000       0.00000000       0.19437015
Ba       0.00000000       0.00000000       5.76484848       0.00000000       0.00000000      -0.19437015
2
Properties=species:S:1:pos:R:3:forces:R:3 energy=-0.1659939794189903 pbc="F F F"
Ba       0.00000000       0.00000000       0.00000000       0.00000000       0.00000000       0.13097984
Ba       0.00000000       0.00000000       5.82363636       0.00000000       0.00000000      -0.13097984
2
Properties=species:S:1:pos:R:3:forces:R:3 energy=-0.15981953233228216 pbc="F F F"
Ba       0.00000000       0.00000000       0.00000000       0.00000000       0.00000000       0.08211872
Ba       0.00000000       0.00000000       5.88242424       0.00000000       0.00000000      -0.08211872
2
Properties=species:S:1:pos:R:3:forces:R:3 energy=-0.15598960931370331 pbc="F F F"
Ba       0.00000000       0.00000000       0.00000000       0.00000000       0.00000000       0.05107069
Ba       0.00000000       0.00000000       5.94121212       0.00000000       0.00000000      -0.05107069
2
Properties=species:S:1:pos:R:3:forces:R:3 energy=-0.15340794428260102 pbc="F F F"
Ba       0.00000000       0.00000000       0.00000000       0.00000000       0.00000000       0.04043264
Ba       0.00000000       0.00000000       6.00000000       0.00000000       0.00000000      -0.04043264
