2
Properties=species:S:1:pos:R:3:forces:R:3 energy=20858.73550933977 pbc="F F F"
U        0.00000000       0.00000000       0.00000000       0.00000000       0.00000000 -375712.00000000
U        0.00000000       0.00000000       0.18000000       0.00000000       0.00000000  375712.00000000
2
Properties=species:S:1:pos:R:3:forces:R:3 energy=7865.639317933522 pbc="F F F"
U        0.00000000       0.00000000       0.00000000       0.00000000       0.00000000 -121063.30468750
U        0.00000000       0.00000000       0.23878788       0.00000000       0.00000000  121063.30468750
2
Properties=species:S:1:pos:R:3:forces:R:3 energy=3358.342687074147 pbc="F F F"
U        0.00000000       0.00000000       0.00000000       0.00000000       0.00000000  -45830.15625000
U        0.00000000       0.00000000       0.29757576       0.00000000       0.00000000   45830.15625000
2
Properties=species:S:1:pos:R:3:forces:R:3 energy=1571.2635855116466 pbc="F F F"
U        0.00000000       0.00000000       0.00000000       0.00000000       0.00000000  -19206.50781250
U        0.00000000       0.00000000       0.35636364       0.00000000       0.00000000   19206.50781250
2
Properties=species:S:1:pos:R:3:forces:R:3 energy=796.4087881483655 pbc="F F F"
U        0.00000000       0.00000000       0.00000000       0.00000000       0.00000000   -8681.49023438
U        0.00000000       0.00000000       0.41515152       0.00000000       0.00000000    8681.49023438
2
Properties=species:S:1:pos:R:3:forces:R:3 energy=436.10242218156856 pbc="F F F"
U        0.00000000       0.00000000       0.00000000       0.00000000       0.00000000   -4179.65136719
U        0.00000000       0.00000000       0.47393939       0.00000000       0.00000000    4179.65136719
2
Properties=species:S:1:pos:R:3:forces:R:3 energy=258.25562044909867 pbc="F F F"
U        0.00000000       0.00000000       0.00000000       0.00000000       0.00000000   -2126.27587891
U        0.00000000       0.00000000       0.53272727       0.00000000       0.00000000    2126.27587891
2
Properties=species:S:1:pos:R:3:forces:R:3 energy=165.75877904377717 pbc="F F F"
U        0.00000000       0.00000000       0.00000000       0.00000000       0.00000000   -1135.30444336
U        0.00000000       0.00000000       0.59151515       0.00000000       0.00000000    1135.30444336
2
Properties=species:S:1:pos:R:3:forces:R:3 energy=115.39330819556055 pbc="F F F"
U        0.00000000       0.00000000       0.00000000       0.00000000       0.00000000    -632.66082764
U        0.00000000       0.00000000       0.65030303       0.00000000       0.00000000     632.66082764
2
Properties=species:S:1:pos:R:3:forces:R:3 energy=86.81123886194435 pbc="F F F"
U        0.00000000       0.00000000       0.00000000       0.00000000       0.00000000    -366.93392944
U        0.00000000       0.00000000       0.70909091       0.00000000       0.00000000     366.93392944
2
Properties=species:S:1:pos:R:3:forces:R:3 energy=69.92489405364668 pbc="F F F"
U        0.00000000       0.00000000       0.00000000       0.00000000       0.00000000    -221.67883301
U        0.00000000       0.00000000       0.76787879       0.00000000       0.00000000     221.67883301
2
Properties=species:S:1:pos:R:3:forces:R:3 energy=59.531888834608395 pbc="F F F"
U        0.00000000       0.00000000       0.00000000       0.00000000       0.00000000    -139.39564514
U        0.00000000       0.00000000       0.82666667       0.00000000       0.00000000     139.39564514
2
Properties=species:S:1:pos:R:3:forces:R:3 energy=52.83522614718827 pbc="F F F"
U        0.00000000       0.00000000       0.00000000       0.00000000       0.00000000     -93.61608124
U        0.00000000       0.00000000       0.88545455       0.00000000       0.00000000      93.61608124
2
Properties=species:S:1:pos:R:3:forces:R:3 energy=47.94347228823728 pbc="F F F"
U        0.00000000       0.00000000       0.00000000       0.00000000       0.00000000     -77.34494781
U        0.00000000       0.00000000       0.94424242       0.00000000       0.00000000      77.34494781
2
Properties=species:S:1:pos:R:3:forces:R:3 energy=43.30065042809352 pbc="F F F"
U        0.00000000       0.00000000       0.00000000       0.00000000       0.00000000     -83.46296692
U        0.00000000       0.00000000       1.00303030       0.00000000       0.00000000      83.46296692
2
Properties=species:S:1:pos:R:3:forces:R:3 energy=37.889266390439396 pbc="F F F"
U        0.00000000       0.00000000       0.00000000       0.00000000       0.00000000    -101.93675995
U        0.00000000       0.00000000       1.06181818       0.00000000       0.00000000     101.93675995
2
Properties=species:S:1:pos:R:3:forces:R:3 energy=31.257360603303432 pbc="F F F"
U        0.00000000       0.00000000       0.00000000       0.00000000       0.00000000    -123.56986237
U        0.00000000       0.00000000       1.12060606       0.00000000       0.00000000     123.56986237
2
Properties=species:S:1:pos:R:3:forces:R:3 energy=23.177271997229568 pbc="F F F"
U        0.00000000       0.00000000       0.00000000       0.00000000       0.00000000    -153.48121643
U        0.00000000       0.00000000       1.17939394       0.00000000       0.00000000     153.48121643
2
Properties=species:S:1:pos:R:3:forces:R:3 energy=13.369625533937725 pbc="F F F"
U        0.00000000       0.00000000       0.00000000       0.00000000       0.00000000    -183.64225769
U        0.00000000       0.00000000       1.23818182       0.00000000       0.00000000     183.64225769
2
Properties=species:S:1:pos:R:3:forces:R:3 energy=7.80422982993298 pbc="F F F"
U        0.00000000       0.00000000       0.00000000       0.00000000       0.00000000      51.95561600
U        0.00000000       0.00000000       1.29696970       0.00000000       0.00000000     -51.95561600
2
Properties=species:S:1:pos:R:3:forces:R:3 energy=9.771415886097751 pbc="F F F"
U        0.00000000       0.00000000       0.00000000       0.00000000       0.00000000      -1.81604183
U        0.00000000       0.00000000       1.35575758       0.00000000       0.00000000       1.81604183
2
Properties=species:S:1:pos:R:3:forces:R:3 energy=8.447480012590626 pbc="F F F"
U        0.00000000       0.00000000       0.00000000       0.00000000       0.00000000     -38.74472427
U        0.00000000       0.00000000       1.41454545       0.00000000       0.00000000      38.74472427
2
Properties=species:S:1:pos:R:3:forces:R:3 energy=5.492763560928012 pbc="F F F"
U        0.00000000       0.00000000       0.00000000       0.00000000       0.00000000     -59.39559174
U        0.00000000       0.00000000       1.47333333       0.00000000       0.00000000      59.39559174
2
Properties=species:S:1:pos:R:3:forces:R:3 energy=1.7525797300273815 pbc="F F F"
U        0.00000000       0.00000000       0.00000000       0.00000000       0.00000000     -66.13063049
U        0.00000000       0.00000000       1.53212121       0.00000000       0.00000000      66.13063049
2
Properties=species:S:1:pos:R:3:forces:R:3 energy=-2.2059894251452037 pbc="F F F"
U        0.00000000       0.00000000       0.00000000       0.00000000       0.00000000     -67.81572723
U        0.00000000       0.00000000       1.59090909       0.00000000       0.00000000      67.81572723
2
Properties=species:S:1:pos:R:3:forces:R:3 energy=-5.891185418647953 pbc="F F F"
U        0.00000000       0.00000000       0.00000000       0.00000000       0.00000000     -52.88814163
U        0.00000000       0.00000000       1.64969697       0.00000000       0.00000000      52.88814163
2
Properties=species:S:1:pos:R:3:forces:R:3 energy=-7.9885668563404915 pbc="F F F"
U        0.00000000       0.00000000       0.00000000       0.00000000       0.00000000     -17.93663788
U        0.00000000       0.00000000       1.70848485       0.00000000       0.00000000      17.93663788
2
Properties=species:S:1:pos:R:3:forces:R:3 energy=-8.35624826754436 pbc="F F F"
U        0.00000000       0.00000000       0.00000000       0.00000000       0.00000000       0.63165605
U        0.00000000       0.00000000       1.76727273       0.00000000       0.00000000      -0.63165605
2
Properties=species:S:1:pos:R:3:forces:R:3 energy=-8.373659254047361 pbc="F F F"
U        0.00000000       0.00000000       0.00000000       0.00000000       0.00000000      -3.47024632
U        0.00000000       0.00000000       1.82606061       0.00000000       0.00000000       3.47024632
2
Properties=species:S:1:pos:R:3:forces:R:3 energy=-8.840591387991736 pbc="F F F"
U        0.00000000       0.00000000       0.00000000       0.00000000       0.00000000     -11.87989521
U        0.00000000       0.00000000       1.88484848       0.00000000       0.00000000      11.87989521
2
Properties=species:S:1:pos:R:3:forces:R:3 energy=-9.647078112532968 pbc="F F F"
U        0.00000000       0.00000000       0.00000000       0.00000000       0.00000000     -14.38200855
U        0.00000000       0.00000000       1.94363636       0.00000000       0.00000000      14.38200855
2
Properties=species:S:1:pos:R:3:forces:R:3 energy=-10.42587344942683 pbc="F F F"
U        0.00000000       0.00000000       0.00000000       0.00000000       0.00000000     -11.60911655
U        0.00000000       0.00000000       2.00242424       0.00000000       0.00000000      11.60911655
2
Properties=species:S:1:pos:R:3:forces:R:3 energy=-10.995337372551555 pbc="F F F"
U        0.00000000       0.00000000       0.00000000       0.00000000       0.00000000      -7.87540293
U        0.00000000       0.00000000       2.06121212       0.00000000       0.00000000       7.87540293
2
Properties=species:S:1:pos:R:3:forces:R:3 energy=-11.374822452685184 pbc="F F F"
U        0.00000000       0.00000000       0.00000000       0.00000000       0.00000000      -5.23841953
U        0.00000000       0.00000000       2.12000000       0.00000000       0.00000000       5.23841953
2
Properties=species:S:1:pos:R:3:forces:R:3 energy=-11.630273820952638 pbc="F F F"
U        0.00000000       0.00000000       0.00000000       0.00000000       0.00000000      -3.56922913
U        0.00000000       0.00000000       2.17878788       0.00000000       0.00000000       3.56922913
2
Properties=species:S:1:pos:R:3:forces:R:3 energy=-11.804389944712428 pbc="F F F"
U        0.00000000       0.00000000       0.00000000       0.00000000       0.00000000      -2.41607428
U        0.00000000       0.00000000       2.23757576       0.00000000       0.00000000       2.41607428
2
Properties=species:S:1:pos:R:3:forces:R:3 energy=-11.920326419833227 pbc="F F F"
U        0.00000000       0.00000000       0.00000000       0.00000000       0.00000000      -1.57275021
U        0.00000000       0.00000000       2.29636364       0.00000000       0.00000000       1.57275021
2
Properties=species:S:1:pos:R:3:forces:R:3 energy=-11.994208405808317 pbc="F F F"
U        0.00000000       0.00000000       0.00000000       0.00000000       0.00000000      -0.98027897
U        0.00000000       0.00000000       2.35515152       0.00000000       0.00000000       0.98027897
2
Properties=species:S:1:pos:R:3:forces:R:3 energy=-12.039971273845046 pbc="F F F"
U        0.00000000       0.00000000       0.00000000       0.00000000       0.00000000      -0.61125600
U        0.00000000       0.00000000       2.41393939       0.00000000       0.00000000       0.61125600
2
Properties=species:S:1:pos:R:3:forces:R:3 energy=-12.069713643759941 pbc="F F F"
U        0.00000000       0.00000000       0.00000000       0.00000000       0.00000000      -0.42728773
U        0.00000000       0.00000000       2.47272727       0.00000000       0.00000000       0.42728773
2
Properties=species:S:1:pos:R:3:forces:R:3 energy=-12.092792245682135 pbc="F F F"
U        0.00000000       0.00000000       0.00000000       0.00000000       0.00000000      -0.37481511
U        0.00000000       0.00000000       2.53151515       0.00000000       0.00000000       0.37481511
2
Properties=species:S:1:pos:R:3:forces:R:3 energy=-12.115213387140464 pbc="F F F"
U        0.00000000       0.00000000       0.00000000       0.00000000       0.00000000      -0.39567947
U        0.00000000       0.00000000       2.59030303       0.00000000       0.00000000       0.39567947
2
Properties=species:S:1:pos:R:3:forces:R:3 energy=-12.139781992353905 pbc="F F F"
U        0.00000000       0.00000000       0.00000000       0.00000000       0.00000000      -0.44104031
U        0.00000000       0.00000000       2.64909091       0.00000000       0.00000000       0.44104031
2
Properties=species:S:1:pos:R:3:forces:R:3 energy=-12.166919499998961 pbc="F F F"
U        0.00000000       0.00000000       0.00000000       0.00000000       0.00000000      -0.47930038
U        0.00000000       0.00000000       2.70787879       0.00000000       0.00000000       0.47930038
2
Properties=species:S:1:pos:R:3:forces:R:3 energy=-12.195662638987292 pbc="F F F"
U        0.00000000       0.00000000       0.00000000       0.00000000       0.00000000      -0.49361712
U        0.00000000       0.00000000       2.76666667       0.00000000       0.00000000       0.49361712
2
Properties=species:S:1:pos:R:3:forces:R:3 energy=-12.224260403245204 pbc="F F F"
U        0.00000000       0.00000000       0.00000000       0.00000000       0.00000000      -0.47235283
U        0.00000000       0.00000000       2.82545455       0.00000000       0.00000000       0.47235283
2
Properties=species:S:1:pos:R:3:forces:R:3 energy=-12.250218582966886 pbc="F F F"
U        0.00000000       0.00000000       0.00000000       0.00000000       0.00000000      -0.40085626
U        0.00000000       0.00000000       2.88424242       0.00000000       0.00000000       0.40085626
2
Properties=species:S:1:pos:R:3:forces:R:3 energy=-12.27004632800073 pbc="F F F"
U        0.00000000       0.00000000       0.00000000       0.00000000       0.00000000      -0.26080427
U        0.00000000       0.00000000       2.94303030       0.00000000       0.00000000       0.26080427
2
Properties=species:S:1:pos:R:3:forces:R:3 energy=-12.279247830877537 pbc="F F F"
U        0.00000000       0.00000000       0.00000000       0.00000000       0.00000000      -0.03781104
U        0.00000000       0.00000000       3.00181818       0.00000000       0.00000000       0.03781104
2
Properties=species:S:1:pos:R:3:forces:R:3 energy=-12.27286703022833 pbc="F F F"
U        0.00000000       0.00000000       0.00000000       0.00000000       0.00000000       0.26744434
U        0.00000000       0.00000000       3.06060606       0.00000000       0.00000000      -0.26744434
2
Properties=species:S:1:pos:R:3:forces:R:3 energy=-12.246623357539782 pbc="F F F"
U        0.00000000       0.00000000       0.00000000       0.00000000       0.00000000       0.63218653
U        0.00000000       0.00000000       3.11939394       0.00000000       0.00000000      -0.63218653
2
Properties=species:S:1:pos:R:3:forces:R:3 energy=-12.198182351453562 pbc="F F F"
U        0.00000000       0.00000000       0.00000000       0.00000000       0.00000000       1.01479554
U        0.00000000       0.00000000       3.17818182       0.00000000       0.00000000      -1.01479554
2
Properties=species:S:1:pos:R:3:forces:R:3 energy=-12.127887658161134 pbc="F F F"
U        0.00000000       0.00000000       0.00000000       0.00000000       0.00000000       1.36831200
U        0.00000000       0.00000000       3.23696970       0.00000000       0.00000000      -1.36831200
2
Properties=species:S:1:pos:R:3:forces:R:3 energy=-12.038588597078205 pbc="F F F"
U        0.00000000       0.00000000       0.00000000       0.00000000       0.00000000       1.65691352
U        0.00000000       0.00000000       3.29575758       0.00000000       0.00000000      -1.65691352
2
Properties=species:S:1:pos:R:3:forces:R:3 energy=-11.934651209922222 pbc="F F F"
U        0.00000000       0.00000000       0.00000000       0.00000000       0.00000000       1.86568511
U        0.00000000       0.00000000       3.35454545       0.00000000       0.00000000      -1.86568511
2
Properties=species:S:1:pos:R:3:forces:R:3 energy=-11.820701536702936 pbc="F F F"
U        0.00000000       0.00000000       0.00000000       0.00000000       0.00000000       1.99965000
U        0.00000000       0.00000000       3.41333333       0.00000000       0.00000000      -1.99965000
2
Properties=species:S:1:pos:R:3:forces:R:3 energy=-11.700690263958611 pbc="F F F"
U        0.00000000       0.00000000       0.00000000       0.00000000       0.00000000       2.07496238
U        0.00000000       0.00000000       3.47212121       0.00000000       0.00000000      -2.07496238
2
Properties=species:S:1:pos:R:3:forces:R:3 energy=-11.577544887056323 pbc="F F F"
U        0.00000000       0.00000000       0.00000000       0.00000000       0.00000000       2.10884285
U        0.00000000       0.00000000       3.53090909       0.00000000       0.00000000      -2.10884285
2
Properties=species:S:1:pos:R:3:forces:R:3 energy=-11.453315115510819 pbc="F F F"
U        0.00000000       0.00000000       0.00000000       0.00000000       0.00000000       2.11319232
U        0.00000000       0.00000000       3.58969697       0.00000000       0.00000000      -2.11319232
2
Properties=species:S:1:pos:R:3:forces:R:3 energy=-11.32955795134005 pbc="F F F"
U        0.00000000       0.00000000       0.00000000       0.00000000       0.00000000       2.09323049
U        0.00000000       0.00000000       3.64848485       0.00000000       0.00000000      -2.09323049
2
Properties=species:S:1:pos:R:3:forces:R:3 energy=-11.207668997519306 pbc="F F F"
U        0.00000000       0.00000000       0.00000000       0.00000000       0.00000000       2.04946685
U        0.00000000       0.00000000       3.70727273       0.00000000       0.00000000      -2.04946685
2
Properties=species:S:1:pos:R:3:forces:R:3 energy=-11.089082944999559 pbc="F F F"
U        0.00000000       0.00000000       0.00000000       0.00000000       0.00000000       1.98052597
U        0.00000000       0.00000000       3.76606061       0.00000000       0.00000000      -1.98052597
2
Properties=species:S:1:pos:R:3:forces:R:3 energy=-10.9753258727394 pbc="F F F"
U        0.00000000       0.00000000       0.00000000       0.00000000       0.00000000       1.88516951
U        0.00000000       0.00000000       3.82484848       0.00000000       0.00000000      -1.88516951
2
Properties=species:S:1:pos:R:3:forces:R:3 energy=-10.867951592280338 pbc="F F F"
U        0.00000000       0.00000000       0.00000000       0.00000000       0.00000000       1.76339114
U        0.00000000       0.00000000       3.88363636       0.00000000       0.00000000      -1.76339114
2
Properties=species:S:1:pos:R:3:forces:R:3 energy=-10.768473987555467 pbc="F F F"
U        0.00000000       0.00000000       0.00000000       0.00000000       0.00000000       1.61710680
U        0.00000000       0.00000000       3.94242424       0.00000000       0.00000000      -1.61710680
2
Properties=species:S:1:pos:R:3:forces:R:3 energy=-10.678217975599063 pbc="F F F"
U        0.00000000       0.00000000       0.00000000       0.00000000       0.00000000       1.45065618
U        0.00000000       0.00000000       4.00121212       0.00000000       0.00000000      -1.45065618
2
Properties=species:S:1:pos:R:3:forces:R:3 energy=-10.59817481414755 pbc="F F F"
U        0.00000000       0.00000000       0.00000000       0.00000000       0.00000000       1.27088583
U        0.00000000       0.00000000       4.06000000       0.00000000       0.00000000      -1.27088583
2
Properties=species:S:1:pos:R:3:forces:R:3 energy=-10.528882790979628 pbc="F F F"
U        0.00000000       0.00000000       0.00000000       0.00000000       0.00000000       1.08650947
U        0.00000000       0.00000000       4.11878788       0.00000000       0.00000000      -1.08650947
2
Properties=species:S:1:pos:R:3:forces:R:3 energy=-10.470334882234347 pbc="F F F"
U        0.00000000       0.00000000       0.00000000       0.00000000       0.00000000       0.90683419
U        0.00000000       0.00000000       4.17757576       0.00000000       0.00000000      -0.90683419
2
Properties=species:S:1:pos:R:3:forces:R:3 energy=-10.421999682560909 pbc="F F F"
U        0.00000000       0.00000000       0.00000000       0.00000000       0.00000000       0.74038780
U        0.00000000       0.00000000       4.23636364       0.00000000       0.00000000      -0.74038780
2
Properties=species:S:1:pos:R:3:forces:R:3 energy=-10.382890114018952 pbc="F F F"
U        0.00000000       0.00000000       0.00000000       0.00000000       0.00000000       0.59389573
U        0.00000000       0.00000000       4.29515152       0.00000000       0.00000000      -0.59389573
2
Properties=species:S:1:pos:R:3:forces:R:3 energy=-10.351691332478559 pbc="F F F"
U        0.00000000       0.00000000       0.00000000       0.00000000       0.00000000       0.47185078
U        0.00000000       0.00000000       4.35393939       0.00000000       0.00000000      -0.47185078
2
Properties=species:S:1:pos:R:3:forces:R:3 energy=-10.326887490276597 pbc="F F F"
U        0.00000000       0.00000000       0.00000000       0.00000000       0.00000000       0.37653390
U        0.00000000       0.00000000       4.41272727       0.00000000       0.00000000      -0.37653390
2
Properties=species:S:1:pos:R:3:forces:R:3 energy=-10.306886800600706 pbc="F F F"
U        0.00000000       0.00000000       0.00000000       0.00000000       0.00000000       0.30838379
U        0.00000000       0.00000000       4.47151515       0.00000000       0.00000000      -0.30838379
2
Properties=species:S:1:pos:R:3:forces:R:3 energy=-10.290115970253545 pbc="F F F"
U        0.00000000       0.00000000       0.00000000       0.00000000       0.00000000       0.26640484
U        0.00000000       0.00000000       4.53030303       0.00000000       0.00000000      -0.26640484
2
Properties=species:S:1:pos:R:3:forces:R:3 energy=-10.27509082223737 pbc="F F F"
U        0.00000000       0.00000000       0.00000000       0.00000000       0.00000000       0.24857856
U        0.00000000       0.00000000       4.58909091       0.00000000       0.00000000      -0.24857856
2
Properties=species:S:1:pos:R:3:forces:R:3 energy=-10.260468741505791 pbc="F F F"
U        0.00000000       0.00000000       0.00000000       0.00000000       0.00000000       0.25217882
U        0.00000000       0.00000000       4.64787879       0.00000000       0.00000000      -0.25217882
2
Properties=species:S:1:pos:R:3:forces:R:3 energy=-10.24508407495507 pbc="F F F"
U        0.00000000       0.00000000       0.00000000       0.00000000       0.00000000       0.27393928
U        0.00000000       0.00000000       4.70666667       0.00000000       0.00000000      -0.27393928
2
Properties=species:S:1:pos:R:3:forces:R:3 energy=-10.22797857297452 pbc="F F F"
U        0.00000000       0.00000000       0.00000000       0.00000000       0.00000000       0.31004226
U        0.00000000       0.00000000       4.76545455       0.00000000       0.00000000      -0.31004226
2
Properties=species:S:1:pos:R:3:forces:R:3 energy=-10.208436802109095 pbc="F F F"
U        0.00000000       0.00000000       0.00000000       0.00000000       0.00000000       0.35597879
U        0.00000000       0.00000000       4.82424242       0.00000000       0.00000000      -0.35597879
2
Properties=species:S:1:pos:R:3:forces:R:3 energy=-10.186037624465547 pbc="F F F"
U        0.00000000       0.00000000       0.00000000       0.00000000       0.00000000       0.40637186
U        0.00000000       0.00000000       4.88303030       0.00000000       0.00000000      -0.40637186
2
Properties=species:S:1:pos:R:3:forces:R:3 energy=-10.160689445648263 pbc="F F F"
U        0.00000000       0.00000000       0.00000000       0.00000000       0.00000000       0.45513856
U        0.00000000       0.00000000       4.94181818       0.00000000       0.00000000      -0.45513856
2
Properties=species:S:1:pos:R:3:forces:R:3 energy=-10.132678845813759 pbc="F F F"
U        0.00000000       0.00000000       0.00000000       0.00000000       0.00000000       0.49590486
U        0.00000000       0.00000000       5.00060606       0.00000000       0.00000000      -0.49590486
2
Properties=species:S:1:pos:R:3:forces:R:3 energy=-10.102651607554664 pbc="F F F"
U        0.00000000       0.00000000       0.00000000       0.00000000       0.00000000       0.52296835
U        0.00000000       0.00000000       5.05939394       0.00000000       0.00000000      -0.52296835
2
Properties=species:S:1:pos:R:3:forces:R:3 energy=-10.071540059253623 pbc="F F F"
U        0.00000000       0.00000000       0.00000000       0.00000000       0.00000000       0.53229618
U        0.00000000       0.00000000       5.11818182       0.00000000       0.00000000      -0.53229618
2
Properties=species:S:1:pos:R:3:forces:R:3 energy=-10.040448684850496 pbc="F F F"
U        0.00000000       0.00000000       0.00000000       0.00000000       0.00000000       0.52230531
U        0.00000000       0.00000000       5.17696970       0.00000000       0.00000000      -0.52230531
2
Properties=species:S:1:pos:R:3:forces:R:3 energy=-10.010489984153974 pbc="F F F"
U        0.00000000       0.00000000       0.00000000       0.00000000       0.00000000       0.49412203
U        0.00000000       0.00000000       5.23575758       0.00000000       0.00000000      -0.49412203
2
Properties=species:S:1:pos:R:3:forces:R:3 energy=-9.98264428905271 pbc="F F F"
U        0.00000000       0.00000000       0.00000000       0.00000000       0.00000000       0.45114347
U        0.00000000       0.00000000       5.29454545       0.00000000       0.00000000      -0.45114347
2
Properties=species:S:1:pos:R:3:forces:R:3 energy=-9.957640478198046 pbc="F F F"
U        0.00000000       0.00000000       0.00000000       0.00000000       0.00000000       0.39823851
U        0.00000000       0.00000000       5.35333333       0.00000000       0.00000000      -0.39823851
2
Properties=species:S:1:pos:R:3:forces:R:3 energy=-9.935909107578327 pbc="F F F"
U        0.00000000       0.00000000       0.00000000       0.00000000       0.00000000       0.34068552
U        0.00000000       0.00000000       5.41212121       0.00000000       0.00000000      -0.34068552
2
Properties=species:S:1:pos:R:3:forces:R:3 energy=-9.91758047149205 pbc="F F F"
U        0.00000000       0.00000000       0.00000000       0.00000000       0.00000000       0.28327781
U        0.00000000       0.00000000       5.47090909       0.00000000       0.00000000      -0.28327781
2
Properties=species:S:1:pos:R:3:forces:R:3 energy=-9.902526519868271 pbc="F F F"
U        0.00000000       0.00000000       0.00000000       0.00000000       0.00000000       0.22968480
U        0.00000000       0.00000000       5.52969697       0.00000000       0.00000000      -0.22968480
2
Properties=species:S:1:pos:R:3:forces:R:3 energy=-9.890454109273358 pbc="F F F"
U        0.00000000       0.00000000       0.00000000       0.00000000       0.00000000       0.18216580
U        0.00000000       0.00000000       5.58848485       0.00000000       0.00000000      -0.18216580
2
Properties=species:S:1:pos:R:3:forces:R:3 energy=-9.880969032138717 pbc="F F F"
U        0.00000000       0.00000000       0.00000000       0.00000000       0.00000000       0.14173217
U        0.00000000       0.00000000       5.64727273       0.00000000       0.00000000      -0.14173217
2
Properties=species:S:1:pos:R:3:forces:R:3 energy=-9.873652006595176 pbc="F F F"
U        0.00000000       0.00000000       0.00000000       0.00000000       0.00000000       0.10840842
U        0.00000000       0.00000000       5.70606061       0.00000000       0.00000000      -0.10840842
2
Properties=species:S:1:pos:R:3:forces:R:3 energy=-9.868088291061955 pbc="F F F"
U        0.00000000       0.00000000       0.00000000       0.00000000       0.00000000       0.08171096
U        0.00000000       0.00000000       5.76484848       0.00000000       0.00000000      -0.08171096
2
Properties=species:S:1:pos:R:3:forces:R:3 energy=-9.863923010028296 pbc="F F F"
U        0.00000000       0.00000000       0.00000000       0.00000000       0.00000000       0.06106180
U        0.00000000       0.00000000       5.82363636       0.00000000       0.00000000      -0.06106180
2
Properties=species:S:1:pos:R:3:forces:R:3 energy=-9.860803680168717 pbc="F F F"
U        0.00000000       0.00000000       0.00000000       0.00000000       0.00000000       0.04603635
U        0.00000000       0.00000000       5.88242424       0.00000000       0.00000000      -0.04603635
2
Properties=species:S:1:pos:R:3:forces:R:3 energy=-9.858401302051739 pbc="F F F"
U        0.00000000       0.00000000       0.00000000       0.00000000       0.00000000       0.03655589
U        0.00000000       0.00000000       5.94121212       0.00000000       0.00000000      -0.03655589
2
Properties=species:S:1:pos:R:3:forces:R:3 energy=-9.85639219281055 pbc="F F F"
U        0.00000000       0.00000000       0.00000000       0.00000000       0.00000000       0.03283592
U        0.00000000       0.00000000       6.00000000       0.00000000       0.00000000      -0.03283592
