2
Properties=species:S:1:pos:R:3:forces:R:3 energy=7937.123355263656 pbc="F F F"
Be       0.00000000       0.00000000       0.00000000       0.00000000       0.00000000  -36003.44531250
Be       0.00000000       0.00000000       0.10000000       0.00000000       0.00000000   36003.44531250
2
Properties=species:S:1:pos:R:3:forces:R:3 energy=5591.109195107406 pbc="F F F"
Be       0.00000000       0.00000000       0.00000000       0.00000000       0.00000000  -40350.58984375
Be       0.00000000       0.00000000       0.15959596       0.00000000       0.00000000   40350.58984375
2
Properties=species:S:1:pos:R:3:forces:R:3 energy=3363.0239900292804 pbc="F F F"
Be       0.00000000       0.00000000       0.00000000       0.00000000       0.00000000  -33027.08984375
Be       0.00000000       0.00000000       0.21919192       0.00000000       0.00000000   33027.08984375
2
Properties=species:S:1:pos:R:3:forces:R:3 energy=1741.4153474511556 pbc="F F F"
Be       0.00000000       0.00000000       0.00000000       0.00000000       0.00000000  -21270.08398438
Be       0.00000000       0.00000000       0.27878788       0.00000000       0.00000000   21270.08398438
2
Properties=species:S:1:pos:R:3:forces:R:3 energy=787.712649703585 pbc="F F F"
Be       0.00000000       0.00000000       0.00000000       0.00000000       0.00000000  -11338.48730469
Be       0.00000000       0.00000000       0.33838384       0.00000000       0.00000000   11338.48730469
2
Properties=species:S:1:pos:R:3:forces:R:3 energy=299.8727449406035 pbc="F F F"
Be       0.00000000       0.00000000       0.00000000       0.00000000       0.00000000   -5325.41601562
Be       0.00000000       0.00000000       0.39797980       0.00000000       0.00000000    5325.41601562
2
Properties=species:S:1:pos:R:3:forces:R:3 energy=96.92508262510174 pbc="F F F"
Be       0.00000000       0.00000000       0.00000000       0.00000000       0.00000000   -2070.27148438
Be       0.00000000       0.00000000       0.45757576       0.00000000       0.00000000    2070.27148438
2
Properties=species:S:1:pos:R:3:forces:R:3 energy=23.20985175618919 pbc="F F F"
Be       0.00000000       0.00000000       0.00000000       0.00000000       0.00000000    -585.12475586
Be       0.00000000       0.00000000       0.51717172       0.00000000       0.00000000     585.12475586
2
Properties=species:S:1:pos:R:3:forces:R:3 energy=6.461587573325759 pbc="F F F"
Be       0.00000000       0.00000000       0.00000000       0.00000000       0.00000000     -91.78538513
Be       0.00000000       0.00000000       0.57676768       0.00000000       0.00000000      91.78538513
2
Properties=species:S:1:pos:R:3:forces:R:3 energy=3.9317911978993347 pbc="F F F"
Be       0.00000000       0.00000000       0.00000000       0.00000000       0.00000000     -24.02691841
Be       0.00000000       0.00000000       0.63636364       0.00000000       0.00000000      24.02691841
2
Properties=species:S:1:pos:R:3:forces:R:3 energy=3.020623447910064 pbc="F F F"
Be       0.00000000       0.00000000       0.00000000       0.00000000       0.00000000      -5.91779470
Be       0.00000000       0.00000000       0.69595960       0.00000000       0.00000000       5.91779470
2
Properties=species:S:1:pos:R:3:forces:R:3 energy=2.8751209486470555 pbc="F F F"
Be       0.00000000       0.00000000       0.00000000       0.00000000       0.00000000       1.69676316
Be       0.00000000       0.00000000       0.75555556       0.00000000       0.00000000      -1.69676316
2
Properties=species:S:1:pos:R:3:forces:R:3 energy=3.1055514057947304 pbc="F F F"
Be       0.00000000       0.00000000       0.00000000       0.00000000       0.00000000       8.36531830
Be       0.00000000       0.00000000       0.81515152       0.00000000       0.00000000      -8.36531830
2
Properties=species:S:1:pos:R:3:forces:R:3 energy=3.539506819948349 pbc="F F F"
Be       0.00000000       0.00000000       0.00000000       0.00000000       0.00000000       5.35580015
Be       0.00000000       0.00000000       0.87474747       0.00000000       0.00000000      -5.35580015
2
Properties=species:S:1:pos:R:3:forces:R:3 energy=3.686541217619088 pbc="F F F"
Be       0.00000000       0.00000000       0.00000000       0.00000000       0.00000000      -1.23146093
Be       0.00000000       0.00000000       0.93434343       0.00000000       0.00000000       1.23146093
2
Properties=species:S:1:pos:R:3:forces:R:3 energy=3.41937164821329 pbc="F F F"
Be       0.00000000       0.00000000       0.00000000       0.00000000       0.00000000      -6.45044327
Be       0.00000000       0.00000000       0.99393939       0.00000000       0.00000000       6.45044327
2
Properties=species:S:1:pos:R:3:forces:R:3 energy=3.014428434972989 pbc="F F F"
Be       0.00000000       0.00000000       0.00000000       0.00000000       0.00000000      -7.45890427
Be       0.00000000       0.00000000       1.05353535       0.00000000       0.00000000       7.45890427
2
Properties=species:S:1:pos:R:3:forces:R:3 energy=2.537666004851936 pbc="F F F"
Be       0.00000000       0.00000000       0.00000000       0.00000000       0.00000000      -9.00061417
Be       0.00000000       0.00000000       1.11313131       0.00000000       0.00000000       9.00061417
2
Properties=species:S:1:pos:R:3:forces:R:3 energy=1.9418663106967522 pbc="F F F"
Be       0.00000000       0.00000000       0.00000000       0.00000000       0.00000000     -10.12190151
Be       0.00000000       0.00000000       1.17272727       0.00000000       0.00000000      10.12190151
2
Properties=species:S:1:pos:R:3:forces:R:3 energy=1.4009426713038124 pbc="F F F"
Be       0.00000000       0.00000000       0.00000000       0.00000000       0.00000000      -7.78635550
Be       0.00000000       0.00000000       1.23232323       0.00000000       0.00000000       7.78635550
2
Properties=species:S:1:pos:R:3:forces:R:3 energy=0.9287408978660717 pbc="F F F"
Be       0.00000000       0.00000000       0.00000000       0.00000000       0.00000000      -7.97672510
Be       0.00000000       0.00000000       1.29191919       0.00000000       0.00000000       7.97672510
2
Properties=species:S:1:pos:R:3:forces:R:3 energy=0.4918179797830742 pbc="F F F"
Be       0.00000000       0.00000000       0.00000000       0.00000000       0.00000000      -6.81463146
Be       0.00000000       0.00000000       1.35151515       0.00000000       0.00000000       6.81463146
2
Properties=species:S:1:pos:R:3:forces:R:3 energy=0.10066960659059224 pbc="F F F"
Be       0.00000000       0.00000000       0.00000000       0.00000000       0.00000000      -6.23680210
Be       0.00000000       0.00000000       1.41111111       0.00000000       0.00000000       6.23680210
2
Properties=species:S:1:pos:R:3:forces:R:3 energy=-0.24792422550900217 pbc="F F F"
Be       0.00000000       0.00000000       0.00000000       0.00000000       0.00000000      -5.50974512
Be       0.00000000       0.00000000       1.47070707       0.00000000       0.00000000       5.50974512
2
Properties=species:S:1:pos:R:3:forces:R:3 energy=-0.5518095465334549 pbc="F F F"
Be       0.00000000       0.00000000       0.00000000       0.00000000       0.00000000      -4.64429331
Be       0.00000000       0.00000000       1.53030303       0.00000000       0.00000000       4.64429331
2
Properties=species:S:1:pos:R:3:forces:R:3 energy=-0.8022768165782468 pbc="F F F"
Be       0.00000000       0.00000000       0.00000000       0.00000000       0.00000000      -3.75742078
Be       0.00000000       0.00000000       1.58989899       0.00000000       0.00000000       3.75742078
2
Properties=species:S:1:pos:R:3:forces:R:3 energy=-0.9979246572487649 pbc="F F F"
Be       0.00000000       0.00000000       0.00000000       0.00000000       0.00000000      -2.85015225
Be       0.00000000       0.00000000       1.64949495       0.00000000       0.00000000       2.85015225
2
Properties=species:S:1:pos:R:3:forces:R:3 energy=-1.1459379811527266 pbc="F F F"
Be       0.00000000       0.00000000       0.00000000       0.00000000       0.00000000      -2.16436911
Be       0.00000000       0.00000000       1.70909091       0.00000000       0.00000000       2.16436911
2
Properties=species:S:1:pos:R:3:forces:R:3 energy=-1.2640566481219468 pbc="F F F"
Be       0.00000000       0.00000000       0.00000000       0.00000000       0.00000000      -1.86949122
Be       0.00000000       0.00000000       1.76868687       0.00000000       0.00000000       1.86949122
2
Properties=species:S:1:pos:R:3:forces:R:3 energy=-1.3650283432285748 pbc="F F F"
Be       0.00000000       0.00000000       0.00000000       0.00000000       0.00000000      -1.41145921
Be       0.00000000       0.00000000       1.82828283       0.00000000       0.00000000       1.41145921
2
Properties=species:S:1:pos:R:3:forces:R:3 energy=-1.4320712145379 pbc="F F F"
Be       0.00000000       0.00000000       0.00000000       0.00000000       0.00000000      -0.90895653
Be       0.00000000       0.00000000       1.88787879       0.00000000       0.00000000       0.90895653
2
Properties=species:S:1:pos:R:3:forces:R:3 energy=-1.4780790612338492 pbc="F F F"
Be       0.00000000       0.00000000       0.00000000       0.00000000       0.00000000      -0.62443447
Be       0.00000000       0.00000000       1.94747475       0.00000000       0.00000000       0.62443447
2
Properties=species:S:1:pos:R:3:forces:R:3 energy=-1.5073115390883765 pbc="F F F"
Be       0.00000000       0.00000000       0.00000000       0.00000000       0.00000000      -0.37332964
Be       0.00000000       0.00000000       2.00707071       0.00000000       0.00000000       0.37332964
2
Properties=species:S:1:pos:R:3:forces:R:3 energy=-1.5210862873403093 pbc="F F F"
Be       0.00000000       0.00000000       0.00000000       0.00000000       0.00000000      -0.07425564
Be       0.00000000       0.00000000       2.06666667       0.00000000       0.00000000       0.07425564
2
Properties=species:S:1:pos:R:3:forces:R:3 energy=-1.5179907547878182 pbc="F F F"
Be       0.00000000       0.00000000       0.00000000       0.00000000       0.00000000       0.16232307
Be       0.00000000       0.00000000       2.12626263       0.00000000       0.00000000      -0.16232307
2
Properties=species:S:1:pos:R:3:forces:R:3 energy=-1.503322271787587 pbc="F F F"
Be       0.00000000       0.00000000       0.00000000       0.00000000       0.00000000       0.30743384
Be       0.00000000       0.00000000       2.18585859       0.00000000       0.00000000      -0.30743384
2
Properties=species:S:1:pos:R:3:forces:R:3 energy=-1.4836600386889296 pbc="F F F"
Be       0.00000000       0.00000000       0.00000000       0.00000000       0.00000000       0.34604302
Be       0.00000000       0.00000000       2.24545455       0.00000000       0.00000000      -0.34604302
2
Properties=species:S:1:pos:R:3:forces:R:3 energy=-1.4618154341618061 pbc="F F F"
Be       0.00000000       0.00000000       0.00000000       0.00000000       0.00000000       0.39169523
Be       0.00000000       0.00000000       2.30505051       0.00000000       0.00000000      -0.39169523
2
Properties=species:S:1:pos:R:3:forces:R:3 energy=-1.436833941697036 pbc="F F F"
Be       0.00000000       0.00000000       0.00000000       0.00000000       0.00000000       0.44356072
Be       0.00000000       0.00000000       2.36464646       0.00000000       0.00000000      -0.44356072
2
Properties=species:S:1:pos:R:3:forces:R:3 energy=-1.4093156645415592 pbc="F F F"
Be       0.00000000       0.00000000       0.00000000       0.00000000       0.00000000       0.47803807
Be       0.00000000       0.00000000       2.42424242       0.00000000       0.00000000      -0.47803807
2
Properties=species:S:1:pos:R:3:forces:R:3 energy=-1.3801707185248664 pbc="F F F"
Be       0.00000000       0.00000000       0.00000000       0.00000000       0.00000000       0.49710274
Be       0.00000000       0.00000000       2.48383838       0.00000000       0.00000000      -0.49710274
2
Properties=species:S:1:pos:R:3:forces:R:3 energy=-1.3500629684942473 pbc="F F F"
Be       0.00000000       0.00000000       0.00000000       0.00000000       0.00000000       0.51610219
Be       0.00000000       0.00000000       2.54343434       0.00000000       0.00000000      -0.51610219
2
Properties=species:S:1:pos:R:3:forces:R:3 energy=-1.318321256014229 pbc="F F F"
Be       0.00000000       0.00000000       0.00000000       0.00000000       0.00000000       0.55090171
Be       0.00000000       0.00000000       2.60303030       0.00000000       0.00000000      -0.55090171
2
Properties=species:S:1:pos:R:3:forces:R:3 energy=-1.28438938513287 pbc="F F F"
Be       0.00000000       0.00000000       0.00000000       0.00000000       0.00000000       0.58633113
Be       0.00000000       0.00000000       2.66262626       0.00000000       0.00000000      -0.58633113
2
Properties=species:S:1:pos:R:3:forces:R:3 energy=-1.2487176565670082 pbc="F F F"
Be       0.00000000       0.00000000       0.00000000       0.00000000       0.00000000       0.60802966
Be       0.00000000       0.00000000       2.72222222       0.00000000       0.00000000      -0.60802966
2
Properties=species:S:1:pos:R:3:forces:R:3 energy=-1.212212852636907 pbc="F F F"
Be       0.00000000       0.00000000       0.00000000       0.00000000       0.00000000       0.61504436
Be       0.00000000       0.00000000       2.78181818       0.00000000       0.00000000      -0.61504436
2
Properties=species:S:1:pos:R:3:forces:R:3 energy=-1.1756225745180935 pbc="F F F"
Be       0.00000000       0.00000000       0.00000000       0.00000000       0.00000000       0.61114132
Be       0.00000000       0.00000000       2.84141414       0.00000000       0.00000000      -0.61114132
2
Properties=species:S:1:pos:R:3:forces:R:3 energy=-1.1395903469148483 pbc="F F F"
Be       0.00000000       0.00000000       0.00000000       0.00000000       0.00000000       0.59614861
Be       0.00000000       0.00000000       2.90101010       0.00000000       0.00000000      -0.59614861
2
Properties=species:S:1:pos:R:3:forces:R:3 energy=-1.1047787159091782 pbc="F F F"
Be       0.00000000       0.00000000       0.00000000       0.00000000       0.00000000       0.57071221
Be       0.00000000       0.00000000       2.96060606       0.00000000       0.00000000      -0.57071221
2
Properties=species:S:1:pos:R:3:forces:R:3 energy=-1.0716598377802498 pbc="F F F"
Be       0.00000000       0.00000000       0.00000000       0.00000000       0.00000000       0.54048306
Be       0.00000000       0.00000000       3.02020202       0.00000000       0.00000000      -0.54048306
2
Properties=species:S:1:pos:R:3:forces:R:3 energy=-1.0403556500533817 pbc="F F F"
Be       0.00000000       0.00000000       0.00000000       0.00000000       0.00000000       0.51004028
Be       0.00000000       0.00000000       3.07979798       0.00000000       0.00000000      -0.51004028
2
Properties=species:S:1:pos:R:3:forces:R:3 energy=-1.0109016535814621 pbc="F F F"
Be       0.00000000       0.00000000       0.00000000       0.00000000       0.00000000       0.47785297
Be       0.00000000       0.00000000       3.13939394       0.00000000       0.00000000      -0.47785297
2
Properties=species:S:1:pos:R:3:forces:R:3 energy=-0.9834818859430268 pbc="F F F"
Be       0.00000000       0.00000000       0.00000000       0.00000000       0.00000000       0.44171301
Be       0.00000000       0.00000000       3.19898990       0.00000000       0.00000000      -0.44171301
2
Properties=species:S:1:pos:R:3:forces:R:3 energy=-0.9583048100931959 pbc="F F F"
Be       0.00000000       0.00000000       0.00000000       0.00000000       0.00000000       0.40297619
Be       0.00000000       0.00000000       3.25858586       0.00000000       0.00000000      -0.40297619
2
Properties=species:S:1:pos:R:3:forces:R:3 energy=-0.9354308193699474 pbc="F F F"
Be       0.00000000       0.00000000       0.00000000       0.00000000       0.00000000       0.36517170
Be       0.00000000       0.00000000       3.31818182       0.00000000       0.00000000      -0.36517170
2
Properties=species:S:1:pos:R:3:forces:R:3 energy=-0.9147045613038448 pbc="F F F"
Be       0.00000000       0.00000000       0.00000000       0.00000000       0.00000000       0.33112901
Be       0.00000000       0.00000000       3.37777778       0.00000000       0.00000000      -0.33112901
2
Properties=species:S:1:pos:R:3:forces:R:3 energy=-0.8958729048016071 pbc="F F F"
Be       0.00000000       0.00000000       0.00000000       0.00000000       0.00000000       0.30159795
Be       0.00000000       0.00000000       3.43737374       0.00000000       0.00000000      -0.30159795
2
Properties=species:S:1:pos:R:3:forces:R:3 energy=-0.8786765752438593 pbc="F F F"
Be       0.00000000       0.00000000       0.00000000       0.00000000       0.00000000       0.27612829
Be       0.00000000       0.00000000       3.49696970       0.00000000       0.00000000      -0.27612829
2
Properties=species:S:1:pos:R:3:forces:R:3 energy=-0.8628921985184301 pbc="F F F"
Be       0.00000000       0.00000000       0.00000000       0.00000000       0.00000000       0.25406101
Be       0.00000000       0.00000000       3.55656566       0.00000000       0.00000000      -0.25406101
2
Properties=species:S:1:pos:R:3:forces:R:3 energy=-0.848340852410978 pbc="F F F"
Be       0.00000000       0.00000000       0.00000000       0.00000000       0.00000000       0.23461713
Be       0.00000000       0.00000000       3.61616162       0.00000000       0.00000000      -0.23461713
2
Properties=species:S:1:pos:R:3:forces:R:3 energy=-0.8348933990087658 pbc="F F F"
Be       0.00000000       0.00000000       0.00000000       0.00000000       0.00000000       0.21689171
Be       0.00000000       0.00000000       3.67575758       0.00000000       0.00000000      -0.21689171
2
Properties=species:S:1:pos:R:3:forces:R:3 energy=-0.8224713021586244 pbc="F F F"
Be       0.00000000       0.00000000       0.00000000       0.00000000       0.00000000       0.20012091
Be       0.00000000       0.00000000       3.73535354       0.00000000       0.00000000      -0.20012091
2
Properties=species:S:1:pos:R:3:forces:R:3 energy=-0.8110301108926479 pbc="F F F"
Be       0.00000000       0.00000000       0.00000000       0.00000000       0.00000000       0.18391782
Be       0.00000000       0.00000000       3.79494949       0.00000000       0.00000000      -0.18391782
2
Properties=species:S:1:pos:R:3:forces:R:3 energy=-0.8005372176401676 pbc="F F F"
Be       0.00000000       0.00000000       0.00000000       0.00000000       0.00000000       0.16827822
Be       0.00000000       0.00000000       3.85454545       0.00000000       0.00000000      -0.16827822
2
Properties=species:S:1:pos:R:3:forces:R:3 energy=-0.7909573186941673 pbc="F F F"
Be       0.00000000       0.00000000       0.00000000       0.00000000       0.00000000       0.15342684
Be       0.00000000       0.00000000       3.91414141       0.00000000       0.00000000      -0.15342684
2
Properties=species:S:1:pos:R:3:forces:R:3 energy=-0.7822302009336568 pbc="F F F"
Be       0.00000000       0.00000000       0.00000000       0.00000000       0.00000000       0.13963683
Be       0.00000000       0.00000000       3.97373737       0.00000000       0.00000000      -0.13963683
2
Properties=species:S:1:pos:R:3:forces:R:3 energy=-0.7742878477727462 pbc="F F F"
Be       0.00000000       0.00000000       0.00000000       0.00000000       0.00000000       0.12710725
Be       0.00000000       0.00000000       4.03333333       0.00000000       0.00000000      -0.12710725
2
Properties=species:S:1:pos:R:3:forces:R:3 energy=-0.7670542015739853 pbc="F F F"
Be       0.00000000       0.00000000       0.00000000       0.00000000       0.00000000       0.11591887
Be       0.00000000       0.00000000       4.09292929       0.00000000       0.00000000      -0.11591887
2
Properties=species:S:1:pos:R:3:forces:R:3 energy=-0.7604452238369838 pbc="F F F"
Be       0.00000000       0.00000000       0.00000000       0.00000000       0.00000000       0.10605119
Be       0.00000000       0.00000000       4.15252525       0.00000000       0.00000000      -0.10605119
2
Properties=species:S:1:pos:R:3:forces:R:3 energy=-0.7543888558347911 pbc="F F F"
Be       0.00000000       0.00000000       0.00000000       0.00000000       0.00000000       0.09742158
Be       0.00000000       0.00000000       4.21212121       0.00000000       0.00000000      -0.09742158
2
Properties=species:S:1:pos:R:3:forces:R:3 energy=-0.7488117020195102 pbc="F F F"
Be       0.00000000       0.00000000       0.00000000       0.00000000       0.00000000       0.08991250
Be       0.00000000       0.00000000       4.27171717       0.00000000       0.00000000      -0.08991250
2
Properties=species:S:1:pos:R:3:forces:R:3 energy=-0.7436525160951688 pbc="F F F"
Be       0.00000000       0.00000000       0.00000000       0.00000000       0.00000000       0.08338296
Be       0.00000000       0.00000000       4.33131313       0.00000000       0.00000000      -0.08338296
2
Properties=species:S:1:pos:R:3:forces:R:3 energy=-0.7388565518317298 pbc="F F F"
Be       0.00000000       0.00000000       0.00000000       0.00000000       0.00000000       0.07767060
Be       0.00000000       0.00000000       4.39090909       0.00000000       0.00000000      -0.07767060
2
Properties=species:S:1:pos:R:3:forces:R:3 energy=-0.7343833175885979 pbc="F F F"
Be       0.00000000       0.00000000       0.00000000       0.00000000       0.00000000       0.07260577
Be       0.00000000       0.00000000       4.45050505       0.00000000       0.00000000      -0.07260577
2
Properties=species:S:1:pos:R:3:forces:R:3 energy=-0.7301924327588027 pbc="F F F"
Be       0.00000000       0.00000000       0.00000000       0.00000000       0.00000000       0.06803684
Be       0.00000000       0.00000000       4.51010101       0.00000000       0.00000000      -0.06803684
2
Properties=species:S:1:pos:R:3:forces:R:3 energy=-0.726264668792581 pbc="F F F"
Be       0.00000000       0.00000000       0.00000000       0.00000000       0.00000000       0.06385207
Be       0.00000000       0.00000000       4.56969697       0.00000000       0.00000000      -0.06385207
2
Properties=species:S:1:pos:R:3:forces:R:3 energy=-0.7225764375774939 pbc="F F F"
Be       0.00000000       0.00000000       0.00000000       0.00000000       0.00000000       0.05999012
Be       0.00000000       0.00000000       4.62929293       0.00000000       0.00000000      -0.05999012
2
Properties=species:S:1:pos:R:3:forces:R:3 energy=-0.7191084109372302 pbc="F F F"
Be       0.00000000       0.00000000       0.00000000       0.00000000       0.00000000       0.05643232
Be       0.00000000       0.00000000       4.68888889       0.00000000       0.00000000      -0.05643232
2
Properties=species:S:1:pos:R:3:forces:R:3 energy=-0.7158437716740805 pbc="F F F"
Be       0.00000000       0.00000000       0.00000000       0.00000000       0.00000000       0.05318175
Be       0.00000000       0.00000000       4.74848485       0.00000000       0.00000000      -0.05318175
2
Properties=species:S:1:pos:R:3:forces:R:3 energy=-0.7127625327047269 pbc="F F F"
Be       0.00000000       0.00000000       0.00000000       0.00000000       0.00000000       0.05024446
Be       0.00000000       0.00000000       4.80808081       0.00000000       0.00000000      -0.05024446
2
Properties=species:S:1:pos:R:3:forces:R:3 energy=-0.7098493478125916 pbc="F F F"
Be       0.00000000       0.00000000       0.00000000       0.00000000       0.00000000       0.04761540
Be       0.00000000       0.00000000       4.86767677       0.00000000       0.00000000      -0.04761540
2
Properties=species:S:1:pos:R:3:forces:R:3 energy=-0.7070820445893304 pbc="F F F"
Be       0.00000000       0.00000000       0.00000000       0.00000000       0.00000000       0.04526884
Be       0.00000000       0.00000000       4.92727273       0.00000000       0.00000000      -0.04526884
2
Properties=species:S:1:pos:R:3:forces:R:3 energy=-0.7044479620271858 pbc="F F F"
Be       0.00000000       0.00000000       0.00000000       0.00000000       0.00000000       0.04315498
Be       0.00000000       0.00000000       4.98686869       0.00000000       0.00000000      -0.04315498
2
Properties=species:S:1:pos:R:3:forces:R:3 energy=-0.7019353896248947 pbc="F F F"
Be       0.00000000       0.00000000       0.00000000       0.00000000       0.00000000       0.04119750
Be       0.00000000       0.00000000       5.04646465       0.00000000       0.00000000      -0.04119750
2
Properties=species:S:1:pos:R:3:forces:R:3 energy=-0.6995374074275308 pbc="F F F"
Be       0.00000000       0.00000000       0.00000000       0.00000000       0.00000000       0.03929341
Be       0.00000000       0.00000000       5.10606061       0.00000000       0.00000000      -0.03929341
2
Properties=species:S:1:pos:R:3:forces:R:3 energy=-0.6972519541346812 pbc="F F F"
Be       0.00000000       0.00000000       0.00000000       0.00000000       0.00000000       0.03732074
Be       0.00000000       0.00000000       5.16565657       0.00000000       0.00000000      -0.03732074
2
Properties=species:S:1:pos:R:3:forces:R:3 energy=-0.6950923278133487 pbc="F F F"
Be       0.00000000       0.00000000       0.00000000       0.00000000       0.00000000       0.03515485
Be       0.00000000       0.00000000       5.22525253       0.00000000       0.00000000      -0.03515485
2
Properties=species:S:1:pos:R:3:forces:R:3 energy=-0.693068098156424 pbc="F F F"
Be       0.00000000       0.00000000       0.00000000       0.00000000       0.00000000       0.03269013
Be       0.00000000       0.00000000       5.28484848       0.00000000       0.00000000      -0.03269013
2
Properties=species:S:1:pos:R:3:forces:R:3 energy=-0.6912023375607351 pbc="F F F"
Be       0.00000000       0.00000000       0.00000000       0.00000000       0.00000000       0.02986854
Be       0.00000000       0.00000000       5.34444444       0.00000000       0.00000000      -0.02986854
2
Properties=species:S:1:pos:R:3:forces:R:3 energy=-0.6895153714417581 pbc="F F F"
Be       0.00000000       0.00000000       0.00000000       0.00000000       0.00000000       0.02669280
Be       0.00000000       0.00000000       5.40404040       0.00000000       0.00000000      -0.02669280
2
Properties=species:S:1:pos:R:3:forces:R:3 energy=-0.6880267172604713 pbc="F F F"
Be       0.00000000       0.00000000       0.00000000       0.00000000       0.00000000       0.02324146
Be       0.00000000       0.00000000       5.46363636       0.00000000       0.00000000      -0.02324146
2
Properties=species:S:1:pos:R:3:forces:R:3 energy=-0.6867493486182352 pbc="F F F"
Be       0.00000000       0.00000000       0.00000000       0.00000000       0.00000000       0.01965360
Be       0.00000000       0.00000000       5.52323232       0.00000000       0.00000000      -0.01965360
2
Properties=species:S:1:pos:R:3:forces:R:3 energy=-0.685683029436022 pbc="F F F"
Be       0.00000000       0.00000000       0.00000000       0.00000000       0.00000000       0.01611318
Be       0.00000000       0.00000000       5.58282828       0.00000000       0.00000000      -0.01611318
2
Properties=species:S:1:pos:R:3:forces:R:3 energy=-0.6848228772243742 pbc="F F F"
Be       0.00000000       0.00000000       0.00000000       0.00000000       0.00000000       0.01282017
Be       0.00000000       0.00000000       5.64242424       0.00000000       0.00000000      -0.01282017
2
Properties=species:S:1:pos:R:3:forces:R:3 energy=-0.6841469827403135 pbc="F F F"
Be       0.00000000       0.00000000       0.00000000       0.00000000       0.00000000       0.00995400
Be       0.00000000       0.00000000       5.70202020       0.00000000       0.00000000      -0.00995400
2
Properties=species:S:1:pos:R:3:forces:R:3 energy=-0.6836259285155277 pbc="F F F"
Be       0.00000000       0.00000000       0.00000000       0.00000000       0.00000000       0.00765079
Be       0.00000000       0.00000000       5.76161616       0.00000000       0.00000000      -0.00765079
2
Properties=species:S:1:pos:R:3:forces:R:3 energy=-0.6832227833126817 pbc="F F F"
Be       0.00000000       0.00000000       0.00000000       0.00000000       0.00000000       0.00597018
Be       0.00000000       0.00000000       5.82121212       0.00000000       0.00000000      -0.00597018
2
Properties=species:S:1:pos:R:3:forces:R:3 energy=-0.6829016867781763 pbc="F F F"
Be       0.00000000       0.00000000       0.00000000       0.00000000       0.00000000       0.00488832
Be       0.00000000       0.00000000       5.88080808       0.00000000       0.00000000      -0.00488832
2
Properties=species:S:1:pos:R:3:forces:R:3 energy=-0.6826306942300087 pbc="F F F"
Be       0.00000000       0.00000000       0.00000000       0.00000000       0.00000000       0.00428361
Be       0.00000000       0.00000000       5.94040404       0.00000000       0.00000000      -0.00428361
2
Properties=species:S:1:pos:R:3:forces:R:3 energy=-0.6823865513649994 pbc="F F F"
Be       0.00000000       0.00000000       0.00000000       0.00000000       0.00000000       0.00395838
Be       0.00000000       0.00000000       6.00000000       0.00000000       0.00000000      -0.00395838
