2
Properties=species:S:1:pos:R:3:forces:R:3 energy=146120.0926609502 pbc="F F F"
Mg       0.00000000       0.00000000       0.00000000       0.00000000       0.00000000 -771970.25000000
Mg       0.00000000       0.00000000       0.10000000       0.00000000       0.00000000  771970.25000000
2
Properties=species:S:1:pos:R:3:forces:R:3 energy=96374.54578595019 pbc="F F F"
Mg       0.00000000       0.00000000       0.00000000       0.00000000       0.00000000 -839162.50000000
Mg       0.00000000       0.00000000       0.15959596       0.00000000       0.00000000  839162.50000000
2
Properties=species:S:1:pos:R:3:forces:R:3 energy=51575.7254734502 pbc="F F F"
Mg       0.00000000       0.00000000       0.00000000       0.00000000       0.00000000 -635805.68750000
Mg       0.00000000       0.00000000       0.21919192       0.00000000       0.00000000  635805.68750000
2
Properties=species:S:1:pos:R:3:forces:R:3 energy=21997.543832825195 pbc="F F F"
Mg       0.00000000       0.00000000       0.00000000       0.00000000       0.00000000 -359186.21875000
Mg       0.00000000       0.00000000       0.27878788       0.00000000       0.00000000  359186.21875000
2
Properties=species:S:1:pos:R:3:forces:R:3 energy=7345.625375793947 pbc="F F F"
Mg       0.00000000       0.00000000       0.00000000       0.00000000       0.00000000 -150278.17187500
Mg       0.00000000       0.00000000       0.33838384       0.00000000       0.00000000  150278.17187500
2
Properties=species:S:1:pos:R:3:forces:R:3 energy=1889.06739240818 pbc="F F F"
Mg       0.00000000       0.00000000       0.00000000       0.00000000       0.00000000  -47475.95703125
Mg       0.00000000       0.00000000       0.39797980       0.00000000       0.00000000   47475.95703125
2
Properties=species:S:1:pos:R:3:forces:R:3 energy=403.65525253460885 pbc="F F F"
Mg       0.00000000       0.00000000       0.00000000       0.00000000       0.00000000  -10326.03515625
Mg       0.00000000       0.00000000       0.45757576       0.00000000       0.00000000   10326.03515625
2
Properties=species:S:1:pos:R:3:forces:R:3 energy=129.26857960532556 pbc="F F F"
Mg       0.00000000       0.00000000       0.00000000       0.00000000       0.00000000   -1106.65502930
Mg       0.00000000       0.00000000       0.51717172       0.00000000       0.00000000    1106.65502930
2
Properties=species:S:1:pos:R:3:forces:R:3 energy=90.86575527316218 pbc="F F F"
Mg       0.00000000       0.00000000       0.00000000       0.00000000       0.00000000    -303.43212891
Mg       0.00000000       0.00000000       0.57676768       0.00000000       0.00000000     303.43212891
2
Properties=species:S:1:pos:R:3:forces:R:3 energy=74.0488532328949 pbc="F F F"
Mg       0.00000000       0.00000000       0.00000000       0.00000000       0.00000000    -329.43884277
Mg       0.00000000       0.00000000       0.63636364       0.00000000       0.00000000     329.43884277
2
Properties=species:S:1:pos:R:3:forces:R:3 energy=55.6576867359525 pbc="F F F"
Mg       0.00000000       0.00000000       0.00000000       0.00000000       0.00000000    -282.50552368
Mg       0.00000000       0.00000000       0.69595960       0.00000000       0.00000000     282.50552368
2
Properties=species:S:1:pos:R:3:forces:R:3 energy=41.06371196025347 pbc="F F F"
Mg       0.00000000       0.00000000       0.00000000       0.00000000       0.00000000    -186.35668945
Mg       0.00000000       0.00000000       0.75555556       0.00000000       0.00000000     186.35668945
2
Properties=species:S:1:pos:R:3:forces:R:3 energy=33.49341133516908 pbc="F F F"
Mg       0.00000000       0.00000000       0.00000000       0.00000000       0.00000000     -83.31103516
Mg       0.00000000       0.00000000       0.81515152       0.00000000       0.00000000      83.31103516
2
Properties=species:S:1:pos:R:3:forces:R:3 energy=29.637918416865638 pbc="F F F"
Mg       0.00000000       0.00000000       0.00000000       0.00000000       0.00000000     -41.52956390
Mg       0.00000000       0.00000000       0.87474747       0.00000000       0.00000000      41.52956390
2
Properties=species:S:1:pos:R:3:forces:R:3 energy=28.230639341929766 pbc="F F F"
Mg       0.00000000       0.00000000       0.00000000       0.00000000       0.00000000     -11.25063610
Mg       0.00000000       0.00000000       0.93434343       0.00000000       0.00000000      11.25063610
2
Properties=species:S:1:pos:R:3:forces:R:3 energy=27.85351196997054 pbc="F F F"
Mg       0.00000000       0.00000000       0.00000000       0.00000000       0.00000000      -3.16581368
Mg       0.00000000       0.00000000       0.99393939       0.00000000       0.00000000       3.16581368
2
Properties=species:S:1:pos:R:3:forces:R:3 energy=27.919942780764227 pbc="F F F"
Mg       0.00000000       0.00000000       0.00000000       0.00000000       0.00000000       1.83968425
Mg       0.00000000       0.00000000       1.05353535       0.00000000       0.00000000      -1.83968425
2
Properties=species:S:1:pos:R:3:forces:R:3 energy=27.776333102952037 pbc="F F F"
Mg       0.00000000       0.00000000       0.00000000       0.00000000       0.00000000     -10.68753910
Mg       0.00000000       0.00000000       1.11313131       0.00000000       0.00000000      10.68753910
2
Properties=species:S:1:pos:R:3:forces:R:3 energy=26.618693690860326 pbc="F F F"
Mg       0.00000000       0.00000000       0.00000000       0.00000000       0.00000000     -28.74531746
Mg       0.00000000       0.00000000       1.17272727       0.00000000       0.00000000      28.74531746
2
Properties=species:S:1:pos:R:3:forces:R:3 energy=24.743552559093384 pbc="F F F"
Mg       0.00000000       0.00000000       0.00000000       0.00000000       0.00000000     -33.25717545
Mg       0.00000000       0.00000000       1.23232323       0.00000000       0.00000000      33.25717545
2
Properties=species:S:1:pos:R:3:forces:R:3 energy=22.52863933895668 pbc="F F F"
Mg       0.00000000       0.00000000       0.00000000       0.00000000       0.00000000     -41.86955643
Mg       0.00000000       0.00000000       1.29191919       0.00000000       0.00000000      41.86955643
2
Properties=species:S:1:pos:R:3:forces:R:3 energy=20.009984080542875 pbc="F F F"
Mg       0.00000000       0.00000000       0.00000000       0.00000000       0.00000000     -42.92506790
Mg       0.00000000       0.00000000       1.35151515       0.00000000       0.00000000      42.92506790
2
Properties=species:S:1:pos:R:3:forces:R:3 energy=17.278500841538968 pbc="F F F"
Mg       0.00000000       0.00000000       0.00000000       0.00000000       0.00000000     -48.14322662
Mg       0.00000000       0.00000000       1.41111111       0.00000000       0.00000000      48.14322662
2
Properties=species:S:1:pos:R:3:forces:R:3 energy=14.407226151581769 pbc="F F F"
Mg       0.00000000       0.00000000       0.00000000       0.00000000       0.00000000     -47.73709488
Mg       0.00000000       0.00000000       1.47070707       0.00000000       0.00000000      47.73709488
2
Properties=species:S:1:pos:R:3:forces:R:3 energy=11.635429615723508 pbc="F F F"
Mg       0.00000000       0.00000000       0.00000000       0.00000000       0.00000000     -44.41669846
Mg       0.00000000       0.00000000       1.53030303       0.00000000       0.00000000      44.41669846
2
Properties=species:S:1:pos:R:3:forces:R:3 energy=9.192865184393268 pbc="F F F"
Mg       0.00000000       0.00000000       0.00000000       0.00000000       0.00000000     -37.51485825
Mg       0.00000000       0.00000000       1.58989899       0.00000000       0.00000000      37.51485825
2
Properties=species:S:1:pos:R:3:forces:R:3 energy=7.156984568195479 pbc="F F F"
Mg       0.00000000       0.00000000       0.00000000       0.00000000       0.00000000     -30.62418747
Mg       0.00000000       0.00000000       1.64949495       0.00000000       0.00000000      30.62418747
2
Properties=species:S:1:pos:R:3:forces:R:3 energy=5.51465909035287 pbc="F F F"
Mg       0.00000000       0.00000000       0.00000000       0.00000000       0.00000000     -24.72149658
Mg       0.00000000       0.00000000       1.70909091       0.00000000       0.00000000      24.72149658
2
Properties=species:S:1:pos:R:3:forces:R:3 energy=4.224288673901112 pbc="F F F"
Mg       0.00000000       0.00000000       0.00000000       0.00000000       0.00000000     -18.68779564
Mg       0.00000000       0.00000000       1.76868687       0.00000000       0.00000000      18.68779564
2
Properties=species:S:1:pos:R:3:forces:R:3 energy=3.2559897027247504 pbc="F F F"
Mg       0.00000000       0.00000000       0.00000000       0.00000000       0.00000000     -13.92127228
Mg       0.00000000       0.00000000       1.82828283       0.00000000       0.00000000      13.92127228
2
Properties=species:S:1:pos:R:3:forces:R:3 energy=2.5356777015053957 pbc="F F F"
Mg       0.00000000       0.00000000       0.00000000       0.00000000       0.00000000     -10.45534801
Mg       0.00000000       0.00000000       1.88787879       0.00000000       0.00000000      10.45534801
2
Properties=species:S:1:pos:R:3:forces:R:3 energy=1.9900770247865707 pbc="F F F"
Mg       0.00000000       0.00000000       0.00000000       0.00000000       0.00000000      -8.00350285
Mg       0.00000000       0.00000000       1.94747475       0.00000000       0.00000000       8.00350285
2
Properties=species:S:1:pos:R:3:forces:R:3 energy=1.5645717391638438 pbc="F F F"
Mg       0.00000000       0.00000000       0.00000000       0.00000000       0.00000000      -6.38992119
Mg       0.00000000       0.00000000       2.00707071       0.00000000       0.00000000       6.38992119
2
Properties=species:S:1:pos:R:3:forces:R:3 energy=1.2194993787942148 pbc="F F F"
Mg       0.00000000       0.00000000       0.00000000       0.00000000       0.00000000      -5.24788284
Mg       0.00000000       0.00000000       2.06666667       0.00000000       0.00000000       5.24788284
2
Properties=species:S:1:pos:R:3:forces:R:3 energy=0.9341530316654332 pbc="F F F"
Mg       0.00000000       0.00000000       0.00000000       0.00000000       0.00000000      -4.35277367
Mg       0.00000000       0.00000000       2.12626263       0.00000000       0.00000000       4.35277367
2
Properties=species:S:1:pos:R:3:forces:R:3 energy=0.6950815887184306 pbc="F F F"
Mg       0.00000000       0.00000000       0.00000000       0.00000000       0.00000000      -3.72902775
Mg       0.00000000       0.00000000       2.18585859       0.00000000       0.00000000       3.72902775
2
Properties=species:S:1:pos:R:3:forces:R:3 energy=0.48777818541201134 pbc="F F F"
Mg       0.00000000       0.00000000       0.00000000       0.00000000       0.00000000      -3.21848416
Mg       0.00000000       0.00000000       2.24545455       0.00000000       0.00000000       3.21848416
2
Properties=species:S:1:pos:R:3:forces:R:3 energy=0.3109489121181708 pbc="F F F"
Mg       0.00000000       0.00000000       0.00000000       0.00000000       0.00000000      -2.72493243
Mg       0.00000000       0.00000000       2.30505051       0.00000000       0.00000000       2.72493243
2
Properties=species:S:1:pos:R:3:forces:R:3 energy=0.16239631781438824 pbc="F F F"
Mg       0.00000000       0.00000000       0.00000000       0.00000000       0.00000000      -2.26776791
Mg       0.00000000       0.00000000       2.36464646       0.00000000       0.00000000       2.26776791
2
Properties=species:S:1:pos:R:3:forces:R:3 energy=0.03927149854920925 pbc="F F F"
Mg       0.00000000       0.00000000       0.00000000       0.00000000       0.00000000      -1.87554777
Mg       0.00000000       0.00000000       2.42424242       0.00000000       0.00000000       1.87554777
2
Properties=species:S:1:pos:R:3:forces:R:3 energy=-0.06257043901199033 pbc="F F F"
Mg       0.00000000       0.00000000       0.00000000       0.00000000       0.00000000      -1.55360782
Mg       0.00000000       0.00000000       2.48383838       0.00000000       0.00000000       1.55360782
2
Properties=species:S:1:pos:R:3:forces:R:3 energy=-0.14648678293934136 pbc="F F F"
Mg       0.00000000       0.00000000       0.00000000       0.00000000       0.00000000      -1.26303458
Mg       0.00000000       0.00000000       2.54343434       0.00000000       0.00000000       1.26303458
2
Properties=species:S:1:pos:R:3:forces:R:3 energy=-0.21357466520238247 pbc="F F F"
Mg       0.00000000       0.00000000       0.00000000       0.00000000       0.00000000      -0.99644428
Mg       0.00000000       0.00000000       2.60303030       0.00000000       0.00000000       0.99644428
2
Properties=species:S:1:pos:R:3:forces:R:3 energy=-0.2663065061780665 pbc="F F F"
Mg       0.00000000       0.00000000       0.00000000       0.00000000       0.00000000      -0.78071380
Mg       0.00000000       0.00000000       2.66262626       0.00000000       0.00000000       0.78071380
2
Properties=species:S:1:pos:R:3:forces:R:3 energy=-0.30722355052937134 pbc="F F F"
Mg       0.00000000       0.00000000       0.00000000       0.00000000       0.00000000      -0.59535915
Mg       0.00000000       0.00000000       2.72222222       0.00000000       0.00000000       0.59535915
2
Properties=species:S:1:pos:R:3:forces:R:3 energy=-0.3376010162658044 pbc="F F F"
Mg       0.00000000       0.00000000       0.00000000       0.00000000       0.00000000      -0.42792755
Mg       0.00000000       0.00000000       2.78181818       0.00000000       0.00000000       0.42792755
2
Properties=species:S:1:pos:R:3:forces:R:3 energy=-0.3588460845927543 pbc="F F F"
Mg       0.00000000       0.00000000       0.00000000       0.00000000       0.00000000      -0.29101145
Mg       0.00000000       0.00000000       2.84141414       0.00000000       0.00000000       0.29101145
2
Properties=species:S:1:pos:R:3:forces:R:3 energy=-0.37296984000168965 pbc="F F F"
Mg       0.00000000       0.00000000       0.00000000       0.00000000       0.00000000      -0.18792762
Mg       0.00000000       0.00000000       2.90101010       0.00000000       0.00000000       0.18792762
2
Properties=species:S:1:pos:R:3:forces:R:3 energy=-0.38171078060197644 pbc="F F F"
Mg       0.00000000       0.00000000       0.00000000       0.00000000       0.00000000      -0.10822619
Mg       0.00000000       0.00000000       2.96060606       0.00000000       0.00000000       0.10822619
2
Properties=species:S:1:pos:R:3:forces:R:3 energy=-0.3861038307999954 pbc="F F F"
Mg       0.00000000       0.00000000       0.00000000       0.00000000       0.00000000      -0.04057599
Mg       0.00000000       0.00000000       3.02020202       0.00000000       0.00000000       0.04057599
2
Properties=species:S:1:pos:R:3:forces:R:3 energy=-0.3866974390980386 pbc="F F F"
Mg       0.00000000       0.00000000       0.00000000       0.00000000       0.00000000       0.01922817
Mg       0.00000000       0.00000000       3.07979798       0.00000000       0.00000000      -0.01922817
2
Properties=species:S:1:pos:R:3:forces:R:3 energy=-0.3840321507103248 pbc="F F F"
Mg       0.00000000       0.00000000       0.00000000       0.00000000       0.00000000       0.06790194
Mg       0.00000000       0.00000000       3.13939394       0.00000000       0.00000000      -0.06790194
2
Properties=species:S:1:pos:R:3:forces:R:3 energy=-0.37891233095334154 pbc="F F F"
Mg       0.00000000       0.00000000       0.00000000       0.00000000       0.00000000       0.10126296
Mg       0.00000000       0.00000000       3.19898990       0.00000000       0.00000000      -0.10126296
2
Properties=species:S:1:pos:R:3:forces:R:3 energy=-0.3722372299694902 pbc="F F F"
Mg       0.00000000       0.00000000       0.00000000       0.00000000       0.00000000       0.12107542
Mg       0.00000000       0.00000000       3.25858586       0.00000000       0.00000000      -0.12107542
2
Properties=species:S:1:pos:R:3:forces:R:3 energy=-0.36456986948680903 pbc="F F F"
Mg       0.00000000       0.00000000       0.00000000       0.00000000       0.00000000       0.13644132
Mg       0.00000000       0.00000000       3.31818182       0.00000000       0.00000000      -0.13644132
2
Properties=species:S:1:pos:R:3:forces:R:3 energy=-0.3558798255991983 pbc="F F F"
Mg       0.00000000       0.00000000       0.00000000       0.00000000       0.00000000       0.15623984
Mg       0.00000000       0.00000000       3.37777778       0.00000000       0.00000000      -0.15623984
2
Properties=species:S:1:pos:R:3:forces:R:3 energy=-0.3458511399894276 pbc="F F F"
Mg       0.00000000       0.00000000       0.00000000       0.00000000       0.00000000       0.18066093
Mg       0.00000000       0.00000000       3.43737374       0.00000000       0.00000000      -0.18066093
2
Properties=species:S:1:pos:R:3:forces:R:3 energy=-0.3343649883768812 pbc="F F F"
Mg       0.00000000       0.00000000       0.00000000       0.00000000       0.00000000       0.20422503
Mg       0.00000000       0.00000000       3.49696970       0.00000000       0.00000000      -0.20422503
2
Properties=species:S:1:pos:R:3:forces:R:3 energy=-0.3216024302022387 pbc="F F F"
Mg       0.00000000       0.00000000       0.00000000       0.00000000       0.00000000       0.22321628
Mg       0.00000000       0.00000000       3.55656566       0.00000000       0.00000000      -0.22321628
2
Properties=species:S:1:pos:R:3:forces:R:3 energy=-0.30786136872511904 pbc="F F F"
Mg       0.00000000       0.00000000       0.00000000       0.00000000       0.00000000       0.23711815
Mg       0.00000000       0.00000000       3.61616162       0.00000000       0.00000000      -0.23711815
2
Properties=species:S:1:pos:R:3:forces:R:3 energy=-0.29342536951841175 pbc="F F F"
Mg       0.00000000       0.00000000       0.00000000       0.00000000       0.00000000       0.24670354
Mg       0.00000000       0.00000000       3.67575758       0.00000000       0.00000000      -0.24670354
2
Properties=species:S:1:pos:R:3:forces:R:3 energy=-0.2785254530094887 pbc="F F F"
Mg       0.00000000       0.00000000       0.00000000       0.00000000       0.00000000       0.25283065
Mg       0.00000000       0.00000000       3.73535354       0.00000000       0.00000000      -0.25283065
2
Properties=species:S:1:pos:R:3:forces:R:3 energy=-0.2633452656447485 pbc="F F F"
Mg       0.00000000       0.00000000       0.00000000       0.00000000       0.00000000       0.25615996
Mg       0.00000000       0.00000000       3.79494949       0.00000000       0.00000000      -0.25615996
2
Properties=species:S:1:pos:R:3:forces:R:3 energy=-0.24804005111187388 pbc="F F F"
Mg       0.00000000       0.00000000       0.00000000       0.00000000       0.00000000       0.25712052
Mg       0.00000000       0.00000000       3.85454545       0.00000000       0.00000000      -0.25712052
2
Properties=species:S:1:pos:R:3:forces:R:3 energy=-0.23274163188542163 pbc="F F F"
Mg       0.00000000       0.00000000       0.00000000       0.00000000       0.00000000       0.25592920
Mg       0.00000000       0.00000000       3.91414141       0.00000000       0.00000000      -0.25592920
2
Properties=species:S:1:pos:R:3:forces:R:3 energy=-0.21757623433686196 pbc="F F F"
Mg       0.00000000       0.00000000       0.00000000       0.00000000       0.00000000       0.25268045
Mg       0.00000000       0.00000000       3.97373737       0.00000000       0.00000000      -0.25268045
2
Properties=species:S:1:pos:R:3:forces:R:3 energy=-0.20266214793919837 pbc="F F F"
Mg       0.00000000       0.00000000       0.00000000       0.00000000       0.00000000       0.24749732
Mg       0.00000000       0.00000000       4.03333333       0.00000000       0.00000000      -0.24749732
2
Properties=species:S:1:pos:R:3:forces:R:3 energy=-0.18811050723948847 pbc="F F F"
Mg       0.00000000       0.00000000       0.00000000       0.00000000       0.00000000       0.24064562
Mg       0.00000000       0.00000000       4.09292929       0.00000000       0.00000000      -0.24064562
2
Properties=species:S:1:pos:R:3:forces:R:3 energy=-0.17400424734774042 pbc="F F F"
Mg       0.00000000       0.00000000       0.00000000       0.00000000       0.00000000       0.23253357
Mg       0.00000000       0.00000000       4.15252525       0.00000000       0.00000000      -0.23253357
2
Properties=species:S:1:pos:R:3:forces:R:3 energy=-0.16040940998867154 pbc="F F F"
Mg       0.00000000       0.00000000       0.00000000       0.00000000       0.00000000       0.22359969
Mg       0.00000000       0.00000000       4.21212121       0.00000000       0.00000000      -0.22359969
2
Properties=species:S:1:pos:R:3:forces:R:3 energy=-0.1473627123935375 pbc="F F F"
Mg       0.00000000       0.00000000       0.00000000       0.00000000       0.00000000       0.21420062
Mg       0.00000000       0.00000000       4.27171717       0.00000000       0.00000000      -0.21420062
2
Properties=species:S:1:pos:R:3:forces:R:3 energy=-0.13488241785627064 pbc="F F F"
Mg       0.00000000       0.00000000       0.00000000       0.00000000       0.00000000       0.20456584
Mg       0.00000000       0.00000000       4.33131313       0.00000000       0.00000000      -0.20456584
2
Properties=species:S:1:pos:R:3:forces:R:3 energy=-0.1229827295472461 pbc="F F F"
Mg       0.00000000       0.00000000       0.00000000       0.00000000       0.00000000       0.19481498
Mg       0.00000000       0.00000000       4.39090909       0.00000000       0.00000000      -0.19481498
2
Properties=species:S:1:pos:R:3:forces:R:3 energy=-0.11166467992212167 pbc="F F F"
Mg       0.00000000       0.00000000       0.00000000       0.00000000       0.00000000       0.18499802
Mg       0.00000000       0.00000000       4.45050505       0.00000000       0.00000000      -0.18499802
2
Properties=species:S:1:pos:R:3:forces:R:3 energy=-0.10093381171055701 pbc="F F F"
Mg       0.00000000       0.00000000       0.00000000       0.00000000       0.00000000       0.17512506
Mg       0.00000000       0.00000000       4.51010101       0.00000000       0.00000000      -0.17512506
2
Properties=species:S:1:pos:R:3:forces:R:3 energy=-0.09079316957467334 pbc="F F F"
Mg       0.00000000       0.00000000       0.00000000       0.00000000       0.00000000       0.16518739
Mg       0.00000000       0.00000000       4.56969697       0.00000000       0.00000000      -0.16518739
2
Properties=species:S:1:pos:R:3:forces:R:3 energy=-0.08124503789927638 pbc="F F F"
Mg       0.00000000       0.00000000       0.00000000       0.00000000       0.00000000       0.15519242
Mg       0.00000000       0.00000000       4.62929293       0.00000000       0.00000000      -0.15519242
2
Properties=species:S:1:pos:R:3:forces:R:3 energy=-0.072293383662282 pbc="F F F"
Mg       0.00000000       0.00000000       0.00000000       0.00000000       0.00000000       0.14519757
Mg       0.00000000       0.00000000       4.68888889       0.00000000       0.00000000      -0.14519757
2
Properties=species:S:1:pos:R:3:forces:R:3 energy=-0.06393492640941845 pbc="F F F"
Mg       0.00000000       0.00000000       0.00000000       0.00000000       0.00000000       0.13533819
Mg       0.00000000       0.00000000       4.74848485       0.00000000       0.00000000      -0.13533819
2
Properties=species:S:1:pos:R:3:forces:R:3 energy=-0.05615621070701208 pbc="F F F"
Mg       0.00000000       0.00000000       0.00000000       0.00000000       0.00000000       0.12583274
Mg       0.00000000       0.00000000       4.80808081       0.00000000       0.00000000      -0.12583274
2
Properties=species:S:1:pos:R:3:forces:R:3 energy=-0.04892506108700541 pbc="F F F"
Mg       0.00000000       0.00000000       0.00000000       0.00000000       0.00000000       0.11695004
Mg       0.00000000       0.00000000       4.86767677       0.00000000       0.00000000      -0.11695004
2
Properties=species:S:1:pos:R:3:forces:R:3 energy=-0.04219822411277697 pbc="F F F"
Mg       0.00000000       0.00000000       0.00000000       0.00000000       0.00000000       0.10894261
Mg       0.00000000       0.00000000       4.92727273       0.00000000       0.00000000      -0.10894261
2
Properties=species:S:1:pos:R:3:forces:R:3 energy=-0.03591904121414896 pbc="F F F"
Mg       0.00000000       0.00000000       0.00000000       0.00000000       0.00000000       0.10196988
Mg       0.00000000       0.00000000       4.98686869       0.00000000       0.00000000      -0.10196988
2
Properties=species:S:1:pos:R:3:forces:R:3 energy=-0.030024209938800103 pbc="F F F"
Mg       0.00000000       0.00000000       0.00000000       0.00000000       0.00000000       0.09603287
Mg       0.00000000       0.00000000       5.04646465       0.00000000       0.00000000      -0.09603287
2
Properties=species:S:1:pos:R:3:forces:R:3 energy=-0.024456658555537095 pbc="F F F"
Mg       0.00000000       0.00000000       0.00000000       0.00000000       0.00000000       0.09094825
Mg       0.00000000       0.00000000       5.10606061       0.00000000       0.00000000      -0.09094825
2
Properties=species:S:1:pos:R:3:forces:R:3 energy=-0.019173883537000894 pbc="F F F"
Mg       0.00000000       0.00000000       0.00000000       0.00000000       0.00000000       0.08636360
Mg       0.00000000       0.00000000       5.16565657       0.00000000       0.00000000      -0.08636360
2
Properties=species:S:1:pos:R:3:forces:R:3 energy=-0.014160824162938183 pbc="F F F"
Mg       0.00000000       0.00000000       0.00000000       0.00000000       0.00000000       0.08183809
Mg       0.00000000       0.00000000       5.22525253       0.00000000       0.00000000      -0.08183809
2
Properties=species:S:1:pos:R:3:forces:R:3 energy=-0.009427540106942245 pbc="F F F"
Mg       0.00000000       0.00000000       0.00000000       0.00000000       0.00000000       0.07692623
Mg       0.00000000       0.00000000       5.28484848       0.00000000       0.00000000      -0.07692623
2
Properties=species:S:1:pos:R:3:forces:R:3 energy=-0.005007026823457269 pbc="F F F"
Mg       0.00000000       0.00000000       0.00000000       0.00000000       0.00000000       0.07128192
Mg       0.00000000       0.00000000       5.34444444       0.00000000       0.00000000      -0.07128192
2
Properties=species:S:1:pos:R:3:forces:R:3 energy=-0.0009485350758302834 pbc="F F F"
Mg       0.00000000       0.00000000       0.00000000       0.00000000       0.00000000       0.06473765
Mg       0.00000000       0.00000000       5.40404040       0.00000000       0.00000000      -0.06473765
2
Properties=species:S:1:pos:R:3:forces:R:3 energy=0.0026928022717498355 pbc="F F F"
Mg       0.00000000       0.00000000       0.00000000       0.00000000       0.00000000       0.05734398
Mg       0.00000000       0.00000000       5.46363636       0.00000000       0.00000000      -0.05734398
2
Properties=species:S:1:pos:R:3:forces:R:3 energy=0.00587353561746326 pbc="F F F"
Mg       0.00000000       0.00000000       0.00000000       0.00000000       0.00000000       0.04936326
Mg       0.00000000       0.00000000       5.52323232       0.00000000       0.00000000      -0.04936326
2
Properties=species:S:1:pos:R:3:forces:R:3 energy=0.008572823110898884 pbc="F F F"
Mg       0.00000000       0.00000000       0.00000000       0.00000000       0.00000000       0.04122008
Mg       0.00000000       0.00000000       5.58282828       0.00000000       0.00000000      -0.04122008
2
Properties=species:S:1:pos:R:3:forces:R:3 energy=0.010793797808085964 pbc="F F F"
Mg       0.00000000       0.00000000       0.00000000       0.00000000       0.00000000       0.03343045
Mg       0.00000000       0.00000000       5.64242424       0.00000000       0.00000000      -0.03343045
2
Properties=species:S:1:pos:R:3:forces:R:3 energy=0.012574957910314492 pbc="F F F"
Mg       0.00000000       0.00000000       0.00000000       0.00000000       0.00000000       0.02649721
Mg       0.00000000       0.00000000       5.70202020       0.00000000       0.00000000      -0.02649721
2
Properties=species:S:1:pos:R:3:forces:R:3 energy=0.013978179310915008 pbc="F F F"
Mg       0.00000000       0.00000000       0.00000000       0.00000000       0.00000000       0.02082697
Mg       0.00000000       0.00000000       5.76161616       0.00000000       0.00000000      -0.02082697
2
Properties=species:S:1:pos:R:3:forces:R:3 energy=0.015086364671600126 pbc="F F F"
Mg       0.00000000       0.00000000       0.00000000       0.00000000       0.00000000       0.01663265
Mg       0.00000000       0.00000000       5.82121212       0.00000000       0.00000000      -0.01663265
2
Properties=species:S:1:pos:R:3:forces:R:3 energy=0.015988080887226707 pbc="F F F"
Mg       0.00000000       0.00000000       0.00000000       0.00000000       0.00000000       0.01389969
Mg       0.00000000       0.00000000       5.88080808       0.00000000       0.00000000      -0.01389969
2
Properties=species:S:1:pos:R:3:forces:R:3 energy=0.01676709480284809 pbc="F F F"
Mg       0.00000000       0.00000000       0.00000000       0.00000000       0.00000000       0.01235178
Mg       0.00000000       0.00000000       5.94040404       0.00000000       0.00000000      -0.01235178
2
Properties=species:S:1:pos:R:3:forces:R:3 energy=0.017476101236591803 pbc="F F F"
Mg       0.00000000       0.00000000       0.00000000       0.00000000       0.00000000       0.01149992
Mg       0.00000000       0.00000000       6.00000000       0.00000000       0.00000000      -0.01149992
