2
Properties=species:S:1:pos:R:3:forces:R:3 energy=-8024446.115012928 pbc="F F F"
Pa       0.00000000       0.00000000       0.00000000       0.00000000       0.00000000 43357120.00000000
Pa       0.00000000       0.00000000       0.10000000       0.00000000       0.00000000 -43357120.00000000
2
Properties=species:S:1:pos:R:3:forces:R:3 energy=-5254042.615012928 pbc="F F F"
Pa       0.00000000       0.00000000       0.00000000       0.00000000       0.00000000 46591732.00000000
Pa       0.00000000       0.00000000       0.15959596       0.00000000       0.00000000 -46591732.00000000
2
Properties=species:S:1:pos:R:3:forces:R:3 energy=-2755894.1150129274 pbc="F F F"
Pa       0.00000000       0.00000000       0.00000000       0.00000000       0.00000000 35635332.00000000
Pa       0.00000000       0.00000000       0.21919192       0.00000000       0.00000000 -35635332.00000000
2
Properties=species:S:1:pos:R:3:forces:R:3 energy=-1101074.3650129277 pbc="F F F"
Pa       0.00000000       0.00000000       0.00000000       0.00000000       0.00000000 19904600.00000000
Pa       0.00000000       0.00000000       0.27878788       0.00000000       0.00000000 -19904600.00000000
2
Properties=species:S:1:pos:R:3:forces:R:3 energy=-308211.05251291493 pbc="F F F"
Pa       0.00000000       0.00000000       0.00000000       0.00000000       0.00000000 7698643.00000000
Pa       0.00000000       0.00000000       0.33838384       0.00000000       0.00000000 -7698643.00000000
2
Properties=species:S:1:pos:R:3:forces:R:3 energy=-57021.708762914954 pbc="F F F"
Pa       0.00000000       0.00000000       0.00000000       0.00000000       0.00000000 1873284.25000000
Pa       0.00000000       0.00000000       0.39797980       0.00000000       0.00000000 -1873284.25000000
2
Properties=species:S:1:pos:R:3:forces:R:3 energy=-5006.320091027282 pbc="F F F"
Pa       0.00000000       0.00000000       0.00000000       0.00000000       0.00000000  238216.00000000
Pa       0.00000000       0.00000000       0.45757576       0.00000000       0.00000000 -238216.00000000
2
Properties=species:S:1:pos:R:3:forces:R:3 energy=-259.8790204579701 pbc="F F F"
Pa       0.00000000       0.00000000       0.00000000       0.00000000       0.00000000   14105.42089844
Pa       0.00000000       0.00000000       0.51717172       0.00000000       0.00000000  -14105.42089844
2
Properties=species:S:1:pos:R:3:forces:R:3 energy=52.34880090479886 pbc="F F F"
Pa       0.00000000       0.00000000       0.00000000       0.00000000       0.00000000     551.72320557
Pa       0.00000000       0.00000000       0.57676768       0.00000000       0.00000000    -551.72320557
2
Properties=species:S:1:pos:R:3:forces:R:3 energy=46.88107328167991 pbc="F F F"
Pa       0.00000000       0.00000000       0.00000000       0.00000000       0.00000000    -133.66569519
Pa       0.00000000       0.00000000       0.63636364       0.00000000       0.00000000     133.66569519
2
Properties=species:S:1:pos:R:3:forces:R:3 energy=42.3491519583176 pbc="F F F"
Pa       0.00000000       0.00000000       0.00000000       0.00000000       0.00000000       4.15492392
Pa       0.00000000       0.00000000       0.69595960       0.00000000       0.00000000      -4.15492392
2
Properties=species:S:1:pos:R:3:forces:R:3 energy=44.507492501118186 pbc="F F F"
Pa       0.00000000       0.00000000       0.00000000       0.00000000       0.00000000      42.12444687
Pa       0.00000000       0.00000000       0.75555556       0.00000000       0.00000000     -42.12444687
2
Properties=species:S:1:pos:R:3:forces:R:3 energy=47.892677882201575 pbc="F F F"
Pa       0.00000000       0.00000000       0.00000000       0.00000000       0.00000000      61.67901993
Pa       0.00000000       0.00000000       0.81515152       0.00000000       0.00000000     -61.67901993
2
Properties=species:S:1:pos:R:3:forces:R:3 energy=48.423020174321685 pbc="F F F"
Pa       0.00000000       0.00000000       0.00000000       0.00000000       0.00000000     -53.61279678
Pa       0.00000000       0.00000000       0.87474747       0.00000000       0.00000000      53.61279678
2
Properties=species:S:1:pos:R:3:forces:R:3 energy=43.026887017567184 pbc="F F F"
Pa       0.00000000       0.00000000       0.00000000       0.00000000       0.00000000    -123.90602112
Pa       0.00000000       0.00000000       0.93434343       0.00000000       0.00000000     123.90602112
2
Properties=species:S:1:pos:R:3:forces:R:3 energy=33.43020390817987 pbc="F F F"
Pa       0.00000000       0.00000000       0.00000000       0.00000000       0.00000000    -204.39526367
Pa       0.00000000       0.00000000       0.99393939       0.00000000       0.00000000     204.39526367
2
Properties=species:S:1:pos:R:3:forces:R:3 energy=20.98927118749235 pbc="F F F"
Pa       0.00000000       0.00000000       0.00000000       0.00000000       0.00000000    -202.50421143
Pa       0.00000000       0.00000000       1.05353535       0.00000000       0.00000000     202.50421143
2
Properties=species:S:1:pos:R:3:forces:R:3 energy=9.326697103675526 pbc="F F F"
Pa       0.00000000       0.00000000       0.00000000       0.00000000       0.00000000    -169.82353210
Pa       0.00000000       0.00000000       1.11313131       0.00000000       0.00000000     169.82353210
2
Properties=species:S:1:pos:R:3:forces:R:3 energy=0.8185231197680698 pbc="F F F"
Pa       0.00000000       0.00000000       0.00000000       0.00000000       0.00000000    -119.34682465
Pa       0.00000000       0.00000000       1.17272727       0.00000000       0.00000000     119.34682465
2
Properties=species:S:1:pos:R:3:forces:R:3 energy=-5.861565652363614 pbc="F F F"
Pa       0.00000000       0.00000000       0.00000000       0.00000000       0.00000000     -91.74694824
Pa       0.00000000       0.00000000       1.23232323       0.00000000       0.00000000      91.74694824
2
Properties=species:S:1:pos:R:3:forces:R:3 energy=-9.612970801425682 pbc="F F F"
Pa       0.00000000       0.00000000       0.00000000       0.00000000       0.00000000     -38.84915543
Pa       0.00000000       0.00000000       1.29191919       0.00000000       0.00000000      38.84915543
2
Properties=species:S:1:pos:R:3:forces:R:3 energy=-11.016771759765208 pbc="F F F"
Pa       0.00000000       0.00000000       0.00000000       0.00000000       0.00000000     -11.37224293
Pa       0.00000000       0.00000000       1.35151515       0.00000000       0.00000000      11.37224293
2
Properties=species:S:1:pos:R:3:forces:R:3 energy=-11.44422905634596 pbc="F F F"
Pa       0.00000000       0.00000000       0.00000000       0.00000000       0.00000000      -5.57589388
Pa       0.00000000       0.00000000       1.41111111       0.00000000       0.00000000       5.57589388
2
Properties=species:S:1:pos:R:3:forces:R:3 energy=-11.669202580191092 pbc="F F F"
Pa       0.00000000       0.00000000       0.00000000       0.00000000       0.00000000      -1.10237634
Pa       0.00000000       0.00000000       1.47070707       0.00000000       0.00000000       1.10237634
2
Properties=species:S:1:pos:R:3:forces:R:3 energy=-11.545722826389865 pbc="F F F"
Pa       0.00000000       0.00000000       0.00000000       0.00000000       0.00000000       3.85239005
Pa       0.00000000       0.00000000       1.53030303       0.00000000       0.00000000      -3.85239005
2
Properties=species:S:1:pos:R:3:forces:R:3 energy=-11.372127604630755 pbc="F F F"
Pa       0.00000000       0.00000000       0.00000000       0.00000000       0.00000000       1.82776153
Pa       0.00000000       0.00000000       1.58989899       0.00000000       0.00000000      -1.82776153
2
Properties=species:S:1:pos:R:3:forces:R:3 energy=-11.273116355448638 pbc="F F F"
Pa       0.00000000       0.00000000       0.00000000       0.00000000       0.00000000       1.85828006
Pa       0.00000000       0.00000000       1.64949495       0.00000000       0.00000000      -1.85828006
2
Properties=species:S:1:pos:R:3:forces:R:3 energy=-11.153260421977306 pbc="F F F"
Pa       0.00000000       0.00000000       0.00000000       0.00000000       0.00000000       1.94721746
Pa       0.00000000       0.00000000       1.70909091       0.00000000       0.00000000      -1.94721746
2
Properties=species:S:1:pos:R:3:forces:R:3 energy=-11.039735530139032 pbc="F F F"
Pa       0.00000000       0.00000000       0.00000000       0.00000000       0.00000000       1.88892591
Pa       0.00000000       0.00000000       1.76868687       0.00000000       0.00000000      -1.88892591
2
Properties=species:S:1:pos:R:3:forces:R:3 energy=-10.947485528388707 pbc="F F F"
Pa       0.00000000       0.00000000       0.00000000       0.00000000       0.00000000       1.37248755
Pa       0.00000000       0.00000000       1.82828283       0.00000000       0.00000000      -1.37248755
2
Properties=species:S:1:pos:R:3:forces:R:3 energy=-10.847912331574486 pbc="F F F"
Pa       0.00000000       0.00000000       0.00000000       0.00000000       0.00000000       1.79431355
Pa       0.00000000       0.00000000       1.88787879       0.00000000       0.00000000      -1.79431355
2
Properties=species:S:1:pos:R:3:forces:R:3 energy=-10.749404192886418 pbc="F F F"
Pa       0.00000000       0.00000000       0.00000000       0.00000000       0.00000000       1.61599791
Pa       0.00000000       0.00000000       1.94747475       0.00000000       0.00000000      -1.61599791
2
Properties=species:S:1:pos:R:3:forces:R:3 energy=-10.656915120944728 pbc="F F F"
Pa       0.00000000       0.00000000       0.00000000       0.00000000       0.00000000       1.41870332
Pa       0.00000000       0.00000000       2.00707071       0.00000000       0.00000000      -1.41870332
2
Properties=species:S:1:pos:R:3:forces:R:3 energy=-10.583695124576774 pbc="F F F"
Pa       0.00000000       0.00000000       0.00000000       0.00000000       0.00000000       1.07268357
Pa       0.00000000       0.00000000       2.06666667       0.00000000       0.00000000      -1.07268357
2
Properties=species:S:1:pos:R:3:forces:R:3 energy=-10.516484876951615 pbc="F F F"
Pa       0.00000000       0.00000000       0.00000000       0.00000000       0.00000000       1.30545437
Pa       0.00000000       0.00000000       2.12626263       0.00000000       0.00000000      -1.30545437
2
Properties=species:S:1:pos:R:3:forces:R:3 energy=-10.427000840715065 pbc="F F F"
Pa       0.00000000       0.00000000       0.00000000       0.00000000       0.00000000       1.62499952
Pa       0.00000000       0.00000000       2.18585859       0.00000000       0.00000000      -1.62499952
2
Properties=species:S:1:pos:R:3:forces:R:3 energy=-10.322106141084623 pbc="F F F"
Pa       0.00000000       0.00000000       0.00000000       0.00000000       0.00000000       1.93110001
Pa       0.00000000       0.00000000       2.24545455       0.00000000       0.00000000      -1.93110001
2
Properties=species:S:1:pos:R:3:forces:R:3 energy=-10.199960582767241 pbc="F F F"
Pa       0.00000000       0.00000000       0.00000000       0.00000000       0.00000000       2.13482141
Pa       0.00000000       0.00000000       2.30505051       0.00000000       0.00000000      -2.13482141
2
Properties=species:S:1:pos:R:3:forces:R:3 energy=-10.067862039755816 pbc="F F F"
Pa       0.00000000       0.00000000       0.00000000       0.00000000       0.00000000       2.29699802
Pa       0.00000000       0.00000000       2.36464646       0.00000000       0.00000000      -2.29699802
2
Properties=species:S:1:pos:R:3:forces:R:3 energy=-9.928311416903005 pbc="F F F"
Pa       0.00000000       0.00000000       0.00000000       0.00000000       0.00000000       2.36318660
Pa       0.00000000       0.00000000       2.42424242       0.00000000       0.00000000      -2.36318660
2
Properties=species:S:1:pos:R:3:forces:R:3 energy=-9.79009323974809 pbc="F F F"
Pa       0.00000000       0.00000000       0.00000000       0.00000000       0.00000000       2.23449159
Pa       0.00000000       0.00000000       2.48383838       0.00000000       0.00000000      -2.23449159
2
Properties=species:S:1:pos:R:3:forces:R:3 energy=-9.665044732645889 pbc="F F F"
Pa       0.00000000       0.00000000       0.00000000       0.00000000       0.00000000       1.95251369
Pa       0.00000000       0.00000000       2.54343434       0.00000000       0.00000000      -1.95251369
2
Properties=species:S:1:pos:R:3:forces:R:3 energy=-9.55871253210473 pbc="F F F"
Pa       0.00000000       0.00000000       0.00000000       0.00000000       0.00000000       1.60022497
Pa       0.00000000       0.00000000       2.60303030       0.00000000       0.00000000      -1.60022497
2
Properties=species:S:1:pos:R:3:forces:R:3 energy=-9.475535105077284 pbc="F F F"
Pa       0.00000000       0.00000000       0.00000000       0.00000000       0.00000000       1.19149518
Pa       0.00000000       0.00000000       2.66262626       0.00000000       0.00000000      -1.19149518
2
Properties=species:S:1:pos:R:3:forces:R:3 energy=-9.415544854475407 pbc="F F F"
Pa       0.00000000       0.00000000       0.00000000       0.00000000       0.00000000       0.83661437
Pa       0.00000000       0.00000000       2.72222222       0.00000000       0.00000000      -0.83661437
2
Properties=species:S:1:pos:R:3:forces:R:3 energy=-9.373965719293762 pbc="F F F"
Pa       0.00000000       0.00000000       0.00000000       0.00000000       0.00000000       0.57339430
Pa       0.00000000       0.00000000       2.78181818       0.00000000       0.00000000      -0.57339430
2
Properties=species:S:1:pos:R:3:forces:R:3 energy=-9.345653216129959 pbc="F F F"
Pa       0.00000000       0.00000000       0.00000000       0.00000000       0.00000000       0.38766304
Pa       0.00000000       0.00000000       2.84141414       0.00000000       0.00000000      -0.38766304
2
Properties=species:S:1:pos:R:3:forces:R:3 energy=-9.326755369048682 pbc="F F F"
Pa       0.00000000       0.00000000       0.00000000       0.00000000       0.00000000       0.25295508
Pa       0.00000000       0.00000000       2.90101010       0.00000000       0.00000000      -0.25295508
2
Properties=species:S:1:pos:R:3:forces:R:3 energy=-9.314861815556235 pbc="F F F"
Pa       0.00000000       0.00000000       0.00000000       0.00000000       0.00000000       0.15149809
Pa       0.00000000       0.00000000       2.96060606       0.00000000       0.00000000      -0.15149809
2
Properties=species:S:1:pos:R:3:forces:R:3 energy=-9.308057939076699 pbc="F F F"
Pa       0.00000000       0.00000000       0.00000000       0.00000000       0.00000000       0.08177934
Pa       0.00000000       0.00000000       3.02020202       0.00000000       0.00000000      -0.08177934
2
Properties=species:S:1:pos:R:3:forces:R:3 energy=-9.304699164921159 pbc="F F F"
Pa       0.00000000       0.00000000       0.00000000       0.00000000       0.00000000       0.03202853
Pa       0.00000000       0.00000000       3.07979798       0.00000000       0.00000000      -0.03202853
2
Properties=species:S:1:pos:R:3:forces:R:3 energy=-9.30436800580628 pbc="F F F"
Pa       0.00000000       0.00000000       0.00000000       0.00000000       0.00000000      -0.02319921
Pa       0.00000000       0.00000000       3.13939394       0.00000000       0.00000000       0.02319921
2
Properties=species:S:1:pos:R:3:forces:R:3 energy=-9.307697936216695 pbc="F F F"
Pa       0.00000000       0.00000000       0.00000000       0.00000000       0.00000000      -0.08935542
Pa       0.00000000       0.00000000       3.19898990       0.00000000       0.00000000       0.08935542
2
Properties=species:S:1:pos:R:3:forces:R:3 energy=-9.314915873938608 pbc="F F F"
Pa       0.00000000       0.00000000       0.00000000       0.00000000       0.00000000      -0.15052207
Pa       0.00000000       0.00000000       3.25858586       0.00000000       0.00000000       0.15052207
2
Properties=species:S:1:pos:R:3:forces:R:3 energy=-9.325246501079416 pbc="F F F"
Pa       0.00000000       0.00000000       0.00000000       0.00000000       0.00000000      -0.19225651
Pa       0.00000000       0.00000000       3.31818182       0.00000000       0.00000000       0.19225651
2
Properties=species:S:1:pos:R:3:forces:R:3 energy=-9.337379311056967 pbc="F F F"
Pa       0.00000000       0.00000000       0.00000000       0.00000000       0.00000000      -0.21149586
Pa       0.00000000       0.00000000       3.37777778       0.00000000       0.00000000       0.21149586
2
Properties=species:S:1:pos:R:3:forces:R:3 energy=-9.350089336537952 pbc="F F F"
Pa       0.00000000       0.00000000       0.00000000       0.00000000       0.00000000      -0.21250017
Pa       0.00000000       0.00000000       3.43737374       0.00000000       0.00000000       0.21250017
2
Properties=species:S:1:pos:R:3:forces:R:3 energy=-9.362398789235048 pbc="F F F"
Pa       0.00000000       0.00000000       0.00000000       0.00000000       0.00000000      -0.19780862
Pa       0.00000000       0.00000000       3.49696970       0.00000000       0.00000000       0.19780862
2
Properties=species:S:1:pos:R:3:forces:R:3 energy=-9.37334105885567 pbc="F F F"
Pa       0.00000000       0.00000000       0.00000000       0.00000000       0.00000000      -0.16647360
Pa       0.00000000       0.00000000       3.55656566       0.00000000       0.00000000       0.16647360
2
Properties=species:S:1:pos:R:3:forces:R:3 energy=-9.38191900485782 pbc="F F F"
Pa       0.00000000       0.00000000       0.00000000       0.00000000       0.00000000      -0.11887952
Pa       0.00000000       0.00000000       3.61616162       0.00000000       0.00000000       0.11887952
2
Properties=species:S:1:pos:R:3:forces:R:3 energy=-9.387262224013273 pbc="F F F"
Pa       0.00000000       0.00000000       0.00000000       0.00000000       0.00000000      -0.05906804
Pa       0.00000000       0.00000000       3.67575758       0.00000000       0.00000000       0.05906804
2
Properties=species:S:1:pos:R:3:forces:R:3 energy=-9.388828427743803 pbc="F F F"
Pa       0.00000000       0.00000000       0.00000000       0.00000000       0.00000000       0.00724168
Pa       0.00000000       0.00000000       3.73535354       0.00000000       0.00000000      -0.00724168
2
Properties=species:S:1:pos:R:3:forces:R:3 energy=-9.386368894433883 pbc="F F F"
Pa       0.00000000       0.00000000       0.00000000       0.00000000       0.00000000       0.07514498
Pa       0.00000000       0.00000000       3.79494949       0.00000000       0.00000000      -0.07514498
2
Properties=species:S:1:pos:R:3:forces:R:3 energy=-9.379904817642107 pbc="F F F"
Pa       0.00000000       0.00000000       0.00000000       0.00000000       0.00000000       0.14135294
Pa       0.00000000       0.00000000       3.85454545       0.00000000       0.00000000      -0.14135294
2
Properties=species:S:1:pos:R:3:forces:R:3 energy=-9.36959943771506 pbc="F F F"
Pa       0.00000000       0.00000000       0.00000000       0.00000000       0.00000000       0.20378089
Pa       0.00000000       0.00000000       3.91414141       0.00000000       0.00000000      -0.20378089
2
Properties=species:S:1:pos:R:3:forces:R:3 energy=-9.35572089917413 pbc="F F F"
Pa       0.00000000       0.00000000       0.00000000       0.00000000       0.00000000       0.26095551
Pa       0.00000000       0.00000000       3.97373737       0.00000000       0.00000000      -0.26095551
2
Properties=species:S:1:pos:R:3:forces:R:3 energy=-9.338618421528892 pbc="F F F"
Pa       0.00000000       0.00000000       0.00000000       0.00000000       0.00000000       0.31178680
Pa       0.00000000       0.00000000       4.03333333       0.00000000       0.00000000      -0.31178680
2
Properties=species:S:1:pos:R:3:forces:R:3 energy=-9.318697605115183 pbc="F F F"
Pa       0.00000000       0.00000000       0.00000000       0.00000000       0.00000000       0.35558155
Pa       0.00000000       0.00000000       4.09292929       0.00000000       0.00000000      -0.35558155
2
Properties=species:S:1:pos:R:3:forces:R:3 energy=-9.29638411544335 pbc="F F F"
Pa       0.00000000       0.00000000       0.00000000       0.00000000       0.00000000       0.39204991
Pa       0.00000000       0.00000000       4.15252525       0.00000000       0.00000000      -0.39204991
2
Properties=species:S:1:pos:R:3:forces:R:3 energy=-9.272113306822371 pbc="F F F"
Pa       0.00000000       0.00000000       0.00000000       0.00000000       0.00000000       0.42116877
Pa       0.00000000       0.00000000       4.21212121       0.00000000       0.00000000      -0.42116877
2
Properties=species:S:1:pos:R:3:forces:R:3 energy=-9.246326426669512 pbc="F F F"
Pa       0.00000000       0.00000000       0.00000000       0.00000000       0.00000000       0.44301945
Pa       0.00000000       0.00000000       4.27171717       0.00000000       0.00000000      -0.44301945
2
Properties=species:S:1:pos:R:3:forces:R:3 energy=-9.219452514705258 pbc="F F F"
Pa       0.00000000       0.00000000       0.00000000       0.00000000       0.00000000       0.45774290
Pa       0.00000000       0.00000000       4.33131313       0.00000000       0.00000000      -0.45774290
2
Properties=species:S:1:pos:R:3:forces:R:3 energy=-9.191905668643251 pbc="F F F"
Pa       0.00000000       0.00000000       0.00000000       0.00000000       0.00000000       0.46559200
Pa       0.00000000       0.00000000       4.39090909       0.00000000       0.00000000      -0.46559200
2
Properties=species:S:1:pos:R:3:forces:R:3 energy=-9.164081121787058 pbc="F F F"
Pa       0.00000000       0.00000000       0.00000000       0.00000000       0.00000000       0.46703812
Pa       0.00000000       0.00000000       4.45050505       0.00000000       0.00000000      -0.46703812
2
Properties=species:S:1:pos:R:3:forces:R:3 energy=-9.136353582771681 pbc="F F F"
Pa       0.00000000       0.00000000       0.00000000       0.00000000       0.00000000       0.46280941
Pa       0.00000000       0.00000000       4.51010101       0.00000000       0.00000000      -0.46280941
2
Properties=species:S:1:pos:R:3:forces:R:3 energy=-9.109015069334939 pbc="F F F"
Pa       0.00000000       0.00000000       0.00000000       0.00000000       0.00000000       0.45382449
Pa       0.00000000       0.00000000       4.56969697       0.00000000       0.00000000      -0.45382449
2
Properties=species:S:1:pos:R:3:forces:R:3 energy=-9.082333323205262 pbc="F F F"
Pa       0.00000000       0.00000000       0.00000000       0.00000000       0.00000000       0.44112036
Pa       0.00000000       0.00000000       4.62929293       0.00000000       0.00000000      -0.44112036
2
Properties=species:S:1:pos:R:3:forces:R:3 energy=-9.056490692582052 pbc="F F F"
Pa       0.00000000       0.00000000       0.00000000       0.00000000       0.00000000       0.42577359
Pa       0.00000000       0.00000000       4.68888889       0.00000000       0.00000000      -0.42577359
2
Properties=species:S:1:pos:R:3:forces:R:3 energy=-9.031615711094096 pbc="F F F"
Pa       0.00000000       0.00000000       0.00000000       0.00000000       0.00000000       0.40883189
Pa       0.00000000       0.00000000       4.74848485       0.00000000       0.00000000      -0.40883189
2
Properties=species:S:1:pos:R:3:forces:R:3 energy=-9.00777254402562 pbc="F F F"
Pa       0.00000000       0.00000000       0.00000000       0.00000000       0.00000000       0.39131406
Pa       0.00000000       0.00000000       4.80808081       0.00000000       0.00000000      -0.39131406
2
Properties=species:S:1:pos:R:3:forces:R:3 energy=-8.984965902407714 pbc="F F F"
Pa       0.00000000       0.00000000       0.00000000       0.00000000       0.00000000       0.37413263
Pa       0.00000000       0.00000000       4.86767677       0.00000000       0.00000000      -0.37413263
2
Properties=species:S:1:pos:R:3:forces:R:3 energy=-8.96315528477661 pbc="F F F"
Pa       0.00000000       0.00000000       0.00000000       0.00000000       0.00000000       0.35802448
Pa       0.00000000       0.00000000       4.92727273       0.00000000       0.00000000      -0.35802448
2
Properties=species:S:1:pos:R:3:forces:R:3 energy=-8.942263566578196 pbc="F F F"
Pa       0.00000000       0.00000000       0.00000000       0.00000000       0.00000000       0.34339944
Pa       0.00000000       0.00000000       4.98686869       0.00000000       0.00000000      -0.34339944
2
Properties=species:S:1:pos:R:3:forces:R:3 energy=-8.922198031688122 pbc="F F F"
Pa       0.00000000       0.00000000       0.00000000       0.00000000       0.00000000       0.33022502
Pa       0.00000000       0.00000000       5.04646465       0.00000000       0.00000000      -0.33022502
2
Properties=species:S:1:pos:R:3:forces:R:3 energy=-8.902886491658574 pbc="F F F"
Pa       0.00000000       0.00000000       0.00000000       0.00000000       0.00000000       0.31794754
Pa       0.00000000       0.00000000       5.10606061       0.00000000       0.00000000      -0.31794754
2
Properties=species:S:1:pos:R:3:forces:R:3 energy=-8.884298323574052 pbc="F F F"
Pa       0.00000000       0.00000000       0.00000000       0.00000000       0.00000000       0.30554360
Pa       0.00000000       0.00000000       5.16565657       0.00000000       0.00000000      -0.30554360
2
Properties=species:S:1:pos:R:3:forces:R:3 energy=-8.866490214740317 pbc="F F F"
Pa       0.00000000       0.00000000       0.00000000       0.00000000       0.00000000       0.29170275
Pa       0.00000000       0.00000000       5.22525253       0.00000000       0.00000000      -0.29170275
2
Properties=species:S:1:pos:R:3:forces:R:3 energy=-8.8495888381556 pbc="F F F"
Pa       0.00000000       0.00000000       0.00000000       0.00000000       0.00000000       0.27510783
Pa       0.00000000       0.00000000       5.28484848       0.00000000       0.00000000      -0.27510783
2
Properties=species:S:1:pos:R:3:forces:R:3 energy=-8.833779471775246 pbc="F F F"
Pa       0.00000000       0.00000000       0.00000000       0.00000000       0.00000000       0.25476992
Pa       0.00000000       0.00000000       5.34444444       0.00000000       0.00000000      -0.25476992
2
Properties=species:S:1:pos:R:3:forces:R:3 energy=-8.81930201275205 pbc="F F F"
Pa       0.00000000       0.00000000       0.00000000       0.00000000       0.00000000       0.23029646
Pa       0.00000000       0.00000000       5.40404040       0.00000000       0.00000000      -0.23029646
2
Properties=species:S:1:pos:R:3:forces:R:3 energy=-8.80639947268753 pbc="F F F"
Pa       0.00000000       0.00000000       0.00000000       0.00000000       0.00000000       0.20209071
Pa       0.00000000       0.00000000       5.46363636       0.00000000       0.00000000      -0.20209071
2
Properties=species:S:1:pos:R:3:forces:R:3 energy=-8.79526824084765 pbc="F F F"
Pa       0.00000000       0.00000000       0.00000000       0.00000000       0.00000000       0.17135458
Pa       0.00000000       0.00000000       5.52323232       0.00000000       0.00000000      -0.17135458
2
Properties=species:S:1:pos:R:3:forces:R:3 energy=-8.78599515432923 pbc="F F F"
Pa       0.00000000       0.00000000       0.00000000       0.00000000       0.00000000       0.13990752
Pa       0.00000000       0.00000000       5.58282828       0.00000000       0.00000000      -0.13990752
2
Properties=species:S:1:pos:R:3:forces:R:3 energy=-8.77856486769306 pbc="F F F"
Pa       0.00000000       0.00000000       0.00000000       0.00000000       0.00000000       0.10994805
Pa       0.00000000       0.00000000       5.64242424       0.00000000       0.00000000      -0.10994805
2
Properties=species:S:1:pos:R:3:forces:R:3 energy=-8.772817979993 pbc="F F F"
Pa       0.00000000       0.00000000       0.00000000       0.00000000       0.00000000       0.08359024
Pa       0.00000000       0.00000000       5.70202020       0.00000000       0.00000000      -0.08359024
2
Properties=species:S:1:pos:R:3:forces:R:3 energy=-8.768494783417289 pbc="F F F"
Pa       0.00000000       0.00000000       0.00000000       0.00000000       0.00000000       0.06255551
Pa       0.00000000       0.00000000       5.76161616       0.00000000       0.00000000      -0.06255551
2
Properties=species:S:1:pos:R:3:forces:R:3 energy=-8.76524082694334 pbc="F F F"
Pa       0.00000000       0.00000000       0.00000000       0.00000000       0.00000000       0.04771199
Pa       0.00000000       0.00000000       5.82121212       0.00000000       0.00000000      -0.04771199
2
Properties=species:S:1:pos:R:3:forces:R:3 energy=-8.762686121991155 pbc="F F F"
Pa       0.00000000       0.00000000       0.00000000       0.00000000       0.00000000       0.03896317
Pa       0.00000000       0.00000000       5.88080808       0.00000000       0.00000000      -0.03896317
2
Properties=species:S:1:pos:R:3:forces:R:3 energy=-8.760502223498131 pbc="F F F"
Pa       0.00000000       0.00000000       0.00000000       0.00000000       0.00000000       0.03509255
Pa       0.00000000       0.00000000       5.94040404       0.00000000       0.00000000      -0.03509255
2
Properties=species:S:1:pos:R:3:forces:R:3 energy=-8.75844895679275 pbc="F F F"
Pa       0.00000000       0.00000000       0.00000000       0.00000000       0.00000000       0.03397926
Pa       0.00000000       0.00000000       6.00000000       0.00000000       0.00000000      -0.03397926
