2
Properties=species:S:1:pos:R:3:forces:R:3 energy=7787.369746094283 pbc="F F F"
Pd       0.00000000       0.00000000       0.00000000       0.00000000       0.00000000 -127265.84375000
Pd       0.00000000       0.00000000       0.18000000       0.00000000       0.00000000  127265.84375000
2
Properties=species:S:1:pos:R:3:forces:R:3 energy=3252.270869141158 pbc="F F F"
Pd       0.00000000       0.00000000       0.00000000       0.00000000       0.00000000  -44122.00781250
Pd       0.00000000       0.00000000       0.23878788       0.00000000       0.00000000   44122.00781250
2
Properties=species:S:1:pos:R:3:forces:R:3 energy=1555.973017578658 pbc="F F F"
Pd       0.00000000       0.00000000       0.00000000       0.00000000       0.00000000  -18033.81835938
Pd       0.00000000       0.00000000       0.29757576       0.00000000       0.00000000   18033.81835938
2
Properties=species:S:1:pos:R:3:forces:R:3 energy=828.5847119209312 pbc="F F F"
Pd       0.00000000       0.00000000       0.00000000       0.00000000       0.00000000   -8172.30810547
Pd       0.00000000       0.00000000       0.35636364       0.00000000       0.00000000    8172.30810547
2
Properties=species:S:1:pos:R:3:forces:R:3 energy=487.7050732585597 pbc="F F F"
Pd       0.00000000       0.00000000       0.00000000       0.00000000       0.00000000   -3984.07250977
Pd       0.00000000       0.00000000       0.41515152       0.00000000       0.00000000    3984.07250977
2
Properties=species:S:1:pos:R:3:forces:R:3 energy=316.85506717405104 pbc="F F F"
Pd       0.00000000       0.00000000       0.00000000       0.00000000       0.00000000   -2065.97534180
Pd       0.00000000       0.00000000       0.47393939       0.00000000       0.00000000    2065.97534180
2
Properties=species:S:1:pos:R:3:forces:R:3 energy=225.7466077362408 pbc="F F F"
Pd       0.00000000       0.00000000       0.00000000       0.00000000       0.00000000   -1141.98498535
Pd       0.00000000       0.00000000       0.53272727       0.00000000       0.00000000    1141.98498535
2
Properties=species:S:1:pos:R:3:forces:R:3 energy=173.6780958335388 pbc="F F F"
Pd       0.00000000       0.00000000       0.00000000       0.00000000       0.00000000    -681.30462646
Pd       0.00000000       0.00000000       0.59151515       0.00000000       0.00000000     681.30462646
2
Properties=species:S:1:pos:R:3:forces:R:3 energy=141.32924949619442 pbc="F F F"
Pd       0.00000000       0.00000000       0.00000000       0.00000000       0.00000000    -444.46643066
Pd       0.00000000       0.00000000       0.65030303       0.00000000       0.00000000     444.46643066
2
Properties=species:S:1:pos:R:3:forces:R:3 energy=119.30982520977332 pbc="F F F"
Pd       0.00000000       0.00000000       0.00000000       0.00000000       0.00000000    -317.66607666
Pd       0.00000000       0.00000000       0.70909091       0.00000000       0.00000000     317.66607666
2
Properties=species:S:1:pos:R:3:forces:R:3 energy=102.69783356503576 pbc="F F F"
Pd       0.00000000       0.00000000       0.00000000       0.00000000       0.00000000    -256.03564453
Pd       0.00000000       0.00000000       0.76787879       0.00000000       0.00000000     256.03564453
2
Properties=species:S:1:pos:R:3:forces:R:3 energy=88.81064213786745 pbc="F F F"
Pd       0.00000000       0.00000000       0.00000000       0.00000000       0.00000000    -215.08212280
Pd       0.00000000       0.00000000       0.82666667       0.00000000       0.00000000     215.08212280
2
Properties=species:S:1:pos:R:3:forces:R:3 energy=77.47449151216864 pbc="F F F"
Pd       0.00000000       0.00000000       0.00000000       0.00000000       0.00000000    -173.89181519
Pd       0.00000000       0.00000000       0.88545455       0.00000000       0.00000000     173.89181519
2
Properties=species:S:1:pos:R:3:forces:R:3 energy=67.76954378696438 pbc="F F F"
Pd       0.00000000       0.00000000       0.00000000       0.00000000       0.00000000    -159.74467468
Pd       0.00000000       0.00000000       0.94424242       0.00000000       0.00000000     159.74467468
2
Properties=species:S:1:pos:R:3:forces:R:3 energy=58.62684836619925 pbc="F F F"
Pd       0.00000000       0.00000000       0.00000000       0.00000000       0.00000000    -149.68666077
Pd       0.00000000       0.00000000       1.00303030       0.00000000       0.00000000     149.68666077
2
Properties=species:S:1:pos:R:3:forces:R:3 energy=50.50742674924085 pbc="F F F"
Pd       0.00000000       0.00000000       0.00000000       0.00000000       0.00000000    -122.97511292
Pd       0.00000000       0.00000000       1.06181818       0.00000000       0.00000000     122.97511292
2
Properties=species:S:1:pos:R:3:forces:R:3 energy=44.40805179090148 pbc="F F F"
Pd       0.00000000       0.00000000       0.00000000       0.00000000       0.00000000     -86.60059357
Pd       0.00000000       0.00000000       1.12060606       0.00000000       0.00000000      86.60059357
2
Properties=species:S:1:pos:R:3:forces:R:3 energy=39.53906600611365 pbc="F F F"
Pd       0.00000000       0.00000000       0.00000000       0.00000000       0.00000000     -86.20563507
Pd       0.00000000       0.00000000       1.17939394       0.00000000       0.00000000      86.20563507
2
Properties=species:S:1:pos:R:3:forces:R:3 energy=33.98188279380104 pbc="F F F"
Pd       0.00000000       0.00000000       0.00000000       0.00000000       0.00000000    -101.31694794
Pd       0.00000000       0.00000000       1.23818182       0.00000000       0.00000000     101.31694794
2
Properties=species:S:1:pos:R:3:forces:R:3 energy=27.97654975768528 pbc="F F F"
Pd       0.00000000       0.00000000       0.00000000       0.00000000       0.00000000     -99.66957855
Pd       0.00000000       0.00000000       1.29696970       0.00000000       0.00000000      99.66957855
2
Properties=species:S:1:pos:R:3:forces:R:3 energy=22.529443341643894 pbc="F F F"
Pd       0.00000000       0.00000000       0.00000000       0.00000000       0.00000000     -84.98419952
Pd       0.00000000       0.00000000       1.35575758       0.00000000       0.00000000      84.98419952
2
Properties=species:S:1:pos:R:3:forces:R:3 energy=17.919448629777172 pbc="F F F"
Pd       0.00000000       0.00000000       0.00000000       0.00000000       0.00000000     -72.90901947
Pd       0.00000000       0.00000000       1.41454545       0.00000000       0.00000000      72.90901947
2
Properties=species:S:1:pos:R:3:forces:R:3 energy=13.867440646048726 pbc="F F F"
Pd       0.00000000       0.00000000       0.00000000       0.00000000       0.00000000     -65.21569824
Pd       0.00000000       0.00000000       1.47333333       0.00000000       0.00000000      65.21569824
2
Properties=species:S:1:pos:R:3:forces:R:3 energy=10.263857714214847 pbc="F F F"
Pd       0.00000000       0.00000000       0.00000000       0.00000000       0.00000000     -57.10545349
Pd       0.00000000       0.00000000       1.53212121       0.00000000       0.00000000      57.10545349
2
Properties=species:S:1:pos:R:3:forces:R:3 energy=7.177231547062442 pbc="F F F"
Pd       0.00000000       0.00000000       0.00000000       0.00000000       0.00000000     -47.83543777
Pd       0.00000000       0.00000000       1.59090909       0.00000000       0.00000000      47.83543777
2
Properties=species:S:1:pos:R:3:forces:R:3 energy=4.63214617969956 pbc="F F F"
Pd       0.00000000       0.00000000       0.00000000       0.00000000       0.00000000     -38.91108322
Pd       0.00000000       0.00000000       1.64969697       0.00000000       0.00000000      38.91108322
2
Properties=species:S:1:pos:R:3:forces:R:3 energy=2.5772133104099404 pbc="F F F"
Pd       0.00000000       0.00000000       0.00000000       0.00000000       0.00000000     -31.24071121
Pd       0.00000000       0.00000000       1.70848485       0.00000000       0.00000000      31.24071121
2
Properties=species:S:1:pos:R:3:forces:R:3 energy=0.9302052117734865 pbc="F F F"
Pd       0.00000000       0.00000000       0.00000000       0.00000000       0.00000000     -25.02567863
Pd       0.00000000       0.00000000       1.76727273       0.00000000       0.00000000      25.02567863
2
Properties=species:S:1:pos:R:3:forces:R:3 energy=-0.38976603008990507 pbc="F F F"
Pd       0.00000000       0.00000000       0.00000000       0.00000000       0.00000000     -20.06017685
Pd       0.00000000       0.00000000       1.82606061       0.00000000       0.00000000      20.06017685
2
Properties=species:S:1:pos:R:3:forces:R:3 energy=-1.446206194148043 pbc="F F F"
Pd       0.00000000       0.00000000       0.00000000       0.00000000       0.00000000     -16.00802803
Pd       0.00000000       0.00000000       1.88484848       0.00000000       0.00000000      16.00802803
2
Properties=species:S:1:pos:R:3:forces:R:3 energy=-2.284939049912963 pbc="F F F"
Pd       0.00000000       0.00000000       0.00000000       0.00000000       0.00000000     -12.62481594
Pd       0.00000000       0.00000000       1.94363636       0.00000000       0.00000000      12.62481594
2
Properties=species:S:1:pos:R:3:forces:R:3 energy=-2.941314701273964 pbc="F F F"
Pd       0.00000000       0.00000000       0.00000000       0.00000000       0.00000000      -9.79113483
Pd       0.00000000       0.00000000       2.00242424       0.00000000       0.00000000       9.79113483
2
Properties=species:S:1:pos:R:3:forces:R:3 energy=-3.445694292892676 pbc="F F F"
Pd       0.00000000       0.00000000       0.00000000       0.00000000       0.00000000      -7.44500208
Pd       0.00000000       0.00000000       2.06121212       0.00000000       0.00000000       7.44500208
2
Properties=species:S:1:pos:R:3:forces:R:3 energy=-3.8251304952550136 pbc="F F F"
Pd       0.00000000       0.00000000       0.00000000       0.00000000       0.00000000      -5.53078222
Pd       0.00000000       0.00000000       2.12000000       0.00000000       0.00000000       5.53078222
2
Properties=species:S:1:pos:R:3:forces:R:3 energy=-4.1032562292721195 pbc="F F F"
Pd       0.00000000       0.00000000       0.00000000       0.00000000       0.00000000      -3.98795652
Pd       0.00000000       0.00000000       2.17878788       0.00000000       0.00000000       3.98795652
2
Properties=species:S:1:pos:R:3:forces:R:3 energy=-4.30015489013139 pbc="F F F"
Pd       0.00000000       0.00000000       0.00000000       0.00000000       0.00000000      -2.75838566
Pd       0.00000000       0.00000000       2.23757576       0.00000000       0.00000000       2.75838566
2
Properties=species:S:1:pos:R:3:forces:R:3 energy=-4.432699861659582 pbc="F F F"
Pd       0.00000000       0.00000000       0.00000000       0.00000000       0.00000000      -1.79051054
Pd       0.00000000       0.00000000       2.29636364       0.00000000       0.00000000       1.79051054
2
Properties=species:S:1:pos:R:3:forces:R:3 energy=-4.514887493423456 pbc="F F F"
Pd       0.00000000       0.00000000       0.00000000       0.00000000       0.00000000      -1.03778219
Pd       0.00000000       0.00000000       2.35515152       0.00000000       0.00000000       1.03778219
2
Properties=species:S:1:pos:R:3:forces:R:3 energy=-4.558102068219564 pbc="F F F"
Pd       0.00000000       0.00000000       0.00000000       0.00000000       0.00000000      -0.45798859
Pd       0.00000000       0.00000000       2.41393939       0.00000000       0.00000000       0.45798859
2
Properties=species:S:1:pos:R:3:forces:R:3 energy=-4.571403047887632 pbc="F F F"
Pd       0.00000000       0.00000000       0.00000000       0.00000000       0.00000000      -0.01440427
Pd       0.00000000       0.00000000       2.47272727       0.00000000       0.00000000       0.01440427
2
Properties=species:S:1:pos:R:3:forces:R:3 energy=-4.561783027748579 pbc="F F F"
Pd       0.00000000       0.00000000       0.00000000       0.00000000       0.00000000       0.32801619
Pd       0.00000000       0.00000000       2.53151515       0.00000000       0.00000000      -0.32801619
2
Properties=species:S:1:pos:R:3:forces:R:3 energy=-4.534022456970796 pbc="F F F"
Pd       0.00000000       0.00000000       0.00000000       0.00000000       0.00000000       0.60975826
Pd       0.00000000       0.00000000       2.59030303       0.00000000       0.00000000      -0.60975826
2
Properties=species:S:1:pos:R:3:forces:R:3 energy=-4.490666935489019 pbc="F F F"
Pd       0.00000000       0.00000000       0.00000000       0.00000000       0.00000000       0.86027080
Pd       0.00000000       0.00000000       2.64909091       0.00000000       0.00000000      -0.86027080
2
Properties=species:S:1:pos:R:3:forces:R:3 energy=-4.433709884413285 pbc="F F F"
Pd       0.00000000       0.00000000       0.00000000       0.00000000       0.00000000       1.06788349
Pd       0.00000000       0.00000000       2.70787879       0.00000000       0.00000000      -1.06788349
2
Properties=species:S:1:pos:R:3:forces:R:3 energy=-4.366385704275437 pbc="F F F"
Pd       0.00000000       0.00000000       0.00000000       0.00000000       0.00000000       1.21152949
Pd       0.00000000       0.00000000       2.76666667       0.00000000       0.00000000      -1.21152949
2
Properties=species:S:1:pos:R:3:forces:R:3 energy=-4.29242049574572 pbc="F F F"
Pd       0.00000000       0.00000000       0.00000000       0.00000000       0.00000000       1.29645407
Pd       0.00000000       0.00000000       2.82545455       0.00000000       0.00000000      -1.29645407
2
Properties=species:S:1:pos:R:3:forces:R:3 energy=-4.214764362752153 pbc="F F F"
Pd       0.00000000       0.00000000       0.00000000       0.00000000       0.00000000       1.33991301
Pd       0.00000000       0.00000000       2.88424242       0.00000000       0.00000000      -1.33991301
2
Properties=species:S:1:pos:R:3:forces:R:3 energy=-4.135396621120102 pbc="F F F"
Pd       0.00000000       0.00000000       0.00000000       0.00000000       0.00000000       1.35677385
Pd       0.00000000       0.00000000       2.94303030       0.00000000       0.00000000      -1.35677385
2
Properties=species:S:1:pos:R:3:forces:R:3 energy=-4.05556317231373 pbc="F F F"
Pd       0.00000000       0.00000000       0.00000000       0.00000000       0.00000000       1.35706341
Pd       0.00000000       0.00000000       3.00181818       0.00000000       0.00000000      -1.35706341
2
Properties=species:S:1:pos:R:3:forces:R:3 energy=-3.97605923182877 pbc="F F F"
Pd       0.00000000       0.00000000       0.00000000       0.00000000       0.00000000       1.34598470
Pd       0.00000000       0.00000000       3.06060606       0.00000000       0.00000000      -1.34598470
2
Properties=species:S:1:pos:R:3:forces:R:3 energy=-3.897515950025505 pbc="F F F"
Pd       0.00000000       0.00000000       0.00000000       0.00000000       0.00000000       1.32416677
Pd       0.00000000       0.00000000       3.11939394       0.00000000       0.00000000      -1.32416677
2
Properties=species:S:1:pos:R:3:forces:R:3 energy=-3.820629809585797 pbc="F F F"
Pd       0.00000000       0.00000000       0.00000000       0.00000000       0.00000000       1.28901756
Pd       0.00000000       0.00000000       3.17818182       0.00000000       0.00000000      -1.28901756
2
Properties=species:S:1:pos:R:3:forces:R:3 energy=-3.7462831656403104 pbc="F F F"
Pd       0.00000000       0.00000000       0.00000000       0.00000000       0.00000000       1.23736131
Pd       0.00000000       0.00000000       3.23696970       0.00000000       0.00000000      -1.23736131
2
Properties=species:S:1:pos:R:3:forces:R:3 energy=-3.675489990710759 pbc="F F F"
Pd       0.00000000       0.00000000       0.00000000       0.00000000       0.00000000       1.16831172
Pd       0.00000000       0.00000000       3.29575758       0.00000000       0.00000000      -1.16831172
2
Properties=species:S:1:pos:R:3:forces:R:3 energy=-3.6092027539969966 pbc="F F F"
Pd       0.00000000       0.00000000       0.00000000       0.00000000       0.00000000       1.08487535
Pd       0.00000000       0.00000000       3.35454545       0.00000000       0.00000000      -1.08487535
2
Properties=species:S:1:pos:R:3:forces:R:3 energy=-3.548091972890368 pbc="F F F"
Pd       0.00000000       0.00000000       0.00000000       0.00000000       0.00000000       0.99346972
Pd       0.00000000       0.00000000       3.41333333       0.00000000       0.00000000      -0.99346972
2
Properties=species:S:1:pos:R:3:forces:R:3 energy=-3.4923978872751924 pbc="F F F"
Pd       0.00000000       0.00000000       0.00000000       0.00000000       0.00000000       0.90184331
Pd       0.00000000       0.00000000       3.47212121       0.00000000       0.00000000      -0.90184331
2
Properties=species:S:1:pos:R:3:forces:R:3 energy=-3.4419283264328366 pbc="F F F"
Pd       0.00000000       0.00000000       0.00000000       0.00000000       0.00000000       0.81670272
Pd       0.00000000       0.00000000       3.53090909       0.00000000       0.00000000      -0.81670272
2
Properties=species:S:1:pos:R:3:forces:R:3 energy=-3.3961645438841663 pbc="F F F"
Pd       0.00000000       0.00000000       0.00000000       0.00000000       0.00000000       0.74215466
Pd       0.00000000       0.00000000       3.58969697       0.00000000       0.00000000      -0.74215466
2
Properties=species:S:1:pos:R:3:forces:R:3 energy=-3.3544366174360314 pbc="F F F"
Pd       0.00000000       0.00000000       0.00000000       0.00000000       0.00000000       0.67936260
Pd       0.00000000       0.00000000       3.64848485       0.00000000       0.00000000      -0.67936260
2
Properties=species:S:1:pos:R:3:forces:R:3 energy=-3.3160808014437344 pbc="F F F"
Pd       0.00000000       0.00000000       0.00000000       0.00000000       0.00000000       0.62709022
Pd       0.00000000       0.00000000       3.70727273       0.00000000       0.00000000      -0.62709022
2
Properties=species:S:1:pos:R:3:forces:R:3 energy=-3.2805513514602715 pbc="F F F"
Pd       0.00000000       0.00000000       0.00000000       0.00000000       0.00000000       0.58267671
Pd       0.00000000       0.00000000       3.76606061       0.00000000       0.00000000      -0.58267671
2
Properties=species:S:1:pos:R:3:forces:R:3 energy=-3.2474788987743484 pbc="F F F"
Pd       0.00000000       0.00000000       0.00000000       0.00000000       0.00000000       0.54303688
Pd       0.00000000       0.00000000       3.82484848       0.00000000       0.00000000      -0.54303688
2
Properties=species:S:1:pos:R:3:forces:R:3 energy=-3.2166646166587873 pbc="F F F"
Pd       0.00000000       0.00000000       0.00000000       0.00000000       0.00000000       0.50541723
Pd       0.00000000       0.00000000       3.88363636       0.00000000       0.00000000      -0.50541723
2
Properties=species:S:1:pos:R:3:forces:R:3 energy=-3.1880529963030004 pbc="F F F"
Pd       0.00000000       0.00000000       0.00000000       0.00000000       0.00000000       0.46787035
Pd       0.00000000       0.00000000       3.94242424       0.00000000       0.00000000      -0.46787035
2
Properties=species:S:1:pos:R:3:forces:R:3 energy=-3.161673326555156 pbc="F F F"
Pd       0.00000000       0.00000000       0.00000000       0.00000000       0.00000000       0.42940521
Pd       0.00000000       0.00000000       4.00121212       0.00000000       0.00000000      -0.42940521
2
Properties=species:S:1:pos:R:3:forces:R:3 energy=-3.137586144776547 pbc="F F F"
Pd       0.00000000       0.00000000       0.00000000       0.00000000       0.00000000       0.38992023
Pd       0.00000000       0.00000000       4.06000000       0.00000000       0.00000000      -0.38992023
2
Properties=species:S:1:pos:R:3:forces:R:3 energy=-3.1158368862666728 pbc="F F F"
Pd       0.00000000       0.00000000       0.00000000       0.00000000       0.00000000       0.35000667
Pd       0.00000000       0.00000000       4.11878788       0.00000000       0.00000000      -0.35000667
2
Properties=species:S:1:pos:R:3:forces:R:3 energy=-3.0964223622782545 pbc="F F F"
Pd       0.00000000       0.00000000       0.00000000       0.00000000       0.00000000       0.31065950
Pd       0.00000000       0.00000000       4.17757576       0.00000000       0.00000000      -0.31065950
2
Properties=species:S:1:pos:R:3:forces:R:3 energy=-3.0792775813030353 pbc="F F F"
Pd       0.00000000       0.00000000       0.00000000       0.00000000       0.00000000       0.27298981
Pd       0.00000000       0.00000000       4.23636364       0.00000000       0.00000000      -0.27298981
2
Properties=species:S:1:pos:R:3:forces:R:3 energy=-3.0642732508443924 pbc="F F F"
Pd       0.00000000       0.00000000       0.00000000       0.00000000       0.00000000       0.23796013
Pd       0.00000000       0.00000000       4.29515152       0.00000000       0.00000000      -0.23796013
2
Properties=species:S:1:pos:R:3:forces:R:3 energy=-3.051234523786065 pbc="F F F"
Pd       0.00000000       0.00000000       0.00000000       0.00000000       0.00000000       0.20623174
Pd       0.00000000       0.00000000       4.35393939       0.00000000       0.00000000      -0.20623174
2
Properties=species:S:1:pos:R:3:forces:R:3 energy=-3.039955180793757 pbc="F F F"
Pd       0.00000000       0.00000000       0.00000000       0.00000000       0.00000000       0.17810306
Pd       0.00000000       0.00000000       4.41272727       0.00000000       0.00000000      -0.17810306
2
Properties=species:S:1:pos:R:3:forces:R:3 energy=-3.0302230809144763 pbc="F F F"
Pd       0.00000000       0.00000000       0.00000000       0.00000000       0.00000000       0.15357275
Pd       0.00000000       0.00000000       4.47151515       0.00000000       0.00000000      -0.15357275
2
Properties=species:S:1:pos:R:3:forces:R:3 energy=-3.0218324199584785 pbc="F F F"
Pd       0.00000000       0.00000000       0.00000000       0.00000000       0.00000000       0.13241316
Pd       0.00000000       0.00000000       4.53030303       0.00000000       0.00000000      -0.13241316
2
Properties=species:S:1:pos:R:3:forces:R:3 energy=-3.014595900182181 pbc="F F F"
Pd       0.00000000       0.00000000       0.00000000       0.00000000       0.00000000       0.11423978
Pd       0.00000000       0.00000000       4.58909091       0.00000000       0.00000000      -0.11423978
2
Properties=species:S:1:pos:R:3:forces:R:3 energy=-3.008352048404208 pbc="F F F"
Pd       0.00000000       0.00000000       0.00000000       0.00000000       0.00000000       0.09854642
Pd       0.00000000       0.00000000       4.64787879       0.00000000       0.00000000      -0.09854642
2
Properties=species:S:1:pos:R:3:forces:R:3 energy=-3.0029720699555638 pbc="F F F"
Pd       0.00000000       0.00000000       0.00000000       0.00000000       0.00000000       0.08474512
Pd       0.00000000       0.00000000       4.70666667       0.00000000       0.00000000      -0.08474512
2
Properties=species:S:1:pos:R:3:forces:R:3 energy=-2.998362341403293 pbc="F F F"
Pd       0.00000000       0.00000000       0.00000000       0.00000000       0.00000000       0.07226171
Pd       0.00000000       0.00000000       4.76545455       0.00000000       0.00000000      -0.07226171
2
Properties=species:S:1:pos:R:3:forces:R:3 energy=-2.9944582243387154 pbc="F F F"
Pd       0.00000000       0.00000000       0.00000000       0.00000000       0.00000000       0.06068385
Pd       0.00000000       0.00000000       4.82424242       0.00000000       0.00000000      -0.06068385
2
Properties=species:S:1:pos:R:3:forces:R:3 energy=-2.9912111781028625 pbc="F F F"
Pd       0.00000000       0.00000000       0.00000000       0.00000000       0.00000000       0.04995226
Pd       0.00000000       0.00000000       4.88303030       0.00000000       0.00000000      -0.04995226
2
Properties=species:S:1:pos:R:3:forces:R:3 energy=-2.9885615357189534 pbc="F F F"
Pd       0.00000000       0.00000000       0.00000000       0.00000000       0.00000000       0.04045024
Pd       0.00000000       0.00000000       4.94181818       0.00000000       0.00000000      -0.04045024
2
Properties=species:S:1:pos:R:3:forces:R:3 energy=-2.9864164101600887 pbc="F F F"
Pd       0.00000000       0.00000000       0.00000000       0.00000000       0.00000000       0.03293073
Pd       0.00000000       0.00000000       5.00060606       0.00000000       0.00000000      -0.03293073
2
Properties=species:S:1:pos:R:3:forces:R:3 energy=-2.9846349947607242 pbc="F F F"
Pd       0.00000000       0.00000000       0.00000000       0.00000000       0.00000000       0.02818156
Pd       0.00000000       0.00000000       5.05939394       0.00000000       0.00000000      -0.02818156
2
Properties=species:S:1:pos:R:3:forces:R:3 energy=-2.9830416540637663 pbc="F F F"
Pd       0.00000000       0.00000000       0.00000000       0.00000000       0.00000000       0.02651602
Pd       0.00000000       0.00000000       5.11818182       0.00000000       0.00000000      -0.02651602
2
Properties=species:S:1:pos:R:3:forces:R:3 energy=-2.9814687227073824 pbc="F F F"
Pd       0.00000000       0.00000000       0.00000000       0.00000000       0.00000000       0.02728759
Pd       0.00000000       0.00000000       5.17696970       0.00000000       0.00000000      -0.02728759
2
Properties=species:S:1:pos:R:3:forces:R:3 energy=-2.9798182986025896 pbc="F F F"
Pd       0.00000000       0.00000000       0.00000000       0.00000000       0.00000000       0.02882103
Pd       0.00000000       0.00000000       5.23575758       0.00000000       0.00000000      -0.02882103
2
Properties=species:S:1:pos:R:3:forces:R:3 energy=-2.9781035938855673 pbc="F F F"
Pd       0.00000000       0.00000000       0.00000000       0.00000000       0.00000000       0.02922026
Pd       0.00000000       0.00000000       5.29454545       0.00000000       0.00000000      -0.02922026
2
Properties=species:S:1:pos:R:3:forces:R:3 energy=-2.9764132291515932 pbc="F F F"
Pd       0.00000000       0.00000000       0.00000000       0.00000000       0.00000000       0.02816127
Pd       0.00000000       0.00000000       5.35333333       0.00000000       0.00000000      -0.02816127
2
Properties=species:S:1:pos:R:3:forces:R:3 energy=-2.974779187576085 pbc="F F F"
Pd       0.00000000       0.00000000       0.00000000       0.00000000       0.00000000       0.02773691
Pd       0.00000000       0.00000000       5.41212121       0.00000000       0.00000000      -0.02773691
2
Properties=species:S:1:pos:R:3:forces:R:3 energy=-2.973118522739964 pbc="F F F"
Pd       0.00000000       0.00000000       0.00000000       0.00000000       0.00000000       0.02882053
Pd       0.00000000       0.00000000       5.47090909       0.00000000       0.00000000      -0.02882053
2
Properties=species:S:1:pos:R:3:forces:R:3 energy=-2.9714221956477673 pbc="F F F"
Pd       0.00000000       0.00000000       0.00000000       0.00000000       0.00000000       0.02842611
Pd       0.00000000       0.00000000       5.52969697       0.00000000       0.00000000      -0.02842611
2
Properties=species:S:1:pos:R:3:forces:R:3 energy=-2.9698140338087753 pbc="F F F"
Pd       0.00000000       0.00000000       0.00000000       0.00000000       0.00000000       0.02624826
Pd       0.00000000       0.00000000       5.58848485       0.00000000       0.00000000      -0.02624826
2
Properties=species:S:1:pos:R:3:forces:R:3 energy=-2.968310492424387 pbc="F F F"
Pd       0.00000000       0.00000000       0.00000000       0.00000000       0.00000000       0.02528203
Pd       0.00000000       0.00000000       5.64727273       0.00000000       0.00000000      -0.02528203
2
Properties=species:S:1:pos:R:3:forces:R:3 energy=-2.966798206611726 pbc="F F F"
Pd       0.00000000       0.00000000       0.00000000       0.00000000       0.00000000       0.02640867
Pd       0.00000000       0.00000000       5.70606061       0.00000000       0.00000000      -0.02640867
2
Properties=species:S:1:pos:R:3:forces:R:3 energy=-2.965214318212822 pbc="F F F"
Pd       0.00000000       0.00000000       0.00000000       0.00000000       0.00000000       0.02695548
Pd       0.00000000       0.00000000       5.76484848       0.00000000       0.00000000      -0.02695548
2
Properties=species:S:1:pos:R:3:forces:R:3 energy=-2.9637112848052984 pbc="F F F"
Pd       0.00000000       0.00000000       0.00000000       0.00000000       0.00000000       0.02350358
Pd       0.00000000       0.00000000       5.82363636       0.00000000       0.00000000      -0.02350358
2
Properties=species:S:1:pos:R:3:forces:R:3 energy=-2.962503524286946 pbc="F F F"
Pd       0.00000000       0.00000000       0.00000000       0.00000000       0.00000000       0.01753839
Pd       0.00000000       0.00000000       5.88242424       0.00000000       0.00000000      -0.01753839
2
Properties=species:S:1:pos:R:3:forces:R:3 energy=-2.9616278762716792 pbc="F F F"
Pd       0.00000000       0.00000000       0.00000000       0.00000000       0.00000000       0.01258116
Pd       0.00000000       0.00000000       5.94121212       0.00000000       0.00000000      -0.01258116
2
Properties=species:S:1:pos:R:3:forces:R:3 energy=-2.9609696031779027 pbc="F F F"
Pd       0.00000000       0.00000000       0.00000000       0.00000000       0.00000000       0.01034850
Pd       0.00000000       0.00000000       6.00000000       0.00000000       0.00000000      -0.01034850
