2
Properties=species:S:1:pos:R:3:forces:R:3 energy=16074.089756411711 pbc="F F F"
Pt       0.00000000       0.00000000       0.00000000       0.00000000       0.00000000 -280469.31250000
Pt       0.00000000       0.00000000       0.18000000       0.00000000       0.00000000  280469.31250000
2
Properties=species:S:1:pos:R:3:forces:R:3 energy=6300.345127505461 pbc="F F F"
Pt       0.00000000       0.00000000       0.00000000       0.00000000       0.00000000  -92101.07031250
Pt       0.00000000       0.00000000       0.23878788       0.00000000       0.00000000   92101.07031250
2
Properties=species:S:1:pos:R:3:forces:R:3 energy=2842.5165142273795 pbc="F F F"
Pt       0.00000000       0.00000000       0.00000000       0.00000000       0.00000000  -35571.14453125
Pt       0.00000000       0.00000000       0.29757576       0.00000000       0.00000000   35571.14453125
2
Properties=species:S:1:pos:R:3:forces:R:3 energy=1443.5299419649223 pbc="F F F"
Pt       0.00000000       0.00000000       0.00000000       0.00000000       0.00000000  -15205.15039062
Pt       0.00000000       0.00000000       0.35636364       0.00000000       0.00000000   15205.15039062
2
Properties=species:S:1:pos:R:3:forces:R:3 energy=825.0504497837579 pbc="F F F"
Pt       0.00000000       0.00000000       0.00000000       0.00000000       0.00000000   -7002.51269531
Pt       0.00000000       0.00000000       0.41515152       0.00000000       0.00000000    7002.51269531
2
Properties=species:S:1:pos:R:3:forces:R:3 energy=531.9790386636167 pbc="F F F"
Pt       0.00000000       0.00000000       0.00000000       0.00000000       0.00000000   -3438.50073242
Pt       0.00000000       0.00000000       0.47393939       0.00000000       0.00000000    3438.50073242
2
Properties=species:S:1:pos:R:3:forces:R:3 energy=383.93106505614685 pbc="F F F"
Pt       0.00000000       0.00000000       0.00000000       0.00000000       0.00000000   -1802.36315918
Pt       0.00000000       0.00000000       0.53272727       0.00000000       0.00000000    1802.36315918
2
Properties=species:S:1:pos:R:3:forces:R:3 energy=303.5804486422504 pbc="F F F"
Pt       0.00000000       0.00000000       0.00000000       0.00000000       0.00000000   -1025.43261719
Pt       0.00000000       0.00000000       0.59151515       0.00000000       0.00000000    1025.43261719
2
Properties=species:S:1:pos:R:3:forces:R:3 energy=254.40118845486842 pbc="F F F"
Pt       0.00000000       0.00000000       0.00000000       0.00000000       0.00000000    -701.74041748
Pt       0.00000000       0.00000000       0.65030303       0.00000000       0.00000000     701.74041748
2
Properties=species:S:1:pos:R:3:forces:R:3 energy=218.19524068976563 pbc="F F F"
Pt       0.00000000       0.00000000       0.00000000       0.00000000       0.00000000    -555.99865723
Pt       0.00000000       0.00000000       0.70909091       0.00000000       0.00000000     555.99865723
2
Properties=species:S:1:pos:R:3:forces:R:3 energy=186.44295203296517 pbc="F F F"
Pt       0.00000000       0.00000000       0.00000000       0.00000000       0.00000000    -553.41156006
Pt       0.00000000       0.00000000       0.76787879       0.00000000       0.00000000     553.41156006
2
Properties=species:S:1:pos:R:3:forces:R:3 energy=154.75401795388342 pbc="F F F"
Pt       0.00000000       0.00000000       0.00000000       0.00000000       0.00000000    -531.08355713
Pt       0.00000000       0.00000000       0.82666667       0.00000000       0.00000000     531.08355713
2
Properties=species:S:1:pos:R:3:forces:R:3 energy=122.55895756602776 pbc="F F F"
Pt       0.00000000       0.00000000       0.00000000       0.00000000       0.00000000    -536.68090820
Pt       0.00000000       0.00000000       0.88545455       0.00000000       0.00000000     536.68090820
2
Properties=species:S:1:pos:R:3:forces:R:3 energy=91.92671012906767 pbc="F F F"
Pt       0.00000000       0.00000000       0.00000000       0.00000000       0.00000000    -483.80212402
Pt       0.00000000       0.00000000       0.94424242       0.00000000       0.00000000     483.80212402
2
Properties=species:S:1:pos:R:3:forces:R:3 energy=66.80734129064221 pbc="F F F"
Pt       0.00000000       0.00000000       0.00000000       0.00000000       0.00000000    -367.57821655
Pt       0.00000000       0.00000000       1.00303030       0.00000000       0.00000000     367.57821655
2
Properties=species:S:1:pos:R:3:forces:R:3 energy=48.680549285756676 pbc="F F F"
Pt       0.00000000       0.00000000       0.00000000       0.00000000       0.00000000    -249.69830322
Pt       0.00000000       0.00000000       1.06181818       0.00000000       0.00000000     249.69830322
2
Properties=species:S:1:pos:R:3:forces:R:3 energy=37.62519922586923 pbc="F F F"
Pt       0.00000000       0.00000000       0.00000000       0.00000000       0.00000000    -133.64622498
Pt       0.00000000       0.00000000       1.12060606       0.00000000       0.00000000     133.64622498
2
Properties=species:S:1:pos:R:3:forces:R:3 energy=32.372385550526985 pbc="F F F"
Pt       0.00000000       0.00000000       0.00000000       0.00000000       0.00000000     -48.65502167
Pt       0.00000000       0.00000000       1.17939394       0.00000000       0.00000000      48.65502167
2
Properties=species:S:1:pos:R:3:forces:R:3 energy=30.494839366495366 pbc="F F F"
Pt       0.00000000       0.00000000       0.00000000       0.00000000       0.00000000     -26.72026634
Pt       0.00000000       0.00000000       1.23818182       0.00000000       0.00000000      26.72026634
2
Properties=species:S:1:pos:R:3:forces:R:3 energy=28.47934093860284 pbc="F F F"
Pt       0.00000000       0.00000000       0.00000000       0.00000000       0.00000000     -44.61972427
Pt       0.00000000       0.00000000       1.29696970       0.00000000       0.00000000      44.61972427
2
Properties=species:S:1:pos:R:3:forces:R:3 energy=25.30278477539222 pbc="F F F"
Pt       0.00000000       0.00000000       0.00000000       0.00000000       0.00000000     -59.94857407
Pt       0.00000000       0.00000000       1.35575758       0.00000000       0.00000000      59.94857407
2
Properties=species:S:1:pos:R:3:forces:R:3 energy=21.842578093390113 pbc="F F F"
Pt       0.00000000       0.00000000       0.00000000       0.00000000       0.00000000     -56.83327103
Pt       0.00000000       0.00000000       1.41454545       0.00000000       0.00000000      56.83327103
2
Properties=species:S:1:pos:R:3:forces:R:3 energy=18.430611163524443 pbc="F F F"
Pt       0.00000000       0.00000000       0.00000000       0.00000000       0.00000000     -61.29322052
Pt       0.00000000       0.00000000       1.47333333       0.00000000       0.00000000      61.29322052
2
Properties=species:S:1:pos:R:3:forces:R:3 energy=14.612284776364445 pbc="F F F"
Pt       0.00000000       0.00000000       0.00000000       0.00000000       0.00000000     -66.91058350
Pt       0.00000000       0.00000000       1.53212121       0.00000000       0.00000000      66.91058350
2
Properties=species:S:1:pos:R:3:forces:R:3 energy=10.820171543807373 pbc="F F F"
Pt       0.00000000       0.00000000       0.00000000       0.00000000       0.00000000     -60.45245743
Pt       0.00000000       0.00000000       1.59090909       0.00000000       0.00000000      60.45245743
2
Properties=species:S:1:pos:R:3:forces:R:3 energy=7.579993708090082 pbc="F F F"
Pt       0.00000000       0.00000000       0.00000000       0.00000000       0.00000000     -49.88987350
Pt       0.00000000       0.00000000       1.64969697       0.00000000       0.00000000      49.88987350
2
Properties=species:S:1:pos:R:3:forces:R:3 energy=4.910681490485319 pbc="F F F"
Pt       0.00000000       0.00000000       0.00000000       0.00000000       0.00000000     -41.34170532
Pt       0.00000000       0.00000000       1.70848485       0.00000000       0.00000000      41.34170532
2
Properties=species:S:1:pos:R:3:forces:R:3 energy=2.680655751645613 pbc="F F F"
Pt       0.00000000       0.00000000       0.00000000       0.00000000       0.00000000     -34.74347687
Pt       0.00000000       0.00000000       1.76727273       0.00000000       0.00000000      34.74347687
2
Properties=species:S:1:pos:R:3:forces:R:3 energy=0.8103495256691733 pbc="F F F"
Pt       0.00000000       0.00000000       0.00000000       0.00000000       0.00000000     -28.95662498
Pt       0.00000000       0.00000000       1.82606061       0.00000000       0.00000000      28.95662498
2
Properties=species:S:1:pos:R:3:forces:R:3 energy=-0.7302322193997932 pbc="F F F"
Pt       0.00000000       0.00000000       0.00000000       0.00000000       0.00000000     -23.51072311
Pt       0.00000000       0.00000000       1.88484848       0.00000000       0.00000000      23.51072311
2
Properties=species:S:1:pos:R:3:forces:R:3 energy=-1.9622602505986997 pbc="F F F"
Pt       0.00000000       0.00000000       0.00000000       0.00000000       0.00000000     -18.48942757
Pt       0.00000000       0.00000000       1.94363636       0.00000000       0.00000000      18.48942757
2
Properties=species:S:1:pos:R:3:forces:R:3 energy=-2.915419064355867 pbc="F F F"
Pt       0.00000000       0.00000000       0.00000000       0.00000000       0.00000000     -14.03889370
Pt       0.00000000       0.00000000       2.00242424       0.00000000       0.00000000      14.03889370
2
Properties=species:S:1:pos:R:3:forces:R:3 energy=-3.624834931958969 pbc="F F F"
Pt       0.00000000       0.00000000       0.00000000       0.00000000       0.00000000     -10.19589710
Pt       0.00000000       0.00000000       2.06121212       0.00000000       0.00000000      10.19589710
2
Properties=species:S:1:pos:R:3:forces:R:3 energy=-4.125611188834905 pbc="F F F"
Pt       0.00000000       0.00000000       0.00000000       0.00000000       0.00000000      -6.93444538
Pt       0.00000000       0.00000000       2.12000000       0.00000000       0.00000000       6.93444538
2
Properties=species:S:1:pos:R:3:forces:R:3 energy=-4.450792069696298 pbc="F F F"
Pt       0.00000000       0.00000000       0.00000000       0.00000000       0.00000000      -4.21563816
Pt       0.00000000       0.00000000       2.17878788       0.00000000       0.00000000       4.21563816
2
Properties=species:S:1:pos:R:3:forces:R:3 energy=-4.631174776352566 pbc="F F F"
Pt       0.00000000       0.00000000       0.00000000       0.00000000       0.00000000      -2.00231934
Pt       0.00000000       0.00000000       2.23757576       0.00000000       0.00000000       2.00231934
2
Properties=species:S:1:pos:R:3:forces:R:3 energy=-4.695410220071157 pbc="F F F"
Pt       0.00000000       0.00000000       0.00000000       0.00000000       0.00000000      -0.25802022
Pt       0.00000000       0.00000000       2.29636364       0.00000000       0.00000000       0.25802022
2
Properties=species:S:1:pos:R:3:forces:R:3 energy=-4.669892425211384 pbc="F F F"
Pt       0.00000000       0.00000000       0.00000000       0.00000000       0.00000000       1.05895627
Pt       0.00000000       0.00000000       2.35515152       0.00000000       0.00000000      -1.05895627
2
Properties=species:S:1:pos:R:3:forces:R:3 energy=-4.57827918401567 pbc="F F F"
Pt       0.00000000       0.00000000       0.00000000       0.00000000       0.00000000       1.99972606
Pt       0.00000000       0.00000000       2.41393939       0.00000000       0.00000000      -1.99972606
2
Properties=species:S:1:pos:R:3:forces:R:3 energy=-4.441007046535532 pbc="F F F"
Pt       0.00000000       0.00000000       0.00000000       0.00000000       0.00000000       2.62229609
Pt       0.00000000       0.00000000       2.47272727       0.00000000       0.00000000      -2.62229609
2
Properties=species:S:1:pos:R:3:forces:R:3 energy=-4.275041106971833 pbc="F F F"
Pt       0.00000000       0.00000000       0.00000000       0.00000000       0.00000000       2.98535824
Pt       0.00000000       0.00000000       2.53151515       0.00000000       0.00000000      -2.98535824
2
Properties=species:S:1:pos:R:3:forces:R:3 energy=-4.093993962735552 pbc="F F F"
Pt       0.00000000       0.00000000       0.00000000       0.00000000       0.00000000       3.14458823
Pt       0.00000000       0.00000000       2.59030303       0.00000000       0.00000000      -3.14458823
2
Properties=species:S:1:pos:R:3:forces:R:3 energy=-3.908267896645895 pbc="F F F"
Pt       0.00000000       0.00000000       0.00000000       0.00000000       0.00000000       3.15312457
Pt       0.00000000       0.00000000       2.64909091       0.00000000       0.00000000      -3.15312457
2
Properties=species:S:1:pos:R:3:forces:R:3 energy=-3.725222794769889 pbc="F F F"
Pt       0.00000000       0.00000000       0.00000000       0.00000000       0.00000000       3.06141710
Pt       0.00000000       0.00000000       2.70787879       0.00000000       0.00000000      -3.06141710
2
Properties=species:S:1:pos:R:3:forces:R:3 energy=-3.5494146172337775 pbc="F F F"
Pt       0.00000000       0.00000000       0.00000000       0.00000000       0.00000000       2.91338158
Pt       0.00000000       0.00000000       2.76666667       0.00000000       0.00000000      -2.91338158
2
Properties=species:S:1:pos:R:3:forces:R:3 energy=-3.383094856013904 pbc="F F F"
Pt       0.00000000       0.00000000       0.00000000       0.00000000       0.00000000       2.74376869
Pt       0.00000000       0.00000000       2.82545455       0.00000000       0.00000000      -2.74376869
2
Properties=species:S:1:pos:R:3:forces:R:3 energy=-3.226725890756373 pbc="F F F"
Pt       0.00000000       0.00000000       0.00000000       0.00000000       0.00000000       2.57834291
Pt       0.00000000       0.00000000       2.88424242       0.00000000       0.00000000      -2.57834291
2
Properties=species:S:1:pos:R:3:forces:R:3 energy=-3.079546261039115 pbc="F F F"
Pt       0.00000000       0.00000000       0.00000000       0.00000000       0.00000000       2.43291140
Pt       0.00000000       0.00000000       2.94303030       0.00000000       0.00000000      -2.43291140
2
Properties=species:S:1:pos:R:3:forces:R:3 energy=-2.9401807277373826 pbc="F F F"
Pt       0.00000000       0.00000000       0.00000000       0.00000000       0.00000000       2.31242251
Pt       0.00000000       0.00000000       3.00181818       0.00000000       0.00000000      -2.31242251
2
Properties=species:S:1:pos:R:3:forces:R:3 energy=-2.807256867564458 pbc="F F F"
Pt       0.00000000       0.00000000       0.00000000       0.00000000       0.00000000       2.21236205
Pt       0.00000000       0.00000000       3.06060606       0.00000000       0.00000000      -2.21236205
2
Properties=species:S:1:pos:R:3:forces:R:3 energy=-2.6798615005328017 pbc="F F F"
Pt       0.00000000       0.00000000       0.00000000       0.00000000       0.00000000       2.12246871
Pt       0.00000000       0.00000000       3.11939394       0.00000000       0.00000000      -2.12246871
2
Properties=species:S:1:pos:R:3:forces:R:3 energy=-2.557725947238631 pbc="F F F"
Pt       0.00000000       0.00000000       0.00000000       0.00000000       0.00000000       2.03169918
Pt       0.00000000       0.00000000       3.17818182       0.00000000       0.00000000      -2.03169918
2
Properties=species:S:1:pos:R:3:forces:R:3 energy=-2.441149847806587 pbc="F F F"
Pt       0.00000000       0.00000000       0.00000000       0.00000000       0.00000000       1.93260348
Pt       0.00000000       0.00000000       3.23696970       0.00000000       0.00000000      -1.93260348
2
Properties=species:S:1:pos:R:3:forces:R:3 energy=-2.330697961485366 pbc="F F F"
Pt       0.00000000       0.00000000       0.00000000       0.00000000       0.00000000       1.82355714
Pt       0.00000000       0.00000000       3.29575758       0.00000000       0.00000000      -1.82355714
2
Properties=species:S:1:pos:R:3:forces:R:3 energy=-2.226871278057351 pbc="F F F"
Pt       0.00000000       0.00000000       0.00000000       0.00000000       0.00000000       1.70809460
Pt       0.00000000       0.00000000       3.35454545       0.00000000       0.00000000      -1.70809460
2
Properties=species:S:1:pos:R:3:forces:R:3 energy=-2.1298742135994564 pbc="F F F"
Pt       0.00000000       0.00000000       0.00000000       0.00000000       0.00000000       1.59227777
Pt       0.00000000       0.00000000       3.41333333       0.00000000       0.00000000      -1.59227777
2
Properties=species:S:1:pos:R:3:forces:R:3 energy=-2.03955140338517 pbc="F F F"
Pt       0.00000000       0.00000000       0.00000000       0.00000000       0.00000000       1.48183119
Pt       0.00000000       0.00000000       3.47212121       0.00000000       0.00000000      -1.48183119
2
Properties=species:S:1:pos:R:3:forces:R:3 energy=-1.955465391495296 pbc="F F F"
Pt       0.00000000       0.00000000       0.00000000       0.00000000       0.00000000       1.38057542
Pt       0.00000000       0.00000000       3.53090909       0.00000000       0.00000000      -1.38057542
2
Properties=species:S:1:pos:R:3:forces:R:3 energy=-1.8770129232317108 pbc="F F F"
Pt       0.00000000       0.00000000       0.00000000       0.00000000       0.00000000       1.29025936
Pt       0.00000000       0.00000000       3.58969697       0.00000000       0.00000000      -1.29025936
2
Properties=species:S:1:pos:R:3:forces:R:3 energy=-1.8035421880376117 pbc="F F F"
Pt       0.00000000       0.00000000       0.00000000       0.00000000       0.00000000       1.21106982
Pt       0.00000000       0.00000000       3.64848485       0.00000000       0.00000000      -1.21106982
2
Properties=species:S:1:pos:R:3:forces:R:3 energy=-1.734423033769063 pbc="F F F"
Pt       0.00000000       0.00000000       0.00000000       0.00000000       0.00000000       1.14197683
Pt       0.00000000       0.00000000       3.70727273       0.00000000       0.00000000      -1.14197683
2
Properties=species:S:1:pos:R:3:forces:R:3 energy=-1.6691161060830642 pbc="F F F"
Pt       0.00000000       0.00000000       0.00000000       0.00000000       0.00000000       1.08086777
Pt       0.00000000       0.00000000       3.76606061       0.00000000       0.00000000      -1.08086777
2
Properties=species:S:1:pos:R:3:forces:R:3 energy=-1.6072413779399322 pbc="F F F"
Pt       0.00000000       0.00000000       0.00000000       0.00000000       0.00000000       1.02470529
Pt       0.00000000       0.00000000       3.82484848       0.00000000       0.00000000      -1.02470529
2
Properties=species:S:1:pos:R:3:forces:R:3 energy=-1.5486083063857348 pbc="F F F"
Pt       0.00000000       0.00000000       0.00000000       0.00000000       0.00000000       0.96994036
Pt       0.00000000       0.00000000       3.88363636       0.00000000       0.00000000      -0.96994036
2
Properties=species:S:1:pos:R:3:forces:R:3 energy=-1.4932385995267252 pbc="F F F"
Pt       0.00000000       0.00000000       0.00000000       0.00000000       0.00000000       0.91322494
Pt       0.00000000       0.00000000       3.94242424       0.00000000       0.00000000      -0.91322494
2
Properties=species:S:1:pos:R:3:forces:R:3 energy=-1.4413239245739982 pbc="F F F"
Pt       0.00000000       0.00000000       0.00000000       0.00000000       0.00000000       0.85207832
Pt       0.00000000       0.00000000       4.00121212       0.00000000       0.00000000      -0.85207832
2
Properties=species:S:1:pos:R:3:forces:R:3 energy=-1.393165306342841 pbc="F F F"
Pt       0.00000000       0.00000000       0.00000000       0.00000000       0.00000000       0.78535324
Pt       0.00000000       0.00000000       4.06000000       0.00000000       0.00000000      -0.78535324
2
Properties=species:S:1:pos:R:3:forces:R:3 energy=-1.3490889991724013 pbc="F F F"
Pt       0.00000000       0.00000000       0.00000000       0.00000000       0.00000000       0.71336716
Pt       0.00000000       0.00000000       4.11878788       0.00000000       0.00000000      -0.71336716
2
Properties=species:S:1:pos:R:3:forces:R:3 energy=-1.3093623536776646 pbc="F F F"
Pt       0.00000000       0.00000000       0.00000000       0.00000000       0.00000000       0.63773865
Pt       0.00000000       0.00000000       4.17757576       0.00000000       0.00000000      -0.63773865
2
Properties=species:S:1:pos:R:3:forces:R:3 energy=-1.2741274350141543 pbc="F F F"
Pt       0.00000000       0.00000000       0.00000000       0.00000000       0.00000000       0.56103408
Pt       0.00000000       0.00000000       4.23636364       0.00000000       0.00000000      -0.56103408
2
Properties=species:S:1:pos:R:3:forces:R:3 energy=-1.2433579471427163 pbc="F F F"
Pt       0.00000000       0.00000000       0.00000000       0.00000000       0.00000000       0.48635274
Pt       0.00000000       0.00000000       4.29515152       0.00000000       0.00000000      -0.48635274
2
Properties=species:S:1:pos:R:3:forces:R:3 energy=-1.2168425530324491 pbc="F F F"
Pt       0.00000000       0.00000000       0.00000000       0.00000000       0.00000000       0.41687039
Pt       0.00000000       0.00000000       4.35393939       0.00000000       0.00000000      -0.41687039
2
Properties=species:S:1:pos:R:3:forces:R:3 energy=-1.1941880973112606 pbc="F F F"
Pt       0.00000000       0.00000000       0.00000000       0.00000000       0.00000000       0.35536373
Pt       0.00000000       0.00000000       4.41272727       0.00000000       0.00000000      -0.35536373
2
Properties=species:S:1:pos:R:3:forces:R:3 energy=-1.1748636135006458 pbc="F F F"
Pt       0.00000000       0.00000000       0.00000000       0.00000000       0.00000000       0.30383325
Pt       0.00000000       0.00000000       4.47151515       0.00000000       0.00000000      -0.30383325
2
Properties=species:S:1:pos:R:3:forces:R:3 energy=-1.158250667181791 pbc="F F F"
Pt       0.00000000       0.00000000       0.00000000       0.00000000       0.00000000       0.26316077
Pt       0.00000000       0.00000000       4.53030303       0.00000000       0.00000000      -0.26316077
2
Properties=species:S:1:pos:R:3:forces:R:3 energy=-1.143716059822959 pbc="F F F"
Pt       0.00000000       0.00000000       0.00000000       0.00000000       0.00000000       0.23297113
Pt       0.00000000       0.00000000       4.58909091       0.00000000       0.00000000      -0.23297113
2
Properties=species:S:1:pos:R:3:forces:R:3 energy=-1.1306843607125605 pbc="F F F"
Pt       0.00000000       0.00000000       0.00000000       0.00000000       0.00000000       0.21167415
Pt       0.00000000       0.00000000       4.64787879       0.00000000       0.00000000      -0.21167415
2
Properties=species:S:1:pos:R:3:forces:R:3 energy=-1.1187034340545412 pbc="F F F"
Pt       0.00000000       0.00000000       0.00000000       0.00000000       0.00000000       0.19672567
Pt       0.00000000       0.00000000       4.70666667       0.00000000       0.00000000      -0.19672567
2
Properties=species:S:1:pos:R:3:forces:R:3 energy=-1.1074886707824971 pbc="F F F"
Pt       0.00000000       0.00000000       0.00000000       0.00000000       0.00000000       0.18511702
Pt       0.00000000       0.00000000       4.76545455       0.00000000       0.00000000      -0.18511702
2
Properties=species:S:1:pos:R:3:forces:R:3 energy=-1.096929532399312 pbc="F F F"
Pt       0.00000000       0.00000000       0.00000000       0.00000000       0.00000000       0.17397484
Pt       0.00000000       0.00000000       4.82424242       0.00000000       0.00000000      -0.17397484
2
Properties=species:S:1:pos:R:3:forces:R:3 energy=-1.0870657934824919 pbc="F F F"
Pt       0.00000000       0.00000000       0.00000000       0.00000000       0.00000000       0.16126359
Pt       0.00000000       0.00000000       4.88303030       0.00000000       0.00000000      -0.16126359
2
Properties=species:S:1:pos:R:3:forces:R:3 energy=-1.0780139182765158 pbc="F F F"
Pt       0.00000000       0.00000000       0.00000000       0.00000000       0.00000000       0.14631124
Pt       0.00000000       0.00000000       4.94181818       0.00000000       0.00000000      -0.14631124
2
Properties=species:S:1:pos:R:3:forces:R:3 energy=-1.0698902007953834 pbc="F F F"
Pt       0.00000000       0.00000000       0.00000000       0.00000000       0.00000000       0.12995562
Pt       0.00000000       0.00000000       5.00060606       0.00000000       0.00000000      -0.12995562
2
Properties=species:S:1:pos:R:3:forces:R:3 energy=-1.0627245955132052 pbc="F F F"
Pt       0.00000000       0.00000000       0.00000000       0.00000000       0.00000000       0.11407584
Pt       0.00000000       0.00000000       5.05939394       0.00000000       0.00000000      -0.11407584
2
Properties=species:S:1:pos:R:3:forces:R:3 energy=-1.056430864356659 pbc="F F F"
Pt       0.00000000       0.00000000       0.00000000       0.00000000       0.00000000       0.10053978
Pt       0.00000000       0.00000000       5.11818182       0.00000000       0.00000000      -0.10053978
2
Properties=species:S:1:pos:R:3:forces:R:3 energy=-1.0508450270365788 pbc="F F F"
Pt       0.00000000       0.00000000       0.00000000       0.00000000       0.00000000       0.08993942
Pt       0.00000000       0.00000000       5.17696970       0.00000000       0.00000000      -0.08993942
2
Properties=species:S:1:pos:R:3:forces:R:3 energy=-1.0458255016029128 pbc="F F F"
Pt       0.00000000       0.00000000       0.00000000       0.00000000       0.00000000       0.08088785
Pt       0.00000000       0.00000000       5.23575758       0.00000000       0.00000000      -0.08088785
2
Properties=species:S:1:pos:R:3:forces:R:3 energy=-1.0413538790599906 pbc="F F F"
Pt       0.00000000       0.00000000       0.00000000       0.00000000       0.00000000       0.07094669
Pt       0.00000000       0.00000000       5.29454545       0.00000000       0.00000000      -0.07094669
2
Properties=species:S:1:pos:R:3:forces:R:3 energy=-1.0375040861743967 pbc="F F F"
Pt       0.00000000       0.00000000       0.00000000       0.00000000       0.00000000       0.06024428
Pt       0.00000000       0.00000000       5.35333333       0.00000000       0.00000000      -0.06024428
2
Properties=species:S:1:pos:R:3:forces:R:3 energy=-1.0341448390882508 pbc="F F F"
Pt       0.00000000       0.00000000       0.00000000       0.00000000       0.00000000       0.05599841
Pt       0.00000000       0.00000000       5.41212121       0.00000000       0.00000000      -0.05599841
2
Properties=species:S:1:pos:R:3:forces:R:3 energy=-1.030673167375505 pbc="F F F"
Pt       0.00000000       0.00000000       0.00000000       0.00000000       0.00000000       0.06329010
Pt       0.00000000       0.00000000       5.47090909       0.00000000       0.00000000      -0.06329010
2
Properties=species:S:1:pos:R:3:forces:R:3 energy=-1.0267988254223859 pbc="F F F"
Pt       0.00000000       0.00000000       0.00000000       0.00000000       0.00000000       0.06612118
Pt       0.00000000       0.00000000       5.52969697       0.00000000       0.00000000      -0.06612118
2
Properties=species:S:1:pos:R:3:forces:R:3 energy=-1.0231586016551175 pbc="F F F"
Pt       0.00000000       0.00000000       0.00000000       0.00000000       0.00000000       0.05665591
Pt       0.00000000       0.00000000       5.58848485       0.00000000       0.00000000      -0.05665591
2
Properties=species:S:1:pos:R:3:forces:R:3 energy=-1.0201031905405162 pbc="F F F"
Pt       0.00000000       0.00000000       0.00000000       0.00000000       0.00000000       0.04855389
Pt       0.00000000       0.00000000       5.64727273       0.00000000       0.00000000      -0.04855389
2
Properties=species:S:1:pos:R:3:forces:R:3 energy=-1.0172880536329643 pbc="F F F"
Pt       0.00000000       0.00000000       0.00000000       0.00000000       0.00000000       0.04797648
Pt       0.00000000       0.00000000       5.70606061       0.00000000       0.00000000      -0.04797648
2
Properties=species:S:1:pos:R:3:forces:R:3 energy=-1.014586720747479 pbc="F F F"
Pt       0.00000000       0.00000000       0.00000000       0.00000000       0.00000000       0.04077420
Pt       0.00000000       0.00000000       5.76484848       0.00000000       0.00000000      -0.04077420
2
Properties=species:S:1:pos:R:3:forces:R:3 energy=-1.0128423415498846 pbc="F F F"
Pt       0.00000000       0.00000000       0.00000000       0.00000000       0.00000000       0.01753129
Pt       0.00000000       0.00000000       5.82363636       0.00000000       0.00000000      -0.01753129
2
Properties=species:S:1:pos:R:3:forces:R:3 energy=-1.0123352105418597 pbc="F F F"
Pt       0.00000000       0.00000000       0.00000000       0.00000000       0.00000000       0.00304664
Pt       0.00000000       0.00000000       5.88242424       0.00000000       0.00000000      -0.00304664
2
Properties=species:S:1:pos:R:3:forces:R:3 energy=-1.012158052946934 pbc="F F F"
Pt       0.00000000       0.00000000       0.00000000       0.00000000       0.00000000       0.00444154
Pt       0.00000000       0.00000000       5.94121212       0.00000000       0.00000000      -0.00444154
2
Properties=species:S:1:pos:R:3:forces:R:3 energy=-1.0118079439792382 pbc="F F F"
Pt       0.00000000       0.00000000       0.00000000       0.00000000       0.00000000       0.00667370
Pt       0.00000000       0.00000000       6.00000000       0.00000000       0.00000000      -0.00667370
