2
Properties=species:S:1:pos:R:3:forces:R:3 energy=1738083.0841596131 pbc="F F F"
Au       0.00000000       0.00000000       0.00000000       0.00000000       0.00000000 -14797825.00000000
Au       0.00000000       0.00000000       0.18000000       0.00000000       0.00000000 14797825.00000000
2
Properties=species:S:1:pos:R:3:forces:R:3 energy=972544.0216596132 pbc="F F F"
Au       0.00000000       0.00000000       0.00000000       0.00000000       0.00000000 -10914635.00000000
Au       0.00000000       0.00000000       0.23878788       0.00000000       0.00000000 10914635.00000000
2
Properties=species:S:1:pos:R:3:forces:R:3 energy=465823.33415961324 pbc="F F F"
Au       0.00000000       0.00000000       0.00000000       0.00000000       0.00000000 -6415430.50000000
Au       0.00000000       0.00000000       0.29757576       0.00000000       0.00000000 6415430.50000000
2
Properties=species:S:1:pos:R:3:forces:R:3 energy=194653.17790961958 pbc="F F F"
Au       0.00000000       0.00000000       0.00000000       0.00000000       0.00000000 -3092994.50000000
Au       0.00000000       0.00000000       0.35636364       0.00000000       0.00000000 3092994.50000000
2
Properties=species:S:1:pos:R:3:forces:R:3 energy=72256.99040962591 pbc="F F F"
Au       0.00000000       0.00000000       0.00000000       0.00000000       0.00000000 -1270471.87500000
Au       0.00000000       0.00000000       0.41515152       0.00000000       0.00000000 1270471.87500000
2
Properties=species:S:1:pos:R:3:forces:R:3 energy=24666.494315888576 pbc="F F F"
Au       0.00000000       0.00000000       0.00000000       0.00000000       0.00000000 -473371.78125000
Au       0.00000000       0.00000000       0.47393939       0.00000000       0.00000000  473371.78125000
2
Properties=species:S:1:pos:R:3:forces:R:3 energy=8116.08562450767 pbc="F F F"
Au       0.00000000       0.00000000       0.00000000       0.00000000       0.00000000 -152293.78125000
Au       0.00000000       0.00000000       0.53272727       0.00000000       0.00000000  152293.78125000
2
Properties=species:S:1:pos:R:3:forces:R:3 energy=2524.8639448613517 pbc="F F F"
Au       0.00000000       0.00000000       0.00000000       0.00000000       0.00000000  -48511.91796875
Au       0.00000000       0.00000000       0.59151515       0.00000000       0.00000000   48511.91796875
2
Properties=species:S:1:pos:R:3:forces:R:3 energy=853.5866011842116 pbc="F F F"
Au       0.00000000       0.00000000       0.00000000       0.00000000       0.00000000  -14661.05273438
Au       0.00000000       0.00000000       0.65030303       0.00000000       0.00000000   14661.05273438
2
Properties=species:S:1:pos:R:3:forces:R:3 energy=369.7821579388782 pbc="F F F"
Au       0.00000000       0.00000000       0.00000000       0.00000000       0.00000000   -4527.51806641
Au       0.00000000       0.00000000       0.70909091       0.00000000       0.00000000    4527.51806641
2
Properties=species:S:1:pos:R:3:forces:R:3 energy=194.33293936627624 pbc="F F F"
Au       0.00000000       0.00000000       0.00000000       0.00000000       0.00000000   -1726.81152344
Au       0.00000000       0.00000000       0.76787879       0.00000000       0.00000000    1726.81152344
2
Properties=species:S:1:pos:R:3:forces:R:3 energy=124.46254014460435 pbc="F F F"
Au       0.00000000       0.00000000       0.00000000       0.00000000       0.00000000    -762.30920410
Au       0.00000000       0.00000000       0.82666667       0.00000000       0.00000000     762.30920410
2
Properties=species:S:1:pos:R:3:forces:R:3 energy=89.38036430357562 pbc="F F F"
Au       0.00000000       0.00000000       0.00000000       0.00000000       0.00000000    -433.64083862
Au       0.00000000       0.00000000       0.88545455       0.00000000       0.00000000     433.64083862
2
Properties=species:S:1:pos:R:3:forces:R:3 energy=69.39549390611828 pbc="F F F"
Au       0.00000000       0.00000000       0.00000000       0.00000000       0.00000000    -271.88265991
Au       0.00000000       0.00000000       0.94424242       0.00000000       0.00000000     271.88265991
2
Properties=species:S:1:pos:R:3:forces:R:3 energy=56.833620226062 pbc="F F F"
Au       0.00000000       0.00000000       0.00000000       0.00000000       0.00000000    -152.03196716
Au       0.00000000       0.00000000       1.00303030       0.00000000       0.00000000     152.03196716
2
Properties=species:S:1:pos:R:3:forces:R:3 energy=50.33530727260005 pbc="F F F"
Au       0.00000000       0.00000000       0.00000000       0.00000000       0.00000000     -77.74311829
Au       0.00000000       0.00000000       1.06181818       0.00000000       0.00000000      77.74311829
2
Properties=species:S:1:pos:R:3:forces:R:3 energy=46.17287873332642 pbc="F F F"
Au       0.00000000       0.00000000       0.00000000       0.00000000       0.00000000     -79.28221130
Au       0.00000000       0.00000000       1.12060606       0.00000000       0.00000000      79.28221130
2
Properties=species:S:1:pos:R:3:forces:R:3 energy=40.54869673531225 pbc="F F F"
Au       0.00000000       0.00000000       0.00000000       0.00000000       0.00000000    -108.87727356
Au       0.00000000       0.00000000       1.17939394       0.00000000       0.00000000     108.87727356
2
Properties=species:S:1:pos:R:3:forces:R:3 energy=34.260479431191364 pbc="F F F"
Au       0.00000000       0.00000000       0.00000000       0.00000000       0.00000000    -110.33586884
Au       0.00000000       0.00000000       1.23818182       0.00000000       0.00000000     110.33586884
2
Properties=species:S:1:pos:R:3:forces:R:3 energy=27.81881271358184 pbc="F F F"
Au       0.00000000       0.00000000       0.00000000       0.00000000       0.00000000    -109.56610107
Au       0.00000000       0.00000000       1.29696970       0.00000000       0.00000000     109.56610107
2
Properties=species:S:1:pos:R:3:forces:R:3 energy=21.601143837492454 pbc="F F F"
Au       0.00000000       0.00000000       0.00000000       0.00000000       0.00000000    -100.86364746
Au       0.00000000       0.00000000       1.35575758       0.00000000       0.00000000     100.86364746
2
Properties=species:S:1:pos:R:3:forces:R:3 energy=16.051095544089996 pbc="F F F"
Au       0.00000000       0.00000000       0.00000000       0.00000000       0.00000000     -85.85085297
Au       0.00000000       0.00000000       1.41454545       0.00000000       0.00000000      85.85085297
2
Properties=species:S:1:pos:R:3:forces:R:3 energy=11.546004512847706 pbc="F F F"
Au       0.00000000       0.00000000       0.00000000       0.00000000       0.00000000     -67.99132538
Au       0.00000000       0.00000000       1.47333333       0.00000000       0.00000000      67.99132538
2
Properties=species:S:1:pos:R:3:forces:R:3 energy=7.9688064736608375 pbc="F F F"
Au       0.00000000       0.00000000       0.00000000       0.00000000       0.00000000     -53.67521667
Au       0.00000000       0.00000000       1.53212121       0.00000000       0.00000000      53.67521667
2
Properties=species:S:1:pos:R:3:forces:R:3 energy=5.285685304355848 pbc="F F F"
Au       0.00000000       0.00000000       0.00000000       0.00000000       0.00000000     -38.06620407
Au       0.00000000       0.00000000       1.59090909       0.00000000       0.00000000      38.06620407
2
Properties=species:S:1:pos:R:3:forces:R:3 energy=3.382451169406262 pbc="F F F"
Au       0.00000000       0.00000000       0.00000000       0.00000000       0.00000000     -27.43763733
Au       0.00000000       0.00000000       1.64969697       0.00000000       0.00000000      27.43763733
2
Properties=species:S:1:pos:R:3:forces:R:3 energy=1.9836374666489822 pbc="F F F"
Au       0.00000000       0.00000000       0.00000000       0.00000000       0.00000000     -20.49543571
Au       0.00000000       0.00000000       1.70848485       0.00000000       0.00000000      20.49543571
2
Properties=species:S:1:pos:R:3:forces:R:3 energy=0.9276997130615363 pbc="F F F"
Au       0.00000000       0.00000000       0.00000000       0.00000000       0.00000000     -16.04430771
Au       0.00000000       0.00000000       1.76727273       0.00000000       0.00000000      16.04430771
2
Properties=species:S:1:pos:R:3:forces:R:3 energy=0.04459767816236698 pbc="F F F"
Au       0.00000000       0.00000000       0.00000000       0.00000000       0.00000000     -14.13761139
Au       0.00000000       0.00000000       1.82606061       0.00000000       0.00000000      14.13761139
2
Properties=species:S:1:pos:R:3:forces:R:3 energy=-0.7241904411544495 pbc="F F F"
Au       0.00000000       0.00000000       0.00000000       0.00000000       0.00000000     -11.98388386
Au       0.00000000       0.00000000       1.88484848       0.00000000       0.00000000      11.98388386
2
Properties=species:S:1:pos:R:3:forces:R:3 energy=-1.3673798120310698 pbc="F F F"
Au       0.00000000       0.00000000       0.00000000       0.00000000       0.00000000      -9.94568443
Au       0.00000000       0.00000000       1.94363636       0.00000000       0.00000000       9.94568443
2
Properties=species:S:1:pos:R:3:forces:R:3 energy=-1.8971526528421703 pbc="F F F"
Au       0.00000000       0.00000000       0.00000000       0.00000000       0.00000000      -8.10902882
Au       0.00000000       0.00000000       2.00242424       0.00000000       0.00000000       8.10902882
2
Properties=species:S:1:pos:R:3:forces:R:3 energy=-2.3275083355124306 pbc="F F F"
Au       0.00000000       0.00000000       0.00000000       0.00000000       0.00000000      -6.58648014
Au       0.00000000       0.00000000       2.06121212       0.00000000       0.00000000       6.58648014
2
Properties=species:S:1:pos:R:3:forces:R:3 energy=-2.674508527333181 pbc="F F F"
Au       0.00000000       0.00000000       0.00000000       0.00000000       0.00000000      -5.24194956
Au       0.00000000       0.00000000       2.12000000       0.00000000       0.00000000       5.24194956
2
Properties=species:S:1:pos:R:3:forces:R:3 energy=-2.949362298898855 pbc="F F F"
Au       0.00000000       0.00000000       0.00000000       0.00000000       0.00000000      -4.16362286
Au       0.00000000       0.00000000       2.17878788       0.00000000       0.00000000       4.16362286
2
Properties=species:S:1:pos:R:3:forces:R:3 energy=-3.1685277695839633 pbc="F F F"
Au       0.00000000       0.00000000       0.00000000       0.00000000       0.00000000      -3.31791329
Au       0.00000000       0.00000000       2.23757576       0.00000000       0.00000000       3.31791329
2
Properties=species:S:1:pos:R:3:forces:R:3 energy=-3.342589823807208 pbc="F F F"
Au       0.00000000       0.00000000       0.00000000       0.00000000       0.00000000      -2.62592983
Au       0.00000000       0.00000000       2.29636364       0.00000000       0.00000000       2.62592983
2
Properties=species:S:1:pos:R:3:forces:R:3 energy=-3.478310087827572 pbc="F F F"
Au       0.00000000       0.00000000       0.00000000       0.00000000       0.00000000      -1.99430799
Au       0.00000000       0.00000000       2.35515152       0.00000000       0.00000000       1.99430799
2
Properties=species:S:1:pos:R:3:forces:R:3 energy=-3.578459448196099 pbc="F F F"
Au       0.00000000       0.00000000       0.00000000       0.00000000       0.00000000      -1.43111479
Au       0.00000000       0.00000000       2.41393939       0.00000000       0.00000000       1.43111479
2
Properties=species:S:1:pos:R:3:forces:R:3 energy=-3.648546020485603 pbc="F F F"
Au       0.00000000       0.00000000       0.00000000       0.00000000       0.00000000      -0.96817404
Au       0.00000000       0.00000000       2.47272727       0.00000000       0.00000000       0.96817404
2
Properties=species:S:1:pos:R:3:forces:R:3 energy=-3.6938855243151942 pbc="F F F"
Au       0.00000000       0.00000000       0.00000000       0.00000000       0.00000000      -0.58637452
Au       0.00000000       0.00000000       2.53151515       0.00000000       0.00000000       0.58637452
2
Properties=species:S:1:pos:R:3:forces:R:3 energy=-3.718848988706 pbc="F F F"
Au       0.00000000       0.00000000       0.00000000       0.00000000       0.00000000      -0.27451986
Au       0.00000000       0.00000000       2.59030303       0.00000000       0.00000000       0.27451986
2
Properties=species:S:1:pos:R:3:forces:R:3 energy=-3.727498827347783 pbc="F F F"
Au       0.00000000       0.00000000       0.00000000       0.00000000       0.00000000      -0.03040385
Au       0.00000000       0.00000000       2.64909091       0.00000000       0.00000000       0.03040385
2
Properties=species:S:1:pos:R:3:forces:R:3 energy=-3.7235657093411616 pbc="F F F"
Au       0.00000000       0.00000000       0.00000000       0.00000000       0.00000000       0.15532772
Au       0.00000000       0.00000000       2.70787879       0.00000000       0.00000000      -0.15532772
2
Properties=species:S:1:pos:R:3:forces:R:3 energy=-3.710195634619502 pbc="F F F"
Au       0.00000000       0.00000000       0.00000000       0.00000000       0.00000000       0.29208788
Au       0.00000000       0.00000000       2.76666667       0.00000000       0.00000000      -0.29208788
2
Properties=species:S:1:pos:R:3:forces:R:3 energy=-3.690017778066431 pbc="F F F"
Au       0.00000000       0.00000000       0.00000000       0.00000000       0.00000000       0.38813773
Au       0.00000000       0.00000000       2.82545455       0.00000000       0.00000000      -0.38813773
2
Properties=species:S:1:pos:R:3:forces:R:3 energy=-3.6652745076689164 pbc="F F F"
Au       0.00000000       0.00000000       0.00000000       0.00000000       0.00000000       0.44764730
Au       0.00000000       0.00000000       2.88424242       0.00000000       0.00000000      -0.44764730
2
Properties=species:S:1:pos:R:3:forces:R:3 energy=-3.638054696981282 pbc="F F F"
Au       0.00000000       0.00000000       0.00000000       0.00000000       0.00000000       0.47333053
Au       0.00000000       0.00000000       2.94303030       0.00000000       0.00000000      -0.47333053
2
Properties=species:S:1:pos:R:3:forces:R:3 energy=-3.6100889089366124 pbc="F F F"
Au       0.00000000       0.00000000       0.00000000       0.00000000       0.00000000       0.47528774
Au       0.00000000       0.00000000       3.00181818       0.00000000       0.00000000      -0.47528774
2
Properties=species:S:1:pos:R:3:forces:R:3 energy=-3.5823935136371334 pbc="F F F"
Au       0.00000000       0.00000000       0.00000000       0.00000000       0.00000000       0.46561038
Au       0.00000000       0.00000000       3.06060606       0.00000000       0.00000000      -0.46561038
2
Properties=species:S:1:pos:R:3:forces:R:3 energy=-3.555488350766347 pbc="F F F"
Au       0.00000000       0.00000000       0.00000000       0.00000000       0.00000000       0.44849166
Au       0.00000000       0.00000000       3.11939394       0.00000000       0.00000000      -0.44849166
2
Properties=species:S:1:pos:R:3:forces:R:3 energy=-3.529794595650319 pbc="F F F"
Au       0.00000000       0.00000000       0.00000000       0.00000000       0.00000000       0.42470843
Au       0.00000000       0.00000000       3.17818182       0.00000000       0.00000000      -0.42470843
2
Properties=species:S:1:pos:R:3:forces:R:3 energy=-3.5056247602995136 pbc="F F F"
Au       0.00000000       0.00000000       0.00000000       0.00000000       0.00000000       0.39724848
Au       0.00000000       0.00000000       3.23696970       0.00000000       0.00000000      -0.39724848
2
Properties=species:S:1:pos:R:3:forces:R:3 energy=-3.4831006353024754 pbc="F F F"
Au       0.00000000       0.00000000       0.00000000       0.00000000       0.00000000       0.36906108
Au       0.00000000       0.00000000       3.29575758       0.00000000       0.00000000      -0.36906108
2
Properties=species:S:1:pos:R:3:forces:R:3 energy=-3.4622226816607458 pbc="F F F"
Au       0.00000000       0.00000000       0.00000000       0.00000000       0.00000000       0.34131110
Au       0.00000000       0.00000000       3.35454545       0.00000000       0.00000000      -0.34131110
2
Properties=species:S:1:pos:R:3:forces:R:3 energy=-3.4429656537896585 pbc="F F F"
Au       0.00000000       0.00000000       0.00000000       0.00000000       0.00000000       0.31381112
Au       0.00000000       0.00000000       3.41333333       0.00000000       0.00000000      -0.31381112
2
Properties=species:S:1:pos:R:3:forces:R:3 energy=-3.425329654788696 pbc="F F F"
Au       0.00000000       0.00000000       0.00000000       0.00000000       0.00000000       0.28614789
Au       0.00000000       0.00000000       3.47212121       0.00000000       0.00000000      -0.28614789
2
Properties=species:S:1:pos:R:3:forces:R:3 energy=-3.4093224621407816 pbc="F F F"
Au       0.00000000       0.00000000       0.00000000       0.00000000       0.00000000       0.25845528
Au       0.00000000       0.00000000       3.53090909       0.00000000       0.00000000      -0.25845528
2
Properties=species:S:1:pos:R:3:forces:R:3 energy=-3.394934560797956 pbc="F F F"
Au       0.00000000       0.00000000       0.00000000       0.00000000       0.00000000       0.23112202
Au       0.00000000       0.00000000       3.58969697       0.00000000       0.00000000      -0.23112202
2
Properties=species:S:1:pos:R:3:forces:R:3 energy=-3.382139174699751 pbc="F F F"
Au       0.00000000       0.00000000       0.00000000       0.00000000       0.00000000       0.20422235
Au       0.00000000       0.00000000       3.64848485       0.00000000       0.00000000      -0.20422235
2
Properties=species:S:1:pos:R:3:forces:R:3 energy=-3.370918719236248 pbc="F F F"
Au       0.00000000       0.00000000       0.00000000       0.00000000       0.00000000       0.17754243
Au       0.00000000       0.00000000       3.70727273       0.00000000       0.00000000      -0.17754243
2
Properties=species:S:1:pos:R:3:forces:R:3 energy=-3.361261738988498 pbc="F F F"
Au       0.00000000       0.00000000       0.00000000       0.00000000       0.00000000       0.15102512
Au       0.00000000       0.00000000       3.76606061       0.00000000       0.00000000      -0.15102512
2
Properties=species:S:1:pos:R:3:forces:R:3 energy=-3.353150995471114 pbc="F F F"
Au       0.00000000       0.00000000       0.00000000       0.00000000       0.00000000       0.12506346
Au       0.00000000       0.00000000       3.82484848       0.00000000       0.00000000      -0.12506346
2
Properties=species:S:1:pos:R:3:forces:R:3 energy=-3.346531893677604 pbc="F F F"
Au       0.00000000       0.00000000       0.00000000       0.00000000       0.00000000       0.10039698
Au       0.00000000       0.00000000       3.88363636       0.00000000       0.00000000      -0.10039698
2
Properties=species:S:1:pos:R:3:forces:R:3 energy=-3.341305812695801 pbc="F F F"
Au       0.00000000       0.00000000       0.00000000       0.00000000       0.00000000       0.07778151
Au       0.00000000       0.00000000       3.94242424       0.00000000       0.00000000      -0.07778151
2
Properties=species:S:1:pos:R:3:forces:R:3 energy=-3.337336936651361 pbc="F F F"
Au       0.00000000       0.00000000       0.00000000       0.00000000       0.00000000       0.05770948
Au       0.00000000       0.00000000       4.00121212       0.00000000       0.00000000      -0.05770948
2
Properties=species:S:1:pos:R:3:forces:R:3 energy=-3.3344676315381645 pbc="F F F"
Au       0.00000000       0.00000000       0.00000000       0.00000000       0.00000000       0.04034050
Au       0.00000000       0.00000000       4.06000000       0.00000000       0.00000000      -0.04034050
2
Properties=species:S:1:pos:R:3:forces:R:3 energy=-3.332542118349734 pbc="F F F"
Au       0.00000000       0.00000000       0.00000000       0.00000000       0.00000000       0.02559037
Au       0.00000000       0.00000000       4.11878788       0.00000000       0.00000000      -0.02559037
2
Properties=species:S:1:pos:R:3:forces:R:3 energy=-3.331412096922647 pbc="F F F"
Au       0.00000000       0.00000000       0.00000000       0.00000000       0.00000000       0.01325064
Au       0.00000000       0.00000000       4.17757576       0.00000000       0.00000000      -0.01325064
2
Properties=species:S:1:pos:R:3:forces:R:3 energy=-3.3309420006487422 pbc="F F F"
Au       0.00000000       0.00000000       0.00000000       0.00000000       0.00000000       0.00307051
Au       0.00000000       0.00000000       4.23636364       0.00000000       0.00000000      -0.00307051
2
Properties=species:S:1:pos:R:3:forces:R:3 energy=-3.33101291337461 pbc="F F F"
Au       0.00000000       0.00000000       0.00000000       0.00000000       0.00000000      -0.00519747
Au       0.00000000       0.00000000       4.29515152       0.00000000       0.00000000       0.00519747
2
Properties=species:S:1:pos:R:3:forces:R:3 energy=-3.331519940461582 pbc="F F F"
Au       0.00000000       0.00000000       0.00000000       0.00000000       0.00000000      -0.01176484
Au       0.00000000       0.00000000       4.35393939       0.00000000       0.00000000       0.01176484
2
Properties=species:S:1:pos:R:3:forces:R:3 energy=-3.3323663315165426 pbc="F F F"
Au       0.00000000       0.00000000       0.00000000       0.00000000       0.00000000      -0.01678629
Au       0.00000000       0.00000000       4.41272727       0.00000000       0.00000000       0.01678629
2
Properties=species:S:1:pos:R:3:forces:R:3 energy=-3.3334648934803863 pbc="F F F"
Au       0.00000000       0.00000000       0.00000000       0.00000000       0.00000000      -0.02035991
Au       0.00000000       0.00000000       4.47151515       0.00000000       0.00000000       0.02035991
2
Properties=species:S:1:pos:R:3:forces:R:3 energy=-3.334732822278924 pbc="F F F"
Au       0.00000000       0.00000000       0.00000000       0.00000000       0.00000000      -0.02254911
Au       0.00000000       0.00000000       4.53030303       0.00000000       0.00000000       0.02254911
2
Properties=species:S:1:pos:R:3:forces:R:3 energy=-3.336090509146077 pbc="F F F"
Au       0.00000000       0.00000000       0.00000000       0.00000000       0.00000000      -0.02341993
Au       0.00000000       0.00000000       4.58909091       0.00000000       0.00000000       0.02341993
2
Properties=species:S:1:pos:R:3:forces:R:3 energy=-3.337462872932866 pbc="F F F"
Au       0.00000000       0.00000000       0.00000000       0.00000000       0.00000000      -0.02308044
Au       0.00000000       0.00000000       4.64787879       0.00000000       0.00000000       0.02308044
2
Properties=species:S:1:pos:R:3:forces:R:3 energy=-3.33878426077553 pbc="F F F"
Au       0.00000000       0.00000000       0.00000000       0.00000000       0.00000000      -0.02170689
Au       0.00000000       0.00000000       4.70666667       0.00000000       0.00000000       0.02170689
2
Properties=species:S:1:pos:R:3:forces:R:3 energy=-3.3399996623631756 pbc="F F F"
Au       0.00000000       0.00000000       0.00000000       0.00000000       0.00000000      -0.01954876
Au       0.00000000       0.00000000       4.76545455       0.00000000       0.00000000       0.01954876
2
Properties=species:S:1:pos:R:3:forces:R:3 energy=-3.341073226482361 pbc="F F F"
Au       0.00000000       0.00000000       0.00000000       0.00000000       0.00000000      -0.01691043
Au       0.00000000       0.00000000       4.82424242       0.00000000       0.00000000       0.01691043
2
Properties=species:S:1:pos:R:3:forces:R:3 energy=-3.341984908901788 pbc="F F F"
Au       0.00000000       0.00000000       0.00000000       0.00000000       0.00000000      -0.01411197
Au       0.00000000       0.00000000       4.88303030       0.00000000       0.00000000       0.01411197
2
Properties=species:S:1:pos:R:3:forces:R:3 energy=-3.342734983318373 pbc="F F F"
Au       0.00000000       0.00000000       0.00000000       0.00000000       0.00000000      -0.01144341
Au       0.00000000       0.00000000       4.94181818       0.00000000       0.00000000       0.01144341
2
Properties=species:S:1:pos:R:3:forces:R:3 energy=-3.343337125634541 pbc="F F F"
Au       0.00000000       0.00000000       0.00000000       0.00000000       0.00000000      -0.00912256
Au       0.00000000       0.00000000       5.00060606       0.00000000       0.00000000       0.00912256
2
Properties=species:S:1:pos:R:3:forces:R:3 energy=-3.3438165620464804 pbc="F F F"
Au       0.00000000       0.00000000       0.00000000       0.00000000       0.00000000      -0.00726754
Au       0.00000000       0.00000000       5.05939394       0.00000000       0.00000000       0.00726754
2
Properties=species:S:1:pos:R:3:forces:R:3 energy=-3.3442009727081836 pbc="F F F"
Au       0.00000000       0.00000000       0.00000000       0.00000000       0.00000000      -0.00588891
Au       0.00000000       0.00000000       5.11818182       0.00000000       0.00000000       0.00588891
2
Properties=species:S:1:pos:R:3:forces:R:3 energy=-3.344516498804222 pbc="F F F"
Au       0.00000000       0.00000000       0.00000000       0.00000000       0.00000000      -0.00490316
Au       0.00000000       0.00000000       5.17696970       0.00000000       0.00000000       0.00490316
2
Properties=species:S:1:pos:R:3:forces:R:3 energy=-3.3447827753573613 pbc="F F F"
Au       0.00000000       0.00000000       0.00000000       0.00000000       0.00000000      -0.00416230
Au       0.00000000       0.00000000       5.23575758       0.00000000       0.00000000       0.00416230
2
Properties=species:S:1:pos:R:3:forces:R:3 energy=-3.345007446017333 pbc="F F F"
Au       0.00000000       0.00000000       0.00000000       0.00000000       0.00000000      -0.00349324
Au       0.00000000       0.00000000       5.29454545       0.00000000       0.00000000       0.00349324
2
Properties=species:S:1:pos:R:3:forces:R:3 energy=-3.3451914811294827 pbc="F F F"
Au       0.00000000       0.00000000       0.00000000       0.00000000       0.00000000      -0.00273886
Au       0.00000000       0.00000000       5.35333333       0.00000000       0.00000000       0.00273886
2
Properties=species:S:1:pos:R:3:forces:R:3 energy=-3.3453258604655054 pbc="F F F"
Au       0.00000000       0.00000000       0.00000000       0.00000000       0.00000000      -0.00179208
Au       0.00000000       0.00000000       5.41212121       0.00000000       0.00000000       0.00179208
2
Properties=species:S:1:pos:R:3:forces:R:3 energy=-3.3453975526948585 pbc="F F F"
Au       0.00000000       0.00000000       0.00000000       0.00000000       0.00000000      -0.00061710
Au       0.00000000       0.00000000       5.47090909       0.00000000       0.00000000       0.00061710
2
Properties=species:S:1:pos:R:3:forces:R:3 energy=-3.345395054448967 pbc="F F F"
Au       0.00000000       0.00000000       0.00000000       0.00000000       0.00000000       0.00074671
Au       0.00000000       0.00000000       5.52969697       0.00000000       0.00000000      -0.00074671
2
Properties=species:S:1:pos:R:3:forces:R:3 energy=-3.345307935658822 pbc="F F F"
Au       0.00000000       0.00000000       0.00000000       0.00000000       0.00000000       0.00219742
Au       0.00000000       0.00000000       5.58848485       0.00000000       0.00000000      -0.00219742
2
Properties=species:S:1:pos:R:3:forces:R:3 energy=-3.345137112144723 pbc="F F F"
Au       0.00000000       0.00000000       0.00000000       0.00000000       0.00000000       0.00359462
Au       0.00000000       0.00000000       5.64727273       0.00000000       0.00000000      -0.00359462
2
Properties=species:S:1:pos:R:3:forces:R:3 energy=-3.3448891481210046 pbc="F F F"
Au       0.00000000       0.00000000       0.00000000       0.00000000       0.00000000       0.00479488
Au       0.00000000       0.00000000       5.70606061       0.00000000       0.00000000      -0.00479488
2
Properties=species:S:1:pos:R:3:forces:R:3 energy=-3.344579631278052 pbc="F F F"
Au       0.00000000       0.00000000       0.00000000       0.00000000       0.00000000       0.00568109
Au       0.00000000       0.00000000       5.76484848       0.00000000       0.00000000      -0.00568109
2
Properties=species:S:1:pos:R:3:forces:R:3 energy=-3.344228886791566 pbc="F F F"
Au       0.00000000       0.00000000       0.00000000       0.00000000       0.00000000       0.00618750
Au       0.00000000       0.00000000       5.82363636       0.00000000       0.00000000      -0.00618750
2
Properties=species:S:1:pos:R:3:forces:R:3 energy=-3.3438595986804622 pbc="F F F"
Au       0.00000000       0.00000000       0.00000000       0.00000000       0.00000000       0.00631968
Au       0.00000000       0.00000000       5.88242424       0.00000000       0.00000000      -0.00631968
2
Properties=species:S:1:pos:R:3:forces:R:3 energy=-3.3434918422185067 pbc="F F F"
Au       0.00000000       0.00000000       0.00000000       0.00000000       0.00000000       0.00615451
Au       0.00000000       0.00000000       5.94121212       0.00000000       0.00000000      -0.00615451
2
Properties=species:S:1:pos:R:3:forces:R:3 energy=-3.343139498548144 pbc="F F F"
Au       0.00000000       0.00000000       0.00000000       0.00000000       0.00000000       0.00582827
Au       0.00000000       0.00000000       6.00000000       0.00000000       0.00000000      -0.00582827
