2
Properties=species:S:1:pos:R:3:forces:R:3 energy=-101195480.09694785 pbc="F F F"
Ba       0.00000000       0.00000000       0.00000000       0.00000000       0.00000000 581169728.00000000
Ba       0.00000000       0.00000000       0.10000000       0.00000000       0.00000000 -581169728.00000000
2
Properties=species:S:1:pos:R:3:forces:R:3 energy=-64578036.09694785 pbc="F F F"
Ba       0.00000000       0.00000000       0.00000000       0.00000000       0.00000000 606135232.00000000
Ba       0.00000000       0.00000000       0.15959596       0.00000000       0.00000000 -606135232.00000000
2
Properties=species:S:1:pos:R:3:forces:R:3 energy=-32682858.096947853 pbc="F F F"
Ba       0.00000000       0.00000000       0.00000000       0.00000000       0.00000000 444873888.00000000
Ba       0.00000000       0.00000000       0.21919192       0.00000000       0.00000000 -444873888.00000000
2
Properties=species:S:1:pos:R:3:forces:R:3 energy=-12470535.096947853 pbc="F F F"
Ba       0.00000000       0.00000000       0.00000000       0.00000000       0.00000000 236290272.00000000
Ba       0.00000000       0.00000000       0.27878788       0.00000000       0.00000000 -236290272.00000000
2
Properties=species:S:1:pos:R:3:forces:R:3 energy=-3311861.3469478516 pbc="F F F"
Ba       0.00000000       0.00000000       0.00000000       0.00000000       0.00000000 85149168.00000000
Ba       0.00000000       0.00000000       0.33838384       0.00000000       0.00000000 -85149168.00000000
2
Properties=species:S:1:pos:R:3:forces:R:3 energy=-617330.5344478516 pbc="F F F"
Ba       0.00000000       0.00000000       0.00000000       0.00000000       0.00000000 19387280.00000000
Ba       0.00000000       0.00000000       0.39797980       0.00000000       0.00000000 -19387280.00000000
2
Properties=species:S:1:pos:R:3:forces:R:3 energy=-76288.37038535162 pbc="F F F"
Ba       0.00000000       0.00000000       0.00000000       0.00000000       0.00000000 2708927.75000000
Ba       0.00000000       0.00000000       0.45757576       0.00000000       0.00000000 -2708927.75000000
2
Properties=species:S:1:pos:R:3:forces:R:3 energy=-11239.796166595283 pbc="F F F"
Ba       0.00000000       0.00000000       0.00000000       0.00000000       0.00000000  357880.37500000
Ba       0.00000000       0.00000000       0.51717172       0.00000000       0.00000000 -357880.37500000
2
Properties=species:S:1:pos:R:3:forces:R:3 energy=-774.3927241997984 pbc="F F F"
Ba       0.00000000       0.00000000       0.00000000       0.00000000       0.00000000   55634.61718750
Ba       0.00000000       0.00000000       0.57676768       0.00000000       0.00000000  -55634.61718750
2
Properties=species:S:1:pos:R:3:forces:R:3 energy=31.63338551464304 pbc="F F F"
Ba       0.00000000       0.00000000       0.00000000       0.00000000       0.00000000      63.55386353
Ba       0.00000000       0.00000000       0.63636364       0.00000000       0.00000000     -63.55386353
2
Properties=species:S:1:pos:R:3:forces:R:3 energy=323.3300846824417 pbc="F F F"
Ba       0.00000000       0.00000000       0.00000000       0.00000000       0.00000000    2692.83056641
Ba       0.00000000       0.00000000       0.69595960       0.00000000       0.00000000   -2692.83056641
2
Properties=species:S:1:pos:R:3:forces:R:3 energy=297.25189869163495 pbc="F F F"
Ba       0.00000000       0.00000000       0.00000000       0.00000000       0.00000000   -1333.70214844
Ba       0.00000000       0.00000000       0.75555556       0.00000000       0.00000000    1333.70214844
2
Properties=species:S:1:pos:R:3:forces:R:3 energy=245.7073125670151 pbc="F F F"
Ba       0.00000000       0.00000000       0.00000000       0.00000000       0.00000000     -77.72647095
Ba       0.00000000       0.00000000       0.81515152       0.00000000       0.00000000      77.72647095
2
Properties=species:S:1:pos:R:3:forces:R:3 energy=226.23914249603413 pbc="F F F"
Ba       0.00000000       0.00000000       0.00000000       0.00000000       0.00000000    -496.43792725
Ba       0.00000000       0.00000000       0.87474747       0.00000000       0.00000000     496.43792725
2
Properties=species:S:1:pos:R:3:forces:R:3 energy=190.5470802384817 pbc="F F F"
Ba       0.00000000       0.00000000       0.00000000       0.00000000       0.00000000    -752.77172852
Ba       0.00000000       0.00000000       0.93434343       0.00000000       0.00000000     752.77172852
2
Properties=species:S:1:pos:R:3:forces:R:3 energy=145.9635232869735 pbc="F F F"
Ba       0.00000000       0.00000000       0.00000000       0.00000000       0.00000000    -712.31378174
Ba       0.00000000       0.00000000       0.99393939       0.00000000       0.00000000     712.31378174
2
Properties=species:S:1:pos:R:3:forces:R:3 energy=109.51636470158012 pbc="F F F"
Ba       0.00000000       0.00000000       0.00000000       0.00000000       0.00000000    -540.67932129
Ba       0.00000000       0.00000000       1.05353535       0.00000000       0.00000000     540.67932129
2
Properties=species:S:1:pos:R:3:forces:R:3 energy=84.7570800452178 pbc="F F F"
Ba       0.00000000       0.00000000       0.00000000       0.00000000       0.00000000    -216.31730652
Ba       0.00000000       0.00000000       1.11313131       0.00000000       0.00000000     216.31730652
2
Properties=species:S:1:pos:R:3:forces:R:3 energy=74.69507637401486 pbc="F F F"
Ba       0.00000000       0.00000000       0.00000000       0.00000000       0.00000000     -97.64049530
Ba       0.00000000       0.00000000       1.17272727       0.00000000       0.00000000      97.64049530
2
Properties=species:S:1:pos:R:3:forces:R:3 energy=76.84860321869697 pbc="F F F"
Ba       0.00000000       0.00000000       0.00000000       0.00000000       0.00000000      31.84480667
Ba       0.00000000       0.00000000       1.23232323       0.00000000       0.00000000     -31.84480667
2
Properties=species:S:1:pos:R:3:forces:R:3 energy=74.905633620732 pbc="F F F"
Ba       0.00000000       0.00000000       0.00000000       0.00000000       0.00000000    -102.63739777
Ba       0.00000000       0.00000000       1.29191919       0.00000000       0.00000000     102.63739777
2
Properties=species:S:1:pos:R:3:forces:R:3 energy=67.22492466885502 pbc="F F F"
Ba       0.00000000       0.00000000       0.00000000       0.00000000       0.00000000    -140.00215149
Ba       0.00000000       0.00000000       1.35151515       0.00000000       0.00000000     140.00215149
2
Properties=species:S:1:pos:R:3:forces:R:3 energy=59.00107933571025 pbc="F F F"
Ba       0.00000000       0.00000000       0.00000000       0.00000000       0.00000000    -133.66148376
Ba       0.00000000       0.00000000       1.41111111       0.00000000       0.00000000     133.66148376
2
Properties=species:S:1:pos:R:3:forces:R:3 energy=51.40925330529565 pbc="F F F"
Ba       0.00000000       0.00000000       0.00000000       0.00000000       0.00000000    -118.77070618
Ba       0.00000000       0.00000000       1.47070707       0.00000000       0.00000000     118.77070618
2
Properties=species:S:1:pos:R:3:forces:R:3 energy=44.88736627667381 pbc="F F F"
Ba       0.00000000       0.00000000       0.00000000       0.00000000       0.00000000     -99.63468170
Ba       0.00000000       0.00000000       1.53030303       0.00000000       0.00000000      99.63468170
2
Properties=species:S:1:pos:R:3:forces:R:3 energy=39.408875611613084 pbc="F F F"
Ba       0.00000000       0.00000000       0.00000000       0.00000000       0.00000000     -88.38576508
Ba       0.00000000       0.00000000       1.58989899       0.00000000       0.00000000      88.38576508
2
Properties=species:S:1:pos:R:3:forces:R:3 energy=34.12528592174971 pbc="F F F"
Ba       0.00000000       0.00000000       0.00000000       0.00000000       0.00000000     -88.10911560
Ba       0.00000000       0.00000000       1.64949495       0.00000000       0.00000000      88.10911560
2
Properties=species:S:1:pos:R:3:forces:R:3 energy=28.99107838898241 pbc="F F F"
Ba       0.00000000       0.00000000       0.00000000       0.00000000       0.00000000     -82.76867676
Ba       0.00000000       0.00000000       1.70909091       0.00000000       0.00000000      82.76867676
2
Properties=species:S:1:pos:R:3:forces:R:3 energy=24.584439156173385 pbc="F F F"
Ba       0.00000000       0.00000000       0.00000000       0.00000000       0.00000000     -64.35352325
Ba       0.00000000       0.00000000       1.76868687       0.00000000       0.00000000      64.35352325
2
Properties=species:S:1:pos:R:3:forces:R:3 energy=21.376407117709746 pbc="F F F"
Ba       0.00000000       0.00000000       0.00000000       0.00000000       0.00000000     -42.49322891
Ba       0.00000000       0.00000000       1.82828283       0.00000000       0.00000000      42.49322891
2
Properties=species:S:1:pos:R:3:forces:R:3 energy=19.203572219872445 pbc="F F F"
Ba       0.00000000       0.00000000       0.00000000       0.00000000       0.00000000     -31.91052246
Ba       0.00000000       0.00000000       1.88787879       0.00000000       0.00000000      31.91052246
2
Properties=species:S:1:pos:R:3:forces:R:3 energy=17.420875003803072 pbc="F F F"
Ba       0.00000000       0.00000000       0.00000000       0.00000000       0.00000000     -29.06476974
Ba       0.00000000       0.00000000       1.94747475       0.00000000       0.00000000      29.06476974
2
Properties=species:S:1:pos:R:3:forces:R:3 energy=15.677514128319014 pbc="F F F"
Ba       0.00000000       0.00000000       0.00000000       0.00000000       0.00000000     -29.56191826
Ba       0.00000000       0.00000000       2.00707071       0.00000000       0.00000000      29.56191826
2
Properties=species:S:1:pos:R:3:forces:R:3 energy=13.88164710677983 pbc="F F F"
Ba       0.00000000       0.00000000       0.00000000       0.00000000       0.00000000     -30.75532722
Ba       0.00000000       0.00000000       2.06666667       0.00000000       0.00000000      30.75532722
2
Properties=species:S:1:pos:R:3:forces:R:3 energy=12.045071067877508 pbc="F F F"
Ba       0.00000000       0.00000000       0.00000000       0.00000000       0.00000000     -30.43430328
Ba       0.00000000       0.00000000       2.12626263       0.00000000       0.00000000      30.43430328
2
Properties=species:S:1:pos:R:3:forces:R:3 energy=10.278303703512428 pbc="F F F"
Ba       0.00000000       0.00000000       0.00000000       0.00000000       0.00000000     -28.85975838
Ba       0.00000000       0.00000000       2.18585859       0.00000000       0.00000000      28.85975838
2
Properties=species:S:1:pos:R:3:forces:R:3 energy=8.622894924384976 pbc="F F F"
Ba       0.00000000       0.00000000       0.00000000       0.00000000       0.00000000     -26.43855286
Ba       0.00000000       0.00000000       2.24545455       0.00000000       0.00000000      26.43855286
2
Properties=species:S:1:pos:R:3:forces:R:3 energy=7.146815234457252 pbc="F F F"
Ba       0.00000000       0.00000000       0.00000000       0.00000000       0.00000000     -23.01825333
Ba       0.00000000       0.00000000       2.30505051       0.00000000       0.00000000      23.01825333
2
Properties=species:S:1:pos:R:3:forces:R:3 energy=5.879271163094968 pbc="F F F"
Ba       0.00000000       0.00000000       0.00000000       0.00000000       0.00000000     -19.58312416
Ba       0.00000000       0.00000000       2.36464646       0.00000000       0.00000000      19.58312416
2
Properties=species:S:1:pos:R:3:forces:R:3 energy=4.806797107718818 pbc="F F F"
Ba       0.00000000       0.00000000       0.00000000       0.00000000       0.00000000     -16.42598534
Ba       0.00000000       0.00000000       2.42424242       0.00000000       0.00000000      16.42598534
2
Properties=species:S:1:pos:R:3:forces:R:3 energy=3.919049000178199 pbc="F F F"
Ba       0.00000000       0.00000000       0.00000000       0.00000000       0.00000000     -13.39942265
Ba       0.00000000       0.00000000       2.48383838       0.00000000       0.00000000      13.39942265
2
Properties=species:S:1:pos:R:3:forces:R:3 energy=3.2026630276198875 pbc="F F F"
Ba       0.00000000       0.00000000       0.00000000       0.00000000       0.00000000     -10.74749184
Ba       0.00000000       0.00000000       2.54343434       0.00000000       0.00000000      10.74749184
2
Properties=species:S:1:pos:R:3:forces:R:3 energy=2.6210045641277424 pbc="F F F"
Ba       0.00000000       0.00000000       0.00000000       0.00000000       0.00000000      -8.91798210
Ba       0.00000000       0.00000000       2.60303030       0.00000000       0.00000000       8.91798210
2
Properties=species:S:1:pos:R:3:forces:R:3 energy=2.1263355154384818 pbc="F F F"
Ba       0.00000000       0.00000000       0.00000000       0.00000000       0.00000000      -7.75737858
Ba       0.00000000       0.00000000       2.66262626       0.00000000       0.00000000       7.75737858
2
Properties=species:S:1:pos:R:3:forces:R:3 energy=1.6912470439520801 pbc="F F F"
Ba       0.00000000       0.00000000       0.00000000       0.00000000       0.00000000      -6.86330414
Ba       0.00000000       0.00000000       2.72222222       0.00000000       0.00000000       6.86330414
2
Properties=species:S:1:pos:R:3:forces:R:3 energy=1.3072164790850291 pbc="F F F"
Ba       0.00000000       0.00000000       0.00000000       0.00000000       0.00000000      -6.03040504
Ba       0.00000000       0.00000000       2.78181818       0.00000000       0.00000000       6.03040504
2
Properties=species:S:1:pos:R:3:forces:R:3 energy=0.9714328197763754 pbc="F F F"
Ba       0.00000000       0.00000000       0.00000000       0.00000000       0.00000000      -5.25059128
Ba       0.00000000       0.00000000       2.84141414       0.00000000       0.00000000       5.25059128
2
Properties=species:S:1:pos:R:3:forces:R:3 energy=0.6796250782857676 pbc="F F F"
Ba       0.00000000       0.00000000       0.00000000       0.00000000       0.00000000      -4.55850172
Ba       0.00000000       0.00000000       2.90101010       0.00000000       0.00000000       4.55850172
2
Properties=species:S:1:pos:R:3:forces:R:3 energy=0.4261839133465001 pbc="F F F"
Ba       0.00000000       0.00000000       0.00000000       0.00000000       0.00000000      -3.96157455
Ba       0.00000000       0.00000000       2.96060606       0.00000000       0.00000000       3.96157455
2
Properties=species:S:1:pos:R:3:forces:R:3 energy=0.2059378469159837 pbc="F F F"
Ba       0.00000000       0.00000000       0.00000000       0.00000000       0.00000000      -3.44001484
Ba       0.00000000       0.00000000       3.02020202       0.00000000       0.00000000       3.44001484
2
Properties=species:S:1:pos:R:3:forces:R:3 energy=0.015161399298495873 pbc="F F F"
Ba       0.00000000       0.00000000       0.00000000       0.00000000       0.00000000      -2.96956325
Ba       0.00000000       0.00000000       3.07979798       0.00000000       0.00000000       2.96956325
2
Properties=species:S:1:pos:R:3:forces:R:3 energy=-0.14886669315448264 pbc="F F F"
Ba       0.00000000       0.00000000       0.00000000       0.00000000       0.00000000      -2.54269361
Ba       0.00000000       0.00000000       3.13939394       0.00000000       0.00000000       2.54269361
2
Properties=species:S:1:pos:R:3:forces:R:3 energy=-0.2889120099327984 pbc="F F F"
Ba       0.00000000       0.00000000       0.00000000       0.00000000       0.00000000      -2.16647243
Ba       0.00000000       0.00000000       3.19898990       0.00000000       0.00000000       2.16647243
2
Properties=species:S:1:pos:R:3:forces:R:3 energy=-0.4082425425009761 pbc="F F F"
Ba       0.00000000       0.00000000       0.00000000       0.00000000       0.00000000      -1.84788227
Ba       0.00000000       0.00000000       3.25858586       0.00000000       0.00000000       1.84788227
2
Properties=species:S:1:pos:R:3:forces:R:3 energy=-0.510276351316008 pbc="F F F"
Ba       0.00000000       0.00000000       0.00000000       0.00000000       0.00000000      -1.58487594
Ba       0.00000000       0.00000000       3.31818182       0.00000000       0.00000000       1.58487594
2
Properties=species:S:1:pos:R:3:forces:R:3 energy=-0.5980772875258817 pbc="F F F"
Ba       0.00000000       0.00000000       0.00000000       0.00000000       0.00000000      -1.36851871
Ba       0.00000000       0.00000000       3.37777778       0.00000000       0.00000000       1.36851871
2
Properties=species:S:1:pos:R:3:forces:R:3 energy=-0.6740961764347919 pbc="F F F"
Ba       0.00000000       0.00000000       0.00000000       0.00000000       0.00000000      -1.18765247
Ba       0.00000000       0.00000000       3.43737374       0.00000000       0.00000000       1.18765247
2
Properties=species:S:1:pos:R:3:forces:R:3 energy=-0.7401136890708492 pbc="F F F"
Ba       0.00000000       0.00000000       0.00000000       0.00000000       0.00000000      -1.03108299
Ba       0.00000000       0.00000000       3.49696970       0.00000000       0.00000000       1.03108299
2
Properties=species:S:1:pos:R:3:forces:R:3 energy=-0.797302935910826 pbc="F F F"
Ba       0.00000000       0.00000000       0.00000000       0.00000000       0.00000000      -0.89027172
Ba       0.00000000       0.00000000       3.55656566       0.00000000       0.00000000       0.89027172
2
Properties=species:S:1:pos:R:3:forces:R:3 energy=-0.846466516960091 pbc="F F F"
Ba       0.00000000       0.00000000       0.00000000       0.00000000       0.00000000      -0.76154226
Ba       0.00000000       0.00000000       3.61616162       0.00000000       0.00000000       0.76154226
2
Properties=species:S:1:pos:R:3:forces:R:3 energy=-0.8883151307095016 pbc="F F F"
Ba       0.00000000       0.00000000       0.00000000       0.00000000       0.00000000      -0.64510602
Ba       0.00000000       0.00000000       3.67575758       0.00000000       0.00000000       0.64510602
2
Properties=species:S:1:pos:R:3:forces:R:3 energy=-0.9236255672897128 pbc="F F F"
Ba       0.00000000       0.00000000       0.00000000       0.00000000       0.00000000      -0.54209954
Ba       0.00000000       0.00000000       3.73535354       0.00000000       0.00000000       0.54209954
2
Properties=species:S:1:pos:R:3:forces:R:3 energy=-0.9531927873285458 pbc="F F F"
Ba       0.00000000       0.00000000       0.00000000       0.00000000       0.00000000      -0.45215011
Ba       0.00000000       0.00000000       3.79494949       0.00000000       0.00000000       0.45215011
2
Properties=species:S:1:pos:R:3:forces:R:3 energy=-0.9777271468723665 pbc="F F F"
Ba       0.00000000       0.00000000       0.00000000       0.00000000       0.00000000      -0.37269068
Ba       0.00000000       0.00000000       3.85454545       0.00000000       0.00000000       0.37269068
2
Properties=species:S:1:pos:R:3:forces:R:3 energy=-0.9977442023088937 pbc="F F F"
Ba       0.00000000       0.00000000       0.00000000       0.00000000       0.00000000      -0.29983443
Ba       0.00000000       0.00000000       3.91414141       0.00000000       0.00000000       0.29983443
2
Properties=species:S:1:pos:R:3:forces:R:3 energy=-1.0135217159872578 pbc="F F F"
Ba       0.00000000       0.00000000       0.00000000       0.00000000       0.00000000      -0.22988546
Ba       0.00000000       0.00000000       3.97373737       0.00000000       0.00000000       0.22988546
2
Properties=species:S:1:pos:R:3:forces:R:3 energy=-1.0251539619609087 pbc="F F F"
Ba       0.00000000       0.00000000       0.00000000       0.00000000       0.00000000      -0.16049908
Ba       0.00000000       0.00000000       4.03333333       0.00000000       0.00000000       0.16049908
2
Properties=species:S:1:pos:R:3:forces:R:3 energy=-1.0326505056432596 pbc="F F F"
Ba       0.00000000       0.00000000       0.00000000       0.00000000       0.00000000      -0.09104484
Ba       0.00000000       0.00000000       4.09292929       0.00000000       0.00000000       0.09104484
2
Properties=species:S:1:pos:R:3:forces:R:3 energy=-1.0360211978714169 pbc="F F F"
Ba       0.00000000       0.00000000       0.00000000       0.00000000       0.00000000      -0.02229192
Ba       0.00000000       0.00000000       4.15252525       0.00000000       0.00000000       0.02229192
2
Properties=species:S:1:pos:R:3:forces:R:3 energy=-1.0353504781803848 pbc="F F F"
Ba       0.00000000       0.00000000       0.00000000       0.00000000       0.00000000       0.04425097
Ba       0.00000000       0.00000000       4.21212121       0.00000000       0.00000000      -0.04425097
2
Properties=species:S:1:pos:R:3:forces:R:3 energy=-1.0308206925316714 pbc="F F F"
Ba       0.00000000       0.00000000       0.00000000       0.00000000       0.00000000       0.10694735
Ba       0.00000000       0.00000000       4.27171717       0.00000000       0.00000000      -0.10694735
2
Properties=species:S:1:pos:R:3:forces:R:3 energy=-1.0227069241976188 pbc="F F F"
Ba       0.00000000       0.00000000       0.00000000       0.00000000       0.00000000       0.16439401
Ba       0.00000000       0.00000000       4.33131313       0.00000000       0.00000000      -0.16439401
2
Properties=species:S:1:pos:R:3:forces:R:3 energy=-1.0113512809702259 pbc="F F F"
Ba       0.00000000       0.00000000       0.00000000       0.00000000       0.00000000       0.21555851
Ba       0.00000000       0.00000000       4.39090909       0.00000000       0.00000000      -0.21555851
2
Properties=species:S:1:pos:R:3:forces:R:3 energy=-0.9971510645950498 pbc="F F F"
Ba       0.00000000       0.00000000       0.00000000       0.00000000       0.00000000       0.25987148
Ba       0.00000000       0.00000000       4.45050505       0.00000000       0.00000000      -0.25987148
2
Properties=species:S:1:pos:R:3:forces:R:3 energy=-0.9805132953762979 pbc="F F F"
Ba       0.00000000       0.00000000       0.00000000       0.00000000       0.00000000       0.29742414
Ba       0.00000000       0.00000000       4.51010101       0.00000000       0.00000000      -0.29742414
2
Properties=species:S:1:pos:R:3:forces:R:3 energy=-0.9618118901964315 pbc="F F F"
Ba       0.00000000       0.00000000       0.00000000       0.00000000       0.00000000       0.32932788
Ba       0.00000000       0.00000000       4.56969697       0.00000000       0.00000000      -0.32932788
2
Properties=species:S:1:pos:R:3:forces:R:3 energy=-0.9413287522860284 pbc="F F F"
Ba       0.00000000       0.00000000       0.00000000       0.00000000       0.00000000       0.35777810
Ba       0.00000000       0.00000000       4.62929293       0.00000000       0.00000000      -0.35777810
2
Properties=species:S:1:pos:R:3:forces:R:3 energy=-0.919187912012302 pbc="F F F"
Ba       0.00000000       0.00000000       0.00000000       0.00000000       0.00000000       0.38530716
Ba       0.00000000       0.00000000       4.68888889       0.00000000       0.00000000      -0.38530716
2
Properties=species:S:1:pos:R:3:forces:R:3 energy=-0.895392151189903 pbc="F F F"
Ba       0.00000000       0.00000000       0.00000000       0.00000000       0.00000000       0.41332802
Ba       0.00000000       0.00000000       4.74848485       0.00000000       0.00000000      -0.41332802
2
Properties=species:S:1:pos:R:3:forces:R:3 energy=-0.8699209525921086 pbc="F F F"
Ba       0.00000000       0.00000000       0.00000000       0.00000000       0.00000000       0.44135624
Ba       0.00000000       0.00000000       4.80808081       0.00000000       0.00000000      -0.44135624
2
Properties=species:S:1:pos:R:3:forces:R:3 energy=-0.842817142066116 pbc="F F F"
Ba       0.00000000       0.00000000       0.00000000       0.00000000       0.00000000       0.46779063
Ba       0.00000000       0.00000000       4.86767677       0.00000000       0.00000000      -0.46779063
2
Properties=species:S:1:pos:R:3:forces:R:3 energy=-0.8142267907405185 pbc="F F F"
Ba       0.00000000       0.00000000       0.00000000       0.00000000       0.00000000       0.49111107
Ba       0.00000000       0.00000000       4.92727273       0.00000000       0.00000000      -0.49111107
2
Properties=species:S:1:pos:R:3:forces:R:3 energy=-0.7843636567012435 pbc="F F F"
Ba       0.00000000       0.00000000       0.00000000       0.00000000       0.00000000       0.51033807
Ba       0.00000000       0.00000000       4.98686869       0.00000000       0.00000000      -0.51033807
2
Properties=species:S:1:pos:R:3:forces:R:3 energy=-0.7534990936473396 pbc="F F F"
Ba       0.00000000       0.00000000       0.00000000       0.00000000       0.00000000       0.52467656
Ba       0.00000000       0.00000000       5.04646465       0.00000000       0.00000000      -0.52467656
2
Properties=species:S:1:pos:R:3:forces:R:3 energy=-0.7219480509046059 pbc="F F F"
Ba       0.00000000       0.00000000       0.00000000       0.00000000       0.00000000       0.53297621
Ba       0.00000000       0.00000000       5.10606061       0.00000000       0.00000000      -0.53297621
2
Properties=species:S:1:pos:R:3:forces:R:3 energy=-0.6901204576664063 pbc="F F F"
Ba       0.00000000       0.00000000       0.00000000       0.00000000       0.00000000       0.53351188
Ba       0.00000000       0.00000000       5.16565657       0.00000000       0.00000000      -0.53351188
2
Properties=species:S:1:pos:R:3:forces:R:3 energy=-0.6585497804891343 pbc="F F F"
Ba       0.00000000       0.00000000       0.00000000       0.00000000       0.00000000       0.52426177
Ba       0.00000000       0.00000000       5.22525253       0.00000000       0.00000000      -0.52426177
2
Properties=species:S:1:pos:R:3:forces:R:3 energy=-0.6278656608649471 pbc="F F F"
Ba       0.00000000       0.00000000       0.00000000       0.00000000       0.00000000       0.50342482
Ba       0.00000000       0.00000000       5.28484848       0.00000000       0.00000000      -0.50342482
2
Properties=species:S:1:pos:R:3:forces:R:3 energy=-0.5987933730446294 pbc="F F F"
Ba       0.00000000       0.00000000       0.00000000       0.00000000       0.00000000       0.47007084
Ba       0.00000000       0.00000000       5.34444444       0.00000000       0.00000000      -0.47007084
2
Properties=species:S:1:pos:R:3:forces:R:3 energy=-0.5720737621130971 pbc="F F F"
Ba       0.00000000       0.00000000       0.00000000       0.00000000       0.00000000       0.42464992
Ba       0.00000000       0.00000000       5.40404040       0.00000000       0.00000000      -0.42464992
2
Properties=species:S:1:pos:R:3:forces:R:3 energy=-0.548372090080914 pbc="F F F"
Ba       0.00000000       0.00000000       0.00000000       0.00000000       0.00000000       0.36925945
Ba       0.00000000       0.00000000       5.46363636       0.00000000       0.00000000      -0.36925945
2
Properties=species:S:1:pos:R:3:forces:R:3 energy=-0.5281966594734546 pbc="F F F"
Ba       0.00000000       0.00000000       0.00000000       0.00000000       0.00000000       0.30749440
Ba       0.00000000       0.00000000       5.52323232       0.00000000       0.00000000      -0.30749440
2
Properties=species:S:1:pos:R:3:forces:R:3 energy=-0.5117636796899402 pbc="F F F"
Ba       0.00000000       0.00000000       0.00000000       0.00000000       0.00000000       0.24403863
Ba       0.00000000       0.00000000       5.58282828       0.00000000       0.00000000      -0.24403863
2
Properties=species:S:1:pos:R:3:forces:R:3 energy=-0.49903903527635973 pbc="F F F"
Ba       0.00000000       0.00000000       0.00000000       0.00000000       0.00000000       0.18396601
Ba       0.00000000       0.00000000       5.64242424       0.00000000       0.00000000      -0.18396601
2
Properties=species:S:1:pos:R:3:forces:R:3 energy=-0.4896760180068548 pbc="F F F"
Ba       0.00000000       0.00000000       0.00000000       0.00000000       0.00000000       0.13179377
Ba       0.00000000       0.00000000       5.70202020       0.00000000       0.00000000      -0.13179377
2
Properties=species:S:1:pos:R:3:forces:R:3 energy=-0.48310457312387095 pbc="F F F"
Ba       0.00000000       0.00000000       0.00000000       0.00000000       0.00000000       0.09093028
Ba       0.00000000       0.00000000       5.76161616       0.00000000       0.00000000      -0.09093028
2
Properties=species:S:1:pos:R:3:forces:R:3 energy=-0.47858611494058234 pbc="F F F"
Ba       0.00000000       0.00000000       0.00000000       0.00000000       0.00000000       0.06286676
Ba       0.00000000       0.00000000       5.82121212       0.00000000       0.00000000      -0.06286676
2
Properties=species:S:1:pos:R:3:forces:R:3 energy=-0.4753685542742703 pbc="F F F"
Ba       0.00000000       0.00000000       0.00000000       0.00000000       0.00000000       0.04712088
Ba       0.00000000       0.00000000       5.88080808       0.00000000       0.00000000      -0.04712088
2
Properties=species:S:1:pos:R:3:forces:R:3 energy=-0.4727767264439861 pbc="F F F"
Ba       0.00000000       0.00000000       0.00000000       0.00000000       0.00000000       0.04106554
Ba       0.00000000       0.00000000       5.94040404       0.00000000       0.00000000      -0.04106554
2
Properties=species:S:1:pos:R:3:forces:R:3 energy=-0.4703650678601958 pbc="F F F"
Ba       0.00000000       0.00000000       0.00000000       0.00000000       0.00000000       0.04043264
Ba       0.00000000       0.00000000       6.00000000       0.00000000       0.00000000      -0.04043264
