2
Properties=species:S:1:pos:R:3:forces:R:3 energy=176132.05949054915 pbc="F F F"
C        0.00000000       0.00000000       0.00000000       0.00000000       0.00000000 -1343691.37500000
C        0.00000000       0.00000000       0.18000000       0.00000000       0.00000000 1343691.37500000
2
Properties=species:S:1:pos:R:3:forces:R:3 energy=103708.34074055073 pbc="F F F"
C        0.00000000       0.00000000       0.00000000       0.00000000       0.00000000 -1080880.25000000
C        0.00000000       0.00000000       0.23878788       0.00000000       0.00000000 1080880.25000000
2
Properties=species:S:1:pos:R:3:forces:R:3 energy=51554.6688655539 pbc="F F F"
C        0.00000000       0.00000000       0.00000000       0.00000000       0.00000000 -689447.56250000
C        0.00000000       0.00000000       0.29757576       0.00000000       0.00000000  689447.56250000
2
Properties=species:S:1:pos:R:3:forces:R:3 energy=21467.819256186816 pbc="F F F"
C        0.00000000       0.00000000       0.00000000       0.00000000       0.00000000 -355759.34375000
C        0.00000000       0.00000000       0.35636364       0.00000000       0.00000000  355759.34375000
2
Properties=species:S:1:pos:R:3:forces:R:3 energy=7238.945232768322 pbc="F F F"
C        0.00000000       0.00000000       0.00000000       0.00000000       0.00000000 -147148.68750000
C        0.00000000       0.00000000       0.41515152       0.00000000       0.00000000  147148.68750000
2
Properties=species:S:1:pos:R:3:forces:R:3 energy=1922.686443743836 pbc="F F F"
C        0.00000000       0.00000000       0.00000000       0.00000000       0.00000000  -49418.31640625
C        0.00000000       0.00000000       0.47393939       0.00000000       0.00000000   49418.31640625
2
Properties=species:S:1:pos:R:3:forces:R:3 energy=374.6093258936062 pbc="F F F"
C        0.00000000       0.00000000       0.00000000       0.00000000       0.00000000  -10322.89746094
C        0.00000000       0.00000000       0.53272727       0.00000000       0.00000000   10322.89746094
2
Properties=species:S:1:pos:R:3:forces:R:3 energy=86.41616500482517 pbc="F F F"
C        0.00000000       0.00000000       0.00000000       0.00000000       0.00000000   -1633.92248535
C        0.00000000       0.00000000       0.59151515       0.00000000       0.00000000    1633.92248535
2
Properties=species:S:1:pos:R:3:forces:R:3 energy=39.96203312590375 pbc="F F F"
C        0.00000000       0.00000000       0.00000000       0.00000000       0.00000000    -368.06234741
C        0.00000000       0.00000000       0.65030303       0.00000000       0.00000000     368.06234741
2
Properties=species:S:1:pos:R:3:forces:R:3 energy=24.831126382386238 pbc="F F F"
C        0.00000000       0.00000000       0.00000000       0.00000000       0.00000000    -200.97280884
C        0.00000000       0.00000000       0.70909091       0.00000000       0.00000000     200.97280884
2
Properties=species:S:1:pos:R:3:forces:R:3 energy=15.083501511359145 pbc="F F F"
C        0.00000000       0.00000000       0.00000000       0.00000000       0.00000000    -136.11338806
C        0.00000000       0.00000000       0.76787879       0.00000000       0.00000000     136.11338806
2
Properties=species:S:1:pos:R:3:forces:R:3 energy=7.737980292487512 pbc="F F F"
C        0.00000000       0.00000000       0.00000000       0.00000000       0.00000000    -115.29312897
C        0.00000000       0.00000000       0.82666667       0.00000000       0.00000000     115.29312897
2
Properties=species:S:1:pos:R:3:forces:R:3 energy=1.676022991618407 pbc="F F F"
C        0.00000000       0.00000000       0.00000000       0.00000000       0.00000000     -92.69071198
C        0.00000000       0.00000000       0.88545455       0.00000000       0.00000000      92.69071198
2
Properties=species:S:1:pos:R:3:forces:R:3 energy=-2.9913368486577196 pbc="F F F"
C        0.00000000       0.00000000       0.00000000       0.00000000       0.00000000     -64.87751770
C        0.00000000       0.00000000       0.94424242       0.00000000       0.00000000      64.87751770
2
Properties=species:S:1:pos:R:3:forces:R:3 energy=-6.144915567619389 pbc="F F F"
C        0.00000000       0.00000000       0.00000000       0.00000000       0.00000000     -44.40896988
C        0.00000000       0.00000000       1.00303030       0.00000000       0.00000000      44.40896988
2
Properties=species:S:1:pos:R:3:forces:R:3 energy=-8.28673194490679 pbc="F F F"
C        0.00000000       0.00000000       0.00000000       0.00000000       0.00000000     -28.35073853
C        0.00000000       0.00000000       1.06181818       0.00000000       0.00000000      28.35073853
2
Properties=species:S:1:pos:R:3:forces:R:3 energy=-9.622368425003087 pbc="F F F"
C        0.00000000       0.00000000       0.00000000       0.00000000       0.00000000     -17.41375732
C        0.00000000       0.00000000       1.12060606       0.00000000       0.00000000      17.41375732
2
Properties=species:S:1:pos:R:3:forces:R:3 energy=-10.419830168341853 pbc="F F F"
C        0.00000000       0.00000000       0.00000000       0.00000000       0.00000000      -9.66882706
C        0.00000000       0.00000000       1.17939394       0.00000000       0.00000000       9.66882706
2
Properties=species:S:1:pos:R:3:forces:R:3 energy=-10.827237831718584 pbc="F F F"
C        0.00000000       0.00000000       0.00000000       0.00000000       0.00000000      -4.23011637
C        0.00000000       0.00000000       1.23818182       0.00000000       0.00000000       4.23011637
2
Properties=species:S:1:pos:R:3:forces:R:3 energy=-10.970767064314389 pbc="F F F"
C        0.00000000       0.00000000       0.00000000       0.00000000       0.00000000      -0.71254241
C        0.00000000       0.00000000       1.29696970       0.00000000       0.00000000       0.71254241
2
Properties=species:S:1:pos:R:3:forces:R:3 energy=-10.932919109672683 pbc="F F F"
C        0.00000000       0.00000000       0.00000000       0.00000000       0.00000000       2.01259279
C        0.00000000       0.00000000       1.35575758       0.00000000       0.00000000      -2.01259279
2
Properties=species:S:1:pos:R:3:forces:R:3 energy=-10.761010482572008 pbc="F F F"
C        0.00000000       0.00000000       0.00000000       0.00000000       0.00000000       3.69812846
C        0.00000000       0.00000000       1.41454545       0.00000000       0.00000000      -3.69812846
2
Properties=species:S:1:pos:R:3:forces:R:3 energy=-10.491524334527364 pbc="F F F"
C        0.00000000       0.00000000       0.00000000       0.00000000       0.00000000       5.47970533
C        0.00000000       0.00000000       1.47333333       0.00000000       0.00000000      -5.47970533
2
Properties=species:S:1:pos:R:3:forces:R:3 energy=-10.125785280990527 pbc="F F F"
C        0.00000000       0.00000000       0.00000000       0.00000000       0.00000000       6.83101892
C        0.00000000       0.00000000       1.53212121       0.00000000       0.00000000      -6.83101892
2
Properties=species:S:1:pos:R:3:forces:R:3 energy=-9.712180782583351 pbc="F F F"
C        0.00000000       0.00000000       0.00000000       0.00000000       0.00000000       7.20404768
C        0.00000000       0.00000000       1.59090909       0.00000000       0.00000000      -7.20404768
2
Properties=species:S:1:pos:R:3:forces:R:3 energy=-9.273767859203994 pbc="F F F"
C        0.00000000       0.00000000       0.00000000       0.00000000       0.00000000       7.56520557
C        0.00000000       0.00000000       1.64969697       0.00000000       0.00000000      -7.56520557
2
Properties=species:S:1:pos:R:3:forces:R:3 energy=-8.829621959326703 pbc="F F F"
C        0.00000000       0.00000000       0.00000000       0.00000000       0.00000000       7.60852194
C        0.00000000       0.00000000       1.70848485       0.00000000       0.00000000      -7.60852194
2
Properties=species:S:1:pos:R:3:forces:R:3 energy=-8.37906533950345 pbc="F F F"
C        0.00000000       0.00000000       0.00000000       0.00000000       0.00000000       7.70006657
C        0.00000000       0.00000000       1.76727273       0.00000000       0.00000000      -7.70006657
2
Properties=species:S:1:pos:R:3:forces:R:3 energy=-7.938764361852972 pbc="F F F"
C        0.00000000       0.00000000       0.00000000       0.00000000       0.00000000       7.22674942
C        0.00000000       0.00000000       1.82606061       0.00000000       0.00000000      -7.22674942
2
Properties=species:S:1:pos:R:3:forces:R:3 energy=-7.503014129118566 pbc="F F F"
C        0.00000000       0.00000000       0.00000000       0.00000000       0.00000000       7.64036083
C        0.00000000       0.00000000       1.88484848       0.00000000       0.00000000      -7.64036083
2
Properties=species:S:1:pos:R:3:forces:R:3 energy=-7.048799132310711 pbc="F F F"
C        0.00000000       0.00000000       0.00000000       0.00000000       0.00000000       7.73012352
C        0.00000000       0.00000000       1.94363636       0.00000000       0.00000000      -7.73012352
2
Properties=species:S:1:pos:R:3:forces:R:3 energy=-6.6032721236223 pbc="F F F"
C        0.00000000       0.00000000       0.00000000       0.00000000       0.00000000       7.34972858
C        0.00000000       0.00000000       2.00242424       0.00000000       0.00000000      -7.34972858
2
Properties=species:S:1:pos:R:3:forces:R:3 energy=-6.188496040318195 pbc="F F F"
C        0.00000000       0.00000000       0.00000000       0.00000000       0.00000000       6.78563595
C        0.00000000       0.00000000       2.06121212       0.00000000       0.00000000      -6.78563595
2
Properties=species:S:1:pos:R:3:forces:R:3 energy=-5.803765648343621 pbc="F F F"
C        0.00000000       0.00000000       0.00000000       0.00000000       0.00000000       6.30301332
C        0.00000000       0.00000000       2.12000000       0.00000000       0.00000000      -6.30301332
2
Properties=species:S:1:pos:R:3:forces:R:3 energy=-5.446942866698381 pbc="F F F"
C        0.00000000       0.00000000       0.00000000       0.00000000       0.00000000       5.82549572
C        0.00000000       0.00000000       2.17878788       0.00000000       0.00000000      -5.82549572
2
Properties=species:S:1:pos:R:3:forces:R:3 energy=-5.122424311741996 pbc="F F F"
C        0.00000000       0.00000000       0.00000000       0.00000000       0.00000000       5.19830322
C        0.00000000       0.00000000       2.23757576       0.00000000       0.00000000      -5.19830322
2
Properties=species:S:1:pos:R:3:forces:R:3 energy=-4.833924059242632 pbc="F F F"
C        0.00000000       0.00000000       0.00000000       0.00000000       0.00000000       4.63685179
C        0.00000000       0.00000000       2.29636364       0.00000000       0.00000000      -4.63685179
2
Properties=species:S:1:pos:R:3:forces:R:3 energy=-4.577421758794023 pbc="F F F"
C        0.00000000       0.00000000       0.00000000       0.00000000       0.00000000       4.07529688
C        0.00000000       0.00000000       2.35515152       0.00000000       0.00000000      -4.07529688
2
Properties=species:S:1:pos:R:3:forces:R:3 energy=-4.354945259671021 pbc="F F F"
C        0.00000000       0.00000000       0.00000000       0.00000000       0.00000000       3.50702381
C        0.00000000       0.00000000       2.41393939       0.00000000       0.00000000      -3.50702381
2
Properties=species:S:1:pos:R:3:forces:R:3 energy=-4.163272225759648 pbc="F F F"
C        0.00000000       0.00000000       0.00000000       0.00000000       0.00000000       3.02245688
C        0.00000000       0.00000000       2.47272727       0.00000000       0.00000000      -3.02245688
2
Properties=species:S:1:pos:R:3:forces:R:3 energy=-3.9998047593631436 pbc="F F F"
C        0.00000000       0.00000000       0.00000000       0.00000000       0.00000000       2.53289914
C        0.00000000       0.00000000       2.53151515       0.00000000       0.00000000      -2.53289914
2
Properties=species:S:1:pos:R:3:forces:R:3 energy=-3.865307664517666 pbc="F F F"
C        0.00000000       0.00000000       0.00000000       0.00000000       0.00000000       2.05135012
C        0.00000000       0.00000000       2.59030303       0.00000000       0.00000000      -2.05135012
2
Properties=species:S:1:pos:R:3:forces:R:3 energy=-3.757293381635191 pbc="F F F"
C        0.00000000       0.00000000       0.00000000       0.00000000       0.00000000       1.63562238
C        0.00000000       0.00000000       2.64909091       0.00000000       0.00000000      -1.63562238
2
Properties=species:S:1:pos:R:3:forces:R:3 energy=-3.6715348745171497 pbc="F F F"
C        0.00000000       0.00000000       0.00000000       0.00000000       0.00000000       1.29377472
C        0.00000000       0.00000000       2.70787879       0.00000000       0.00000000      -1.29377472
2
Properties=species:S:1:pos:R:3:forces:R:3 energy=-3.603936862908275 pbc="F F F"
C        0.00000000       0.00000000       0.00000000       0.00000000       0.00000000       1.01580238
C        0.00000000       0.00000000       2.76666667       0.00000000       0.00000000      -1.01580238
2
Properties=species:S:1:pos:R:3:forces:R:3 energy=-3.550937487278387 pbc="F F F"
C        0.00000000       0.00000000       0.00000000       0.00000000       0.00000000       0.79687220
C        0.00000000       0.00000000       2.82545455       0.00000000       0.00000000      -0.79687220
2
Properties=species:S:1:pos:R:3:forces:R:3 energy=-3.5092794855911644 pbc="F F F"
C        0.00000000       0.00000000       0.00000000       0.00000000       0.00000000       0.62685776
C        0.00000000       0.00000000       2.88424242       0.00000000       0.00000000      -0.62685776
2
Properties=species:S:1:pos:R:3:forces:R:3 energy=-3.476615857274526 pbc="F F F"
C        0.00000000       0.00000000       0.00000000       0.00000000       0.00000000       0.48894295
C        0.00000000       0.00000000       2.94303030       0.00000000       0.00000000      -0.48894295
2
Properties=species:S:1:pos:R:3:forces:R:3 energy=-3.4512381008864983 pbc="F F F"
C        0.00000000       0.00000000       0.00000000       0.00000000       0.00000000       0.37955567
C        0.00000000       0.00000000       3.00181818       0.00000000       0.00000000      -0.37955567
2
Properties=species:S:1:pos:R:3:forces:R:3 energy=-3.4313762314221767 pbc="F F F"
C        0.00000000       0.00000000       0.00000000       0.00000000       0.00000000       0.30110547
C        0.00000000       0.00000000       3.06060606       0.00000000       0.00000000      -0.30110547
2
Properties=species:S:1:pos:R:3:forces:R:3 energy=-3.4153494640235347 pbc="F F F"
C        0.00000000       0.00000000       0.00000000       0.00000000       0.00000000       0.24717548
C        0.00000000       0.00000000       3.11939394       0.00000000       0.00000000      -0.24717548
2
Properties=species:S:1:pos:R:3:forces:R:3 energy=-3.402086878974498 pbc="F F F"
C        0.00000000       0.00000000       0.00000000       0.00000000       0.00000000       0.20507421
C        0.00000000       0.00000000       3.17818182       0.00000000       0.00000000      -0.20507421
2
Properties=species:S:1:pos:R:3:forces:R:3 energy=-3.3911874604172754 pbc="F F F"
C        0.00000000       0.00000000       0.00000000       0.00000000       0.00000000       0.16581663
C        0.00000000       0.00000000       3.23696970       0.00000000       0.00000000      -0.16581663
2
Properties=species:S:1:pos:R:3:forces:R:3 energy=-3.3825719070243876 pbc="F F F"
C        0.00000000       0.00000000       0.00000000       0.00000000       0.00000000       0.12765399
C        0.00000000       0.00000000       3.29575758       0.00000000       0.00000000      -0.12765399
2
Properties=species:S:1:pos:R:3:forces:R:3 energy=-3.3761153961108494 pbc="F F F"
C        0.00000000       0.00000000       0.00000000       0.00000000       0.00000000       0.09271323
C        0.00000000       0.00000000       3.35454545       0.00000000       0.00000000      -0.09271323
2
Properties=species:S:1:pos:R:3:forces:R:3 energy=-3.3715682940334695 pbc="F F F"
C        0.00000000       0.00000000       0.00000000       0.00000000       0.00000000       0.06289686
C        0.00000000       0.00000000       3.41333333       0.00000000       0.00000000      -0.06289686
2
Properties=species:S:1:pos:R:3:forces:R:3 energy=-3.3686018375233706 pbc="F F F"
C        0.00000000       0.00000000       0.00000000       0.00000000       0.00000000       0.03908644
C        0.00000000       0.00000000       3.47212121       0.00000000       0.00000000      -0.03908644
2
Properties=species:S:1:pos:R:3:forces:R:3 energy=-3.3668470997005224 pbc="F F F"
C        0.00000000       0.00000000       0.00000000       0.00000000       0.00000000       0.02170803
C        0.00000000       0.00000000       3.53090909       0.00000000       0.00000000      -0.02170803
2
Properties=species:S:1:pos:R:3:forces:R:3 energy=-3.3659292360259796 pbc="F F F"
C        0.00000000       0.00000000       0.00000000       0.00000000       0.00000000       0.01035994
C        0.00000000       0.00000000       3.58969697       0.00000000       0.00000000      -0.01035994
2
Properties=species:S:1:pos:R:3:forces:R:3 energy=-3.3655436570779953 pbc="F F F"
C        0.00000000       0.00000000       0.00000000       0.00000000       0.00000000       0.00336344
C        0.00000000       0.00000000       3.64848485       0.00000000       0.00000000      -0.00336344
2
Properties=species:S:1:pos:R:3:forces:R:3 energy=-3.3654960543629118 pbc="F F F"
C        0.00000000       0.00000000       0.00000000       0.00000000       0.00000000      -0.00169558
C        0.00000000       0.00000000       3.70727273       0.00000000       0.00000000       0.00169558
2
Properties=species:S:1:pos:R:3:forces:R:3 energy=-3.365743313276101 pbc="F F F"
C        0.00000000       0.00000000       0.00000000       0.00000000       0.00000000      -0.00687071
C        0.00000000       0.00000000       3.76606061       0.00000000       0.00000000       0.00687071
2
Properties=species:S:1:pos:R:3:forces:R:3 energy=-3.366322939618641 pbc="F F F"
C        0.00000000       0.00000000       0.00000000       0.00000000       0.00000000      -0.01309964
C        0.00000000       0.00000000       3.82484848       0.00000000       0.00000000       0.01309964
2
Properties=species:S:1:pos:R:3:forces:R:3 energy=-3.3673005995903553 pbc="F F F"
C        0.00000000       0.00000000       0.00000000       0.00000000       0.00000000      -0.02014643
C        0.00000000       0.00000000       3.88363636       0.00000000       0.00000000       0.02014643
2
Properties=species:S:1:pos:R:3:forces:R:3 energy=-3.3686900040196384 pbc="F F F"
C        0.00000000       0.00000000       0.00000000       0.00000000       0.00000000      -0.02705013
C        0.00000000       0.00000000       3.94242424       0.00000000       0.00000000       0.02705013
2
Properties=species:S:1:pos:R:3:forces:R:3 energy=-3.370455820863511 pbc="F F F"
C        0.00000000       0.00000000       0.00000000       0.00000000       0.00000000      -0.03269525
C        0.00000000       0.00000000       4.00121212       0.00000000       0.00000000       0.03269525
2
Properties=species:S:1:pos:R:3:forces:R:3 energy=-3.3724917601012576 pbc="F F F"
C        0.00000000       0.00000000       0.00000000       0.00000000       0.00000000      -0.03621817
C        0.00000000       0.00000000       4.06000000       0.00000000       0.00000000       0.03621817
2
Properties=species:S:1:pos:R:3:forces:R:3 energy=-3.374665434837138 pbc="F F F"
C        0.00000000       0.00000000       0.00000000       0.00000000       0.00000000      -0.03718061
C        0.00000000       0.00000000       4.11878788       0.00000000       0.00000000       0.03718061
2
Properties=species:S:1:pos:R:3:forces:R:3 energy=-3.3768155668017044 pbc="F F F"
C        0.00000000       0.00000000       0.00000000       0.00000000       0.00000000      -0.03559435
C        0.00000000       0.00000000       4.17757576       0.00000000       0.00000000       0.03559435
2
Properties=species:S:1:pos:R:3:forces:R:3 energy=-3.378806378258013 pbc="F F F"
C        0.00000000       0.00000000       0.00000000       0.00000000       0.00000000      -0.03187722
C        0.00000000       0.00000000       4.23636364       0.00000000       0.00000000       0.03187722
2
Properties=species:S:1:pos:R:3:forces:R:3 energy=-3.380537175470165 pbc="F F F"
C        0.00000000       0.00000000       0.00000000       0.00000000       0.00000000      -0.02676018
C        0.00000000       0.00000000       4.29515152       0.00000000       0.00000000       0.02676018
2
Properties=species:S:1:pos:R:3:forces:R:3 energy=-3.381944309904917 pbc="F F F"
C        0.00000000       0.00000000       0.00000000       0.00000000       0.00000000      -0.02113492
C        0.00000000       0.00000000       4.35393939       0.00000000       0.00000000       0.02113492
2
Properties=species:S:1:pos:R:3:forces:R:3 energy=-3.3830288541897655 pbc="F F F"
C        0.00000000       0.00000000       0.00000000       0.00000000       0.00000000      -0.01586462
C        0.00000000       0.00000000       4.41272727       0.00000000       0.00000000       0.01586462
2
Properties=species:S:1:pos:R:3:forces:R:3 energy=-3.3838299558569096 pbc="F F F"
C        0.00000000       0.00000000       0.00000000       0.00000000       0.00000000      -0.01158955
C        0.00000000       0.00000000       4.47151515       0.00000000       0.00000000       0.01158955
2
Properties=species:S:1:pos:R:3:forces:R:3 energy=-3.3844172146803424 pbc="F F F"
C        0.00000000       0.00000000       0.00000000       0.00000000       0.00000000      -0.00860289
C        0.00000000       0.00000000       4.53030303       0.00000000       0.00000000       0.00860289
2
Properties=species:S:1:pos:R:3:forces:R:3 energy=-3.3848649726711044 pbc="F F F"
C        0.00000000       0.00000000       0.00000000       0.00000000       0.00000000      -0.00683427
C        0.00000000       0.00000000       4.58909091       0.00000000       0.00000000       0.00683427
2
Properties=species:S:1:pos:R:3:forces:R:3 energy=-3.3852380295533857 pbc="F F F"
C        0.00000000       0.00000000       0.00000000       0.00000000       0.00000000      -0.00594385
C        0.00000000       0.00000000       4.64787879       0.00000000       0.00000000       0.00594385
2
Properties=species:S:1:pos:R:3:forces:R:3 energy=-3.385570665493361 pbc="F F F"
C        0.00000000       0.00000000       0.00000000       0.00000000       0.00000000      -0.00548611
C        0.00000000       0.00000000       4.70666667       0.00000000       0.00000000       0.00548611
2
Properties=species:S:1:pos:R:3:forces:R:3 energy=-3.385881922854964 pbc="F F F"
C        0.00000000       0.00000000       0.00000000       0.00000000       0.00000000      -0.00507022
C        0.00000000       0.00000000       4.76545455       0.00000000       0.00000000       0.00507022
2
Properties=species:S:1:pos:R:3:forces:R:3 energy=-3.386166079356169 pbc="F F F"
C        0.00000000       0.00000000       0.00000000       0.00000000       0.00000000      -0.00446273
C        0.00000000       0.00000000       4.82424242       0.00000000       0.00000000       0.00446273
2
Properties=species:S:1:pos:R:3:forces:R:3 energy=-3.386404097902463 pbc="F F F"
C        0.00000000       0.00000000       0.00000000       0.00000000       0.00000000      -0.00360327
C        0.00000000       0.00000000       4.88303030       0.00000000       0.00000000       0.00360327
2
Properties=species:S:1:pos:R:3:forces:R:3 energy=-3.386584603066054 pbc="F F F"
C        0.00000000       0.00000000       0.00000000       0.00000000       0.00000000      -0.00255579
C        0.00000000       0.00000000       4.94181818       0.00000000       0.00000000       0.00255579
2
Properties=species:S:1:pos:R:3:forces:R:3 energy=-3.386701989774334 pbc="F F F"
C        0.00000000       0.00000000       0.00000000       0.00000000       0.00000000      -0.00142672
C        0.00000000       0.00000000       5.00060606       0.00000000       0.00000000       0.00142672
2
Properties=species:S:1:pos:R:3:forces:R:3 energy=-3.386751654740312 pbc="F F F"
C        0.00000000       0.00000000       0.00000000       0.00000000       0.00000000      -0.00030436
C        0.00000000       0.00000000       5.05939394       0.00000000       0.00000000       0.00030436
2
Properties=species:S:1:pos:R:3:forces:R:3 energy=-3.386735710192977 pbc="F F F"
C        0.00000000       0.00000000       0.00000000       0.00000000       0.00000000       0.00076831
C        0.00000000       0.00000000       5.11818182       0.00000000       0.00000000      -0.00076831
2
Properties=species:S:1:pos:R:3:forces:R:3 energy=-3.386663946065137 pbc="F F F"
C        0.00000000       0.00000000       0.00000000       0.00000000       0.00000000       0.00177963
C        0.00000000       0.00000000       5.17696970       0.00000000       0.00000000      -0.00177963
2
Properties=species:S:1:pos:R:3:forces:R:3 energy=-3.38652903307527 pbc="F F F"
C        0.00000000       0.00000000       0.00000000       0.00000000       0.00000000       0.00272200
C        0.00000000       0.00000000       5.23575758       0.00000000       0.00000000      -0.00272200
2
Properties=species:S:1:pos:R:3:forces:R:3 energy=-3.386345615553936 pbc="F F F"
C        0.00000000       0.00000000       0.00000000       0.00000000       0.00000000       0.00356389
C        0.00000000       0.00000000       5.29454545       0.00000000       0.00000000      -0.00356389
2
Properties=species:S:1:pos:R:3:forces:R:3 energy=-3.3861150324236817 pbc="F F F"
C        0.00000000       0.00000000       0.00000000       0.00000000       0.00000000       0.00424562
C        0.00000000       0.00000000       5.35333333       0.00000000       0.00000000      -0.00424562
2
Properties=species:S:1:pos:R:3:forces:R:3 energy=-3.3858501048117104 pbc="F F F"
C        0.00000000       0.00000000       0.00000000       0.00000000       0.00000000       0.00469180
C        0.00000000       0.00000000       5.41212121       0.00000000       0.00000000      -0.00469180
2
Properties=species:S:1:pos:R:3:forces:R:3 energy=-3.3855703668863444 pbc="F F F"
C        0.00000000       0.00000000       0.00000000       0.00000000       0.00000000       0.00483866
C        0.00000000       0.00000000       5.47090909       0.00000000       0.00000000      -0.00483866
2
Properties=species:S:1:pos:R:3:forces:R:3 energy=-3.3852868056820418 pbc="F F F"
C        0.00000000       0.00000000       0.00000000       0.00000000       0.00000000       0.00466097
C        0.00000000       0.00000000       5.52969697       0.00000000       0.00000000      -0.00466097
2
Properties=species:S:1:pos:R:3:forces:R:3 energy=-3.385026656136649 pbc="F F F"
C        0.00000000       0.00000000       0.00000000       0.00000000       0.00000000       0.00418753
C        0.00000000       0.00000000       5.58848485       0.00000000       0.00000000      -0.00418753
2
Properties=species:S:1:pos:R:3:forces:R:3 energy=-3.384801923998288 pbc="F F F"
C        0.00000000       0.00000000       0.00000000       0.00000000       0.00000000       0.00350104
C        0.00000000       0.00000000       5.64727273       0.00000000       0.00000000      -0.00350104
2
Properties=species:S:1:pos:R:3:forces:R:3 energy=-3.3846170146259227 pbc="F F F"
C        0.00000000       0.00000000       0.00000000       0.00000000       0.00000000       0.00272105
C        0.00000000       0.00000000       5.70606061       0.00000000       0.00000000      -0.00272105
2
Properties=species:S:1:pos:R:3:forces:R:3 energy=-3.3844801778731077 pbc="F F F"
C        0.00000000       0.00000000       0.00000000       0.00000000       0.00000000       0.00197758
C        0.00000000       0.00000000       5.76484848       0.00000000       0.00000000      -0.00197758
2
Properties=species:S:1:pos:R:3:forces:R:3 energy=-3.3843806133707646 pbc="F F F"
C        0.00000000       0.00000000       0.00000000       0.00000000       0.00000000       0.00138014
C        0.00000000       0.00000000       5.82363636       0.00000000       0.00000000      -0.00138014
2
Properties=species:S:1:pos:R:3:forces:R:3 energy=-3.384314220575176 pbc="F F F"
C        0.00000000       0.00000000       0.00000000       0.00000000       0.00000000       0.00098752
C        0.00000000       0.00000000       5.88242424       0.00000000       0.00000000      -0.00098752
2
Properties=species:S:1:pos:R:3:forces:R:3 energy=-3.384261662922284 pbc="F F F"
C        0.00000000       0.00000000       0.00000000       0.00000000       0.00000000       0.00079141
C        0.00000000       0.00000000       5.94121212       0.00000000       0.00000000      -0.00079141
2
Properties=species:S:1:pos:R:3:forces:R:3 energy=-3.3842179278212177 pbc="F F F"
C        0.00000000       0.00000000       0.00000000       0.00000000       0.00000000       0.00071887
C        0.00000000       0.00000000       6.00000000       0.00000000       0.00000000      -0.00071887
