2
Properties=species:S:1:pos:R:3:forces:R:3 energy=96580679.89005058 pbc="F F F"
Ca       0.00000000       0.00000000       0.00000000       0.00000000       0.00000000 -570006912.00000000
Ca       0.00000000       0.00000000       0.10000000       0.00000000       0.00000000 570006912.00000000
2
Properties=species:S:1:pos:R:3:forces:R:3 energy=60586199.89005057 pbc="F F F"
Ca       0.00000000       0.00000000       0.00000000       0.00000000       0.00000000 -595610048.00000000
Ca       0.00000000       0.00000000       0.15959596       0.00000000       0.00000000 595610048.00000000
2
Properties=species:S:1:pos:R:3:forces:R:3 energy=29434893.89005057 pbc="F F F"
Ca       0.00000000       0.00000000       0.00000000       0.00000000       0.00000000 -430008576.00000000
Ca       0.00000000       0.00000000       0.21919192       0.00000000       0.00000000 430008576.00000000
2
Properties=species:S:1:pos:R:3:forces:R:3 energy=10231318.89005057 pbc="F F F"
Ca       0.00000000       0.00000000       0.00000000       0.00000000       0.00000000 -218059648.00000000
Ca       0.00000000       0.00000000       0.27878788       0.00000000       0.00000000 218059648.00000000
2
Properties=species:S:1:pos:R:3:forces:R:3 energy=2106624.64005057 pbc="F F F"
Ca       0.00000000       0.00000000       0.00000000       0.00000000       0.00000000 -69765944.00000000
Ca       0.00000000       0.00000000       0.33838384       0.00000000       0.00000000 69765944.00000000
2
Properties=species:S:1:pos:R:3:forces:R:3 energy=128367.83536308265 pbc="F F F"
Ca       0.00000000       0.00000000       0.00000000       0.00000000       0.00000000 -10797570.00000000
Ca       0.00000000       0.00000000       0.39797980       0.00000000       0.00000000 10797570.00000000
2
Properties=species:S:1:pos:R:3:forces:R:3 energy=6854.179113095324 pbc="F F F"
Ca       0.00000000       0.00000000       0.00000000       0.00000000       0.00000000 -379644.15625000
Ca       0.00000000       0.00000000       0.45757576       0.00000000       0.00000000  379644.15625000
2
Properties=species:S:1:pos:R:3:forces:R:3 energy=-62.211317329772434 pbc="F F F"
Ca       0.00000000       0.00000000       0.00000000       0.00000000       0.00000000    2087.54736328
Ca       0.00000000       0.00000000       0.51717172       0.00000000       0.00000000   -2087.54736328
2
Properties=species:S:1:pos:R:3:forces:R:3 energy=41.90146424557092 pbc="F F F"
Ca       0.00000000       0.00000000       0.00000000       0.00000000       0.00000000    1242.49572754
Ca       0.00000000       0.00000000       0.57676768       0.00000000       0.00000000   -1242.49572754
2
Properties=species:S:1:pos:R:3:forces:R:3 energy=100.95158181427443 pbc="F F F"
Ca       0.00000000       0.00000000       0.00000000       0.00000000       0.00000000     741.12310791
Ca       0.00000000       0.00000000       0.63636364       0.00000000       0.00000000    -741.12310791
2
Properties=species:S:1:pos:R:3:forces:R:3 energy=214.22958944831154 pbc="F F F"
Ca       0.00000000       0.00000000       0.00000000       0.00000000       0.00000000    1610.72766113
Ca       0.00000000       0.00000000       0.69595960       0.00000000       0.00000000   -1610.72766113
2
Properties=species:S:1:pos:R:3:forces:R:3 energy=363.9255430201928 pbc="F F F"
Ca       0.00000000       0.00000000       0.00000000       0.00000000       0.00000000    3057.74072266
Ca       0.00000000       0.00000000       0.75555556       0.00000000       0.00000000   -3057.74072266
2
Properties=species:S:1:pos:R:3:forces:R:3 energy=603.8834595840693 pbc="F F F"
Ca       0.00000000       0.00000000       0.00000000       0.00000000       0.00000000    4931.23046875
Ca       0.00000000       0.00000000       0.81515152       0.00000000       0.00000000   -4931.23046875
2
Properties=species:S:1:pos:R:3:forces:R:3 energy=655.9022588430181 pbc="F F F"
Ca       0.00000000       0.00000000       0.00000000       0.00000000       0.00000000   -2084.62353516
Ca       0.00000000       0.00000000       0.87474747       0.00000000       0.00000000    2084.62353516
2
Properties=species:S:1:pos:R:3:forces:R:3 energy=491.33682976374 pbc="F F F"
Ca       0.00000000       0.00000000       0.00000000       0.00000000       0.00000000   -3511.68847656
Ca       0.00000000       0.00000000       0.93434343       0.00000000       0.00000000    3511.68847656
2
Properties=species:S:1:pos:R:3:forces:R:3 energy=297.35660599067006 pbc="F F F"
Ca       0.00000000       0.00000000       0.00000000       0.00000000       0.00000000   -2706.23681641
Ca       0.00000000       0.00000000       0.99393939       0.00000000       0.00000000    2706.23681641
2
Properties=species:S:1:pos:R:3:forces:R:3 energy=177.4084565089917 pbc="F F F"
Ca       0.00000000       0.00000000       0.00000000       0.00000000       0.00000000   -1461.94360352
Ca       0.00000000       0.00000000       1.05353535       0.00000000       0.00000000    1461.94360352
2
Properties=species:S:1:pos:R:3:forces:R:3 energy=113.45310525901448 pbc="F F F"
Ca       0.00000000       0.00000000       0.00000000       0.00000000       0.00000000    -749.40826416
Ca       0.00000000       0.00000000       1.11313131       0.00000000       0.00000000     749.40826416
2
Properties=species:S:1:pos:R:3:forces:R:3 energy=78.8090719343939 pbc="F F F"
Ca       0.00000000       0.00000000       0.00000000       0.00000000       0.00000000    -441.52938843
Ca       0.00000000       0.00000000       1.17272727       0.00000000       0.00000000     441.52938843
2
Properties=species:S:1:pos:R:3:forces:R:3 energy=59.20557419113969 pbc="F F F"
Ca       0.00000000       0.00000000       0.00000000       0.00000000       0.00000000    -237.92536926
Ca       0.00000000       0.00000000       1.23232323       0.00000000       0.00000000     237.92536926
2
Properties=species:S:1:pos:R:3:forces:R:3 energy=47.58471650823566 pbc="F F F"
Ca       0.00000000       0.00000000       0.00000000       0.00000000       0.00000000    -164.37641907
Ca       0.00000000       0.00000000       1.29191919       0.00000000       0.00000000     164.37641907
2
Properties=species:S:1:pos:R:3:forces:R:3 energy=38.76496142223472 pbc="F F F"
Ca       0.00000000       0.00000000       0.00000000       0.00000000       0.00000000    -131.31741333
Ca       0.00000000       0.00000000       1.35151515       0.00000000       0.00000000     131.31741333
2
Properties=species:S:1:pos:R:3:forces:R:3 energy=31.620630107092918 pbc="F F F"
Ca       0.00000000       0.00000000       0.00000000       0.00000000       0.00000000    -108.50102997
Ca       0.00000000       0.00000000       1.41111111       0.00000000       0.00000000     108.50102997
2
Properties=species:S:1:pos:R:3:forces:R:3 energy=25.874970306298334 pbc="F F F"
Ca       0.00000000       0.00000000       0.00000000       0.00000000       0.00000000     -84.28794098
Ca       0.00000000       0.00000000       1.47070707       0.00000000       0.00000000      84.28794098
2
Properties=species:S:1:pos:R:3:forces:R:3 energy=21.4559417280867 pbc="F F F"
Ca       0.00000000       0.00000000       0.00000000       0.00000000       0.00000000     -65.31597900
Ca       0.00000000       0.00000000       1.53030303       0.00000000       0.00000000      65.31597900
2
Properties=species:S:1:pos:R:3:forces:R:3 energy=17.96848128897167 pbc="F F F"
Ca       0.00000000       0.00000000       0.00000000       0.00000000       0.00000000     -53.31948090
Ca       0.00000000       0.00000000       1.58989899       0.00000000       0.00000000      53.31948090
2
Properties=species:S:1:pos:R:3:forces:R:3 energy=15.001805525363984 pbc="F F F"
Ca       0.00000000       0.00000000       0.00000000       0.00000000       0.00000000     -45.71413040
Ca       0.00000000       0.00000000       1.64949495       0.00000000       0.00000000      45.71413040
2
Properties=species:S:1:pos:R:3:forces:R:3 energy=12.495091414864403 pbc="F F F"
Ca       0.00000000       0.00000000       0.00000000       0.00000000       0.00000000     -38.58367157
Ca       0.00000000       0.00000000       1.70909091       0.00000000       0.00000000      38.58367157
2
Properties=species:S:1:pos:R:3:forces:R:3 energy=10.430242451797326 pbc="F F F"
Ca       0.00000000       0.00000000       0.00000000       0.00000000       0.00000000     -31.05060196
Ca       0.00000000       0.00000000       1.76868687       0.00000000       0.00000000      31.05060196
2
Properties=species:S:1:pos:R:3:forces:R:3 energy=8.712000417574455 pbc="F F F"
Ca       0.00000000       0.00000000       0.00000000       0.00000000       0.00000000     -26.76596260
Ca       0.00000000       0.00000000       1.82828283       0.00000000       0.00000000      26.76596260
2
Properties=species:S:1:pos:R:3:forces:R:3 energy=7.263310879644203 pbc="F F F"
Ca       0.00000000       0.00000000       0.00000000       0.00000000       0.00000000     -21.91761780
Ca       0.00000000       0.00000000       1.88787879       0.00000000       0.00000000      21.91761780
2
Properties=species:S:1:pos:R:3:forces:R:3 energy=6.077082974696785 pbc="F F F"
Ca       0.00000000       0.00000000       0.00000000       0.00000000       0.00000000     -18.05098724
Ca       0.00000000       0.00000000       1.94747475       0.00000000       0.00000000      18.05098724
2
Properties=species:S:1:pos:R:3:forces:R:3 energy=5.0964288066595165 pbc="F F F"
Ca       0.00000000       0.00000000       0.00000000       0.00000000       0.00000000     -14.94330025
Ca       0.00000000       0.00000000       2.00707071       0.00000000       0.00000000      14.94330025
2
Properties=species:S:1:pos:R:3:forces:R:3 energy=4.283046726911178 pbc="F F F"
Ca       0.00000000       0.00000000       0.00000000       0.00000000       0.00000000     -12.49514675
Ca       0.00000000       0.00000000       2.06666667       0.00000000       0.00000000      12.49514675
2
Properties=species:S:1:pos:R:3:forces:R:3 energy=3.598169782463163 pbc="F F F"
Ca       0.00000000       0.00000000       0.00000000       0.00000000       0.00000000     -10.52369118
Ca       0.00000000       0.00000000       2.12626263       0.00000000       0.00000000      10.52369118
2
Properties=species:S:1:pos:R:3:forces:R:3 energy=3.0160935734664136 pbc="F F F"
Ca       0.00000000       0.00000000       0.00000000       0.00000000       0.00000000      -9.15001678
Ca       0.00000000       0.00000000       2.18585859       0.00000000       0.00000000       9.15001678
2
Properties=species:S:1:pos:R:3:forces:R:3 energy=2.5012681184847563 pbc="F F F"
Ca       0.00000000       0.00000000       0.00000000       0.00000000       0.00000000      -8.13029575
Ca       0.00000000       0.00000000       2.24545455       0.00000000       0.00000000       8.13029575
2
Properties=species:S:1:pos:R:3:forces:R:3 energy=2.044514425607995 pbc="F F F"
Ca       0.00000000       0.00000000       0.00000000       0.00000000       0.00000000      -7.21034002
Ca       0.00000000       0.00000000       2.30505051       0.00000000       0.00000000       7.21034002
2
Properties=species:S:1:pos:R:3:forces:R:3 energy=1.641777823111179 pbc="F F F"
Ca       0.00000000       0.00000000       0.00000000       0.00000000       0.00000000      -6.31612825
Ca       0.00000000       0.00000000       2.36464646       0.00000000       0.00000000       6.31612825
2
Properties=species:S:1:pos:R:3:forces:R:3 energy=1.2893021393303925 pbc="F F F"
Ca       0.00000000       0.00000000       0.00000000       0.00000000       0.00000000      -5.53148508
Ca       0.00000000       0.00000000       2.42424242       0.00000000       0.00000000       5.53148508
2
Properties=species:S:1:pos:R:3:forces:R:3 energy=0.9801385290735861 pbc="F F F"
Ca       0.00000000       0.00000000       0.00000000       0.00000000       0.00000000      -4.85929537
Ca       0.00000000       0.00000000       2.48383838       0.00000000       0.00000000       4.85929537
2
Properties=species:S:1:pos:R:3:forces:R:3 energy=0.7102161841801619 pbc="F F F"
Ca       0.00000000       0.00000000       0.00000000       0.00000000       0.00000000      -4.19225073
Ca       0.00000000       0.00000000       2.54343434       0.00000000       0.00000000       4.19225073
2
Properties=species:S:1:pos:R:3:forces:R:3 energy=0.4792715671012328 pbc="F F F"
Ca       0.00000000       0.00000000       0.00000000       0.00000000       0.00000000      -3.58476186
Ca       0.00000000       0.00000000       2.60303030       0.00000000       0.00000000       3.58476186
2
Properties=species:S:1:pos:R:3:forces:R:3 energy=0.27947368390207405 pbc="F F F"
Ca       0.00000000       0.00000000       0.00000000       0.00000000       0.00000000      -3.14352393
Ca       0.00000000       0.00000000       2.66262626       0.00000000       0.00000000       3.14352393
2
Properties=species:S:1:pos:R:3:forces:R:3 energy=0.10313354942208493 pbc="F F F"
Ca       0.00000000       0.00000000       0.00000000       0.00000000       0.00000000      -2.77696967
Ca       0.00000000       0.00000000       2.72222222       0.00000000       0.00000000       2.77696967
2
Properties=species:S:1:pos:R:3:forces:R:3 energy=-0.05150495022052874 pbc="F F F"
Ca       0.00000000       0.00000000       0.00000000       0.00000000       0.00000000      -2.41394019
Ca       0.00000000       0.00000000       2.78181818       0.00000000       0.00000000       2.41394019
2
Properties=species:S:1:pos:R:3:forces:R:3 energy=-0.18520198548263495 pbc="F F F"
Ca       0.00000000       0.00000000       0.00000000       0.00000000       0.00000000      -2.08108163
Ca       0.00000000       0.00000000       2.84141414       0.00000000       0.00000000       2.08108163
2
Properties=species:S:1:pos:R:3:forces:R:3 energy=-0.3006566987618186 pbc="F F F"
Ca       0.00000000       0.00000000       0.00000000       0.00000000       0.00000000      -1.80264270
Ca       0.00000000       0.00000000       2.90101010       0.00000000       0.00000000       1.80264270
2
Properties=species:S:1:pos:R:3:forces:R:3 energy=-0.4009922720740015 pbc="F F F"
Ca       0.00000000       0.00000000       0.00000000       0.00000000       0.00000000      -1.57058048
Ca       0.00000000       0.00000000       2.96060606       0.00000000       0.00000000       1.57058048
2
Properties=species:S:1:pos:R:3:forces:R:3 energy=-0.4883734287481564 pbc="F F F"
Ca       0.00000000       0.00000000       0.00000000       0.00000000       0.00000000      -1.36481011
Ca       0.00000000       0.00000000       3.02020202       0.00000000       0.00000000       1.36481011
2
Properties=species:S:1:pos:R:3:forces:R:3 energy=-0.563955914030115 pbc="F F F"
Ca       0.00000000       0.00000000       0.00000000       0.00000000       0.00000000      -1.17417848
Ca       0.00000000       0.00000000       3.07979798       0.00000000       0.00000000       1.17417848
2
Properties=species:S:1:pos:R:3:forces:R:3 energy=-0.6286869699588244 pbc="F F F"
Ca       0.00000000       0.00000000       0.00000000       0.00000000       0.00000000      -1.00184798
Ca       0.00000000       0.00000000       3.13939394       0.00000000       0.00000000       1.00184798
2
Properties=species:S:1:pos:R:3:forces:R:3 energy=-0.6838536854269925 pbc="F F F"
Ca       0.00000000       0.00000000       0.00000000       0.00000000       0.00000000      -0.85377252
Ca       0.00000000       0.00000000       3.19898990       0.00000000       0.00000000       0.85377252
2
Properties=species:S:1:pos:R:3:forces:R:3 energy=-0.7309459331765854 pbc="F F F"
Ca       0.00000000       0.00000000       0.00000000       0.00000000       0.00000000      -0.73032242
Ca       0.00000000       0.00000000       3.25858586       0.00000000       0.00000000       0.73032242
2
Properties=species:S:1:pos:R:3:forces:R:3 energy=-0.7713031174918112 pbc="F F F"
Ca       0.00000000       0.00000000       0.00000000       0.00000000       0.00000000      -0.62692910
Ca       0.00000000       0.00000000       3.31818182       0.00000000       0.00000000       0.62692910
2
Properties=species:S:1:pos:R:3:forces:R:3 energy=-0.805959286149916 pbc="F F F"
Ca       0.00000000       0.00000000       0.00000000       0.00000000       0.00000000      -0.53828871
Ca       0.00000000       0.00000000       3.37777778       0.00000000       0.00000000       0.53828871
2
Properties=species:S:1:pos:R:3:forces:R:3 energy=-0.8356675964999063 pbc="F F F"
Ca       0.00000000       0.00000000       0.00000000       0.00000000       0.00000000      -0.46000421
Ca       0.00000000       0.00000000       3.43737374       0.00000000       0.00000000       0.46000421
2
Properties=species:S:1:pos:R:3:forces:R:3 energy=-0.8609036359795601 pbc="F F F"
Ca       0.00000000       0.00000000       0.00000000       0.00000000       0.00000000      -0.38748741
Ca       0.00000000       0.00000000       3.49696970       0.00000000       0.00000000       0.38748741
2
Properties=species:S:1:pos:R:3:forces:R:3 energy=-0.8818846156592971 pbc="F F F"
Ca       0.00000000       0.00000000       0.00000000       0.00000000       0.00000000      -0.31678227
Ca       0.00000000       0.00000000       3.55656566       0.00000000       0.00000000       0.31678227
2
Properties=species:S:1:pos:R:3:forces:R:3 energy=-0.8986694673921356 pbc="F F F"
Ca       0.00000000       0.00000000       0.00000000       0.00000000       0.00000000      -0.24662563
Ca       0.00000000       0.00000000       3.61616162       0.00000000       0.00000000       0.24662563
2
Properties=species:S:1:pos:R:3:forces:R:3 energy=-0.9113217621321921 pbc="F F F"
Ca       0.00000000       0.00000000       0.00000000       0.00000000       0.00000000      -0.17854445
Ca       0.00000000       0.00000000       3.67575758       0.00000000       0.00000000       0.17854445
2
Properties=species:S:1:pos:R:3:forces:R:3 energy=-0.9200484653262841 pbc="F F F"
Ca       0.00000000       0.00000000       0.00000000       0.00000000       0.00000000      -0.11526750
Ca       0.00000000       0.00000000       3.73535354       0.00000000       0.00000000       0.11526750
2
Properties=species:S:1:pos:R:3:forces:R:3 energy=-0.9252092043630373 pbc="F F F"
Ca       0.00000000       0.00000000       0.00000000       0.00000000       0.00000000      -0.05928917
Ca       0.00000000       0.00000000       3.79494949       0.00000000       0.00000000       0.05928917
2
Properties=species:S:1:pos:R:3:forces:R:3 energy=-0.9272903584176357 pbc="F F F"
Ca       0.00000000       0.00000000       0.00000000       0.00000000       0.00000000      -0.01225488
Ca       0.00000000       0.00000000       3.85454545       0.00000000       0.00000000       0.01225488
2
Properties=species:S:1:pos:R:3:forces:R:3 energy=-0.9268543889183661 pbc="F F F"
Ca       0.00000000       0.00000000       0.00000000       0.00000000       0.00000000       0.02543681
Ca       0.00000000       0.00000000       3.91414141       0.00000000       0.00000000      -0.02543681
2
Properties=species:S:1:pos:R:3:forces:R:3 energy=-0.9244129466467103 pbc="F F F"
Ca       0.00000000       0.00000000       0.00000000       0.00000000       0.00000000       0.05553918
Ca       0.00000000       0.00000000       3.97373737       0.00000000       0.00000000      -0.05553918
2
Properties=species:S:1:pos:R:3:forces:R:3 energy=-0.9202878708984903 pbc="F F F"
Ca       0.00000000       0.00000000       0.00000000       0.00000000       0.00000000       0.08294591
Ca       0.00000000       0.00000000       4.03333333       0.00000000       0.00000000      -0.08294591
2
Properties=species:S:1:pos:R:3:forces:R:3 energy=-0.9144433425872097 pbc="F F F"
Ca       0.00000000       0.00000000       0.00000000       0.00000000       0.00000000       0.11440589
Ca       0.00000000       0.00000000       4.09292929       0.00000000       0.00000000      -0.11440589
2
Properties=species:S:1:pos:R:3:forces:R:3 energy=-0.9064910842095213 pbc="F F F"
Ca       0.00000000       0.00000000       0.00000000       0.00000000       0.00000000       0.15389226
Ca       0.00000000       0.00000000       4.15252525       0.00000000       0.00000000      -0.15389226
2
Properties=species:S:1:pos:R:3:forces:R:3 energy=-0.8959845377599736 pbc="F F F"
Ca       0.00000000       0.00000000       0.00000000       0.00000000       0.00000000       0.19911754
Ca       0.00000000       0.00000000       4.21212121       0.00000000       0.00000000      -0.19911754
2
Properties=species:S:1:pos:R:3:forces:R:3 energy=-0.882767947208551 pbc="F F F"
Ca       0.00000000       0.00000000       0.00000000       0.00000000       0.00000000       0.24384917
Ca       0.00000000       0.00000000       4.27171717       0.00000000       0.00000000      -0.24384917
2
Properties=species:S:1:pos:R:3:forces:R:3 energy=-0.8670393762771877 pbc="F F F"
Ca       0.00000000       0.00000000       0.00000000       0.00000000       0.00000000       0.28271112
Ca       0.00000000       0.00000000       4.33131313       0.00000000       0.00000000      -0.28271112
2
Properties=species:S:1:pos:R:3:forces:R:3 energy=-0.8492352882295827 pbc="F F F"
Ca       0.00000000       0.00000000       0.00000000       0.00000000       0.00000000       0.31331447
Ca       0.00000000       0.00000000       4.39090909       0.00000000       0.00000000      -0.31331447
2
Properties=species:S:1:pos:R:3:forces:R:3 energy=-0.8298599724095945 pbc="F F F"
Ca       0.00000000       0.00000000       0.00000000       0.00000000       0.00000000       0.33563656
Ca       0.00000000       0.00000000       4.45050505       0.00000000       0.00000000      -0.33563656
2
Properties=species:S:1:pos:R:3:forces:R:3 energy=-0.8093744545454329 pbc="F F F"
Ca       0.00000000       0.00000000       0.00000000       0.00000000       0.00000000       0.35073501
Ca       0.00000000       0.00000000       4.51010101       0.00000000       0.00000000      -0.35073501
2
Properties=species:S:1:pos:R:3:forces:R:3 energy=-0.7881706539762744 pbc="F F F"
Ca       0.00000000       0.00000000       0.00000000       0.00000000       0.00000000       0.35991400
Ca       0.00000000       0.00000000       4.56969697       0.00000000       0.00000000      -0.35991400
2
Properties=species:S:1:pos:R:3:forces:R:3 energy=-0.7665701412265818 pbc="F F F"
Ca       0.00000000       0.00000000       0.00000000       0.00000000       0.00000000       0.36433908
Ca       0.00000000       0.00000000       4.62929293       0.00000000       0.00000000      -0.36433908
2
Properties=species:S:1:pos:R:3:forces:R:3 energy=-0.7448196878262101 pbc="F F F"
Ca       0.00000000       0.00000000       0.00000000       0.00000000       0.00000000       0.36498868
Ca       0.00000000       0.00000000       4.68888889       0.00000000       0.00000000      -0.36498868
2
Properties=species:S:1:pos:R:3:forces:R:3 energy=-0.723123958743698 pbc="F F F"
Ca       0.00000000       0.00000000       0.00000000       0.00000000       0.00000000       0.36269751
Ca       0.00000000       0.00000000       4.74848485       0.00000000       0.00000000      -0.36269751
2
Properties=species:S:1:pos:R:3:forces:R:3 energy=-0.7016342190711355 pbc="F F F"
Ca       0.00000000       0.00000000       0.00000000       0.00000000       0.00000000       0.35823891
Ca       0.00000000       0.00000000       4.80808081       0.00000000       0.00000000      -0.35823891
2
Properties=species:S:1:pos:R:3:forces:R:3 energy=-0.6804551228268771 pbc="F F F"
Ca       0.00000000       0.00000000       0.00000000       0.00000000       0.00000000       0.35233167
Ca       0.00000000       0.00000000       4.86767677       0.00000000       0.00000000      -0.35233167
2
Properties=species:S:1:pos:R:3:forces:R:3 energy=-0.659652687163137 pbc="F F F"
Ca       0.00000000       0.00000000       0.00000000       0.00000000       0.00000000       0.34557700
Ca       0.00000000       0.00000000       4.92727273       0.00000000       0.00000000      -0.34557700
2
Properties=species:S:1:pos:R:3:forces:R:3 energy=-0.6392738090277182 pbc="F F F"
Ca       0.00000000       0.00000000       0.00000000       0.00000000       0.00000000       0.33831123
Ca       0.00000000       0.00000000       4.98686869       0.00000000       0.00000000      -0.33831123
2
Properties=species:S:1:pos:R:3:forces:R:3 energy=-0.6193439330075128 pbc="F F F"
Ca       0.00000000       0.00000000       0.00000000       0.00000000       0.00000000       0.33049399
Ca       0.00000000       0.00000000       5.04646465       0.00000000       0.00000000      -0.33049399
2
Properties=species:S:1:pos:R:3:forces:R:3 energy=-0.5999046691150086 pbc="F F F"
Ca       0.00000000       0.00000000       0.00000000       0.00000000       0.00000000       0.32165468
Ca       0.00000000       0.00000000       5.10606061       0.00000000       0.00000000      -0.32165468
2
Properties=species:S:1:pos:R:3:forces:R:3 energy=-0.5810385406433348 pbc="F F F"
Ca       0.00000000       0.00000000       0.00000000       0.00000000       0.00000000       0.31096539
Ca       0.00000000       0.00000000       5.16565657       0.00000000       0.00000000      -0.31096539
2
Properties=species:S:1:pos:R:3:forces:R:3 energy=-0.5628939697678166 pbc="F F F"
Ca       0.00000000       0.00000000       0.00000000       0.00000000       0.00000000       0.29743534
Ca       0.00000000       0.00000000       5.22525253       0.00000000       0.00000000      -0.29743534
2
Properties=species:S:1:pos:R:3:forces:R:3 energy=-0.5456614356880649 pbc="F F F"
Ca       0.00000000       0.00000000       0.00000000       0.00000000       0.00000000       0.28018785
Ca       0.00000000       0.00000000       5.28484848       0.00000000       0.00000000      -0.28018785
2
Properties=species:S:1:pos:R:3:forces:R:3 energy=-0.5295823491364624 pbc="F F F"
Ca       0.00000000       0.00000000       0.00000000       0.00000000       0.00000000       0.25871950
Ca       0.00000000       0.00000000       5.34444444       0.00000000       0.00000000      -0.25871950
2
Properties=species:S:1:pos:R:3:forces:R:3 energy=-0.5149032316614655 pbc="F F F"
Ca       0.00000000       0.00000000       0.00000000       0.00000000       0.00000000       0.23313248
Ca       0.00000000       0.00000000       5.40404040       0.00000000       0.00000000      -0.23313248
2
Properties=species:S:1:pos:R:3:forces:R:3 energy=-0.5018568005323832 pbc="F F F"
Ca       0.00000000       0.00000000       0.00000000       0.00000000       0.00000000       0.20420873
Ca       0.00000000       0.00000000       5.46363636       0.00000000       0.00000000      -0.20420873
2
Properties=species:S:1:pos:R:3:forces:R:3 energy=-0.4906047736229709 pbc="F F F"
Ca       0.00000000       0.00000000       0.00000000       0.00000000       0.00000000       0.17335960
Ca       0.00000000       0.00000000       5.52323232       0.00000000       0.00000000      -0.17335960
2
Properties=species:S:1:pos:R:3:forces:R:3 energy=-0.4812007141269554 pbc="F F F"
Ca       0.00000000       0.00000000       0.00000000       0.00000000       0.00000000       0.14241202
Ca       0.00000000       0.00000000       5.58282828       0.00000000       0.00000000      -0.14241202
2
Properties=species:S:1:pos:R:3:forces:R:3 energy=-0.4735929676087162 pbc="F F F"
Ca       0.00000000       0.00000000       0.00000000       0.00000000       0.00000000       0.11338417
Ca       0.00000000       0.00000000       5.64242424       0.00000000       0.00000000      -0.11338417
2
Properties=species:S:1:pos:R:3:forces:R:3 energy=-0.4676104962727137 pbc="F F F"
Ca       0.00000000       0.00000000       0.00000000       0.00000000       0.00000000       0.08808494
Ca       0.00000000       0.00000000       5.70202020       0.00000000       0.00000000      -0.08808494
2
Properties=species:S:1:pos:R:3:forces:R:3 energy=-0.462989632529503 pbc="F F F"
Ca       0.00000000       0.00000000       0.00000000       0.00000000       0.00000000       0.06788957
Ca       0.00000000       0.00000000       5.76161616       0.00000000       0.00000000      -0.06788957
2
Properties=species:S:1:pos:R:3:forces:R:3 energy=-0.4594056009333296 pbc="F F F"
Ca       0.00000000       0.00000000       0.00000000       0.00000000       0.00000000       0.05339731
Ca       0.00000000       0.00000000       5.82121212       0.00000000       0.00000000      -0.05339731
2
Properties=species:S:1:pos:R:3:forces:R:3 energy=-0.4565175499512625 pbc="F F F"
Ca       0.00000000       0.00000000       0.00000000       0.00000000       0.00000000       0.04439701
Ca       0.00000000       0.00000000       5.88080808       0.00000000       0.00000000      -0.04439701
2
Properties=species:S:1:pos:R:3:forces:R:3 energy=-0.45402669441827315 pbc="F F F"
Ca       0.00000000       0.00000000       0.00000000       0.00000000       0.00000000       0.03973671
Ca       0.00000000       0.00000000       5.94040404       0.00000000       0.00000000      -0.03973671
2
Properties=species:S:1:pos:R:3:forces:R:3 energy=-0.4517299715569042 pbc="F F F"
Ca       0.00000000       0.00000000       0.00000000       0.00000000       0.00000000       0.03754949
Ca       0.00000000       0.00000000       6.00000000       0.00000000       0.00000000      -0.03754949
