2
Properties=species:S:1:pos:R:3:forces:R:3 energy=12.920806293321926 pbc="F F F"
H        0.00000000       0.00000000       0.00000000       0.00000000       0.00000000     -86.27929688
H        0.00000000       0.00000000       0.18000000       0.00000000       0.00000000      86.27929688
2
Properties=species:S:1:pos:R:3:forces:R:3 energy=8.003482227555795 pbc="F F F"
H        0.00000000       0.00000000       0.00000000       0.00000000       0.00000000     -78.81192017
H        0.00000000       0.00000000       0.23878788       0.00000000       0.00000000      78.81192017
2
Properties=species:S:1:pos:R:3:forces:R:3 energy=3.8050082981868525 pbc="F F F"
H        0.00000000       0.00000000       0.00000000       0.00000000       0.00000000     -63.54827118
H        0.00000000       0.00000000       0.29757576       0.00000000       0.00000000      63.54827118
2
Properties=species:S:1:pos:R:3:forces:R:3 energy=0.5178641168461481 pbc="F F F"
H        0.00000000       0.00000000       0.00000000       0.00000000       0.00000000     -49.18284225
H        0.00000000       0.00000000       0.35636364       0.00000000       0.00000000      49.18284225
2
Properties=species:S:1:pos:R:3:forces:R:3 energy=-2.021332368059663 pbc="F F F"
H        0.00000000       0.00000000       0.00000000       0.00000000       0.00000000     -36.89137650
H        0.00000000       0.00000000       0.41515152       0.00000000       0.00000000      36.89137650
2
Properties=species:S:1:pos:R:3:forces:R:3 energy=-3.860216946652693 pbc="F F F"
H        0.00000000       0.00000000       0.00000000       0.00000000       0.00000000     -26.35283279
H        0.00000000       0.00000000       0.47393939       0.00000000       0.00000000      26.35283279
2
Properties=species:S:1:pos:R:3:forces:R:3 energy=-5.121680828379566 pbc="F F F"
H        0.00000000       0.00000000       0.00000000       0.00000000       0.00000000     -17.07750130
H        0.00000000       0.00000000       0.53272727       0.00000000       0.00000000      17.07750130
2
Properties=species:S:1:pos:R:3:forces:R:3 energy=-5.884373520809089 pbc="F F F"
H        0.00000000       0.00000000       0.00000000       0.00000000       0.00000000      -9.37162018
H        0.00000000       0.00000000       0.59151515       0.00000000       0.00000000       9.37162018
2
Properties=species:S:1:pos:R:3:forces:R:3 energy=-6.301603407115025 pbc="F F F"
H        0.00000000       0.00000000       0.00000000       0.00000000       0.00000000      -4.98629618
H        0.00000000       0.00000000       0.65030303       0.00000000       0.00000000       4.98629618
2
Properties=species:S:1:pos:R:3:forces:R:3 energy=-6.4949008164690625 pbc="F F F"
H        0.00000000       0.00000000       0.00000000       0.00000000       0.00000000      -1.75883281
H        0.00000000       0.00000000       0.70909091       0.00000000       0.00000000       1.75883281
2
Properties=species:S:1:pos:R:3:forces:R:3 energy=-6.520028308576325 pbc="F F F"
H        0.00000000       0.00000000       0.00000000       0.00000000       0.00000000       0.64470267
H        0.00000000       0.00000000       0.76787879       0.00000000       0.00000000      -0.64470267
2
Properties=species:S:1:pos:R:3:forces:R:3 energy=-6.432903481448275 pbc="F F F"
H        0.00000000       0.00000000       0.00000000       0.00000000       0.00000000       2.12001324
H        0.00000000       0.00000000       0.82666667       0.00000000       0.00000000      -2.12001324
2
Properties=species:S:1:pos:R:3:forces:R:3 energy=-6.276265257094547 pbc="F F F"
H        0.00000000       0.00000000       0.00000000       0.00000000       0.00000000       3.21618199
H        0.00000000       0.00000000       0.88545455       0.00000000       0.00000000      -3.21618199
2
Properties=species:S:1:pos:R:3:forces:R:3 energy=-6.060705910967343 pbc="F F F"
H        0.00000000       0.00000000       0.00000000       0.00000000       0.00000000       4.00048304
H        0.00000000       0.00000000       0.94424242       0.00000000       0.00000000      -4.00048304
2
Properties=species:S:1:pos:R:3:forces:R:3 energy=-5.813263122008546 pbc="F F F"
H        0.00000000       0.00000000       0.00000000       0.00000000       0.00000000       4.20791674
H        0.00000000       0.00000000       1.00303030       0.00000000       0.00000000      -4.20791674
2
Properties=species:S:1:pos:R:3:forces:R:3 energy=-5.5526921781031175 pbc="F F F"
H        0.00000000       0.00000000       0.00000000       0.00000000       0.00000000       4.55317688
H        0.00000000       0.00000000       1.06181818       0.00000000       0.00000000      -4.55317688
2
Properties=species:S:1:pos:R:3:forces:R:3 energy=-5.265010736673046 pbc="F F F"
H        0.00000000       0.00000000       0.00000000       0.00000000       0.00000000       4.97608995
H        0.00000000       0.00000000       1.12060606       0.00000000       0.00000000      -4.97608995
2
Properties=species:S:1:pos:R:3:forces:R:3 energy=-4.967062974857451 pbc="F F F"
H        0.00000000       0.00000000       0.00000000       0.00000000       0.00000000       4.84969997
H        0.00000000       0.00000000       1.17939394       0.00000000       0.00000000      -4.84969997
2
Properties=species:S:1:pos:R:3:forces:R:3 energy=-4.673824544338298 pbc="F F F"
H        0.00000000       0.00000000       0.00000000       0.00000000       0.00000000       4.95548153
H        0.00000000       0.00000000       1.23818182       0.00000000       0.00000000      -4.95548153
2
Properties=species:S:1:pos:R:3:forces:R:3 energy=-4.385546961941826 pbc="F F F"
H        0.00000000       0.00000000       0.00000000       0.00000000       0.00000000       4.79881620
H        0.00000000       0.00000000       1.29696970       0.00000000       0.00000000      -4.79881620
2
Properties=species:S:1:pos:R:3:forces:R:3 energy=-4.114587637881173 pbc="F F F"
H        0.00000000       0.00000000       0.00000000       0.00000000       0.00000000       4.44331217
H        0.00000000       0.00000000       1.35575758       0.00000000       0.00000000      -4.44331217
2
Properties=species:S:1:pos:R:3:forces:R:3 energy=-3.859490654391932 pbc="F F F"
H        0.00000000       0.00000000       0.00000000       0.00000000       0.00000000       4.02618599
H        0.00000000       0.00000000       1.41454545       0.00000000       0.00000000      -4.02618599
2
Properties=species:S:1:pos:R:3:forces:R:3 energy=-3.635650203678578 pbc="F F F"
H        0.00000000       0.00000000       0.00000000       0.00000000       0.00000000       3.71004844
H        0.00000000       0.00000000       1.47333333       0.00000000       0.00000000      -3.71004844
2
Properties=species:S:1:pos:R:3:forces:R:3 energy=-3.4272629771943057 pbc="F F F"
H        0.00000000       0.00000000       0.00000000       0.00000000       0.00000000       3.37415576
H        0.00000000       0.00000000       1.53212121       0.00000000       0.00000000      -3.37415576
2
Properties=species:S:1:pos:R:3:forces:R:3 energy=-3.234410425830087 pbc="F F F"
H        0.00000000       0.00000000       0.00000000       0.00000000       0.00000000       3.16763997
H        0.00000000       0.00000000       1.59090909       0.00000000       0.00000000      -3.16763997
2
Properties=species:S:1:pos:R:3:forces:R:3 energy=-3.060747814990119 pbc="F F F"
H        0.00000000       0.00000000       0.00000000       0.00000000       0.00000000       2.69000554
H        0.00000000       0.00000000       1.64969697       0.00000000       0.00000000      -2.69000554
2
Properties=species:S:1:pos:R:3:forces:R:3 energy=-2.9217163295735267 pbc="F F F"
H        0.00000000       0.00000000       0.00000000       0.00000000       0.00000000       2.05332565
H        0.00000000       0.00000000       1.70848485       0.00000000       0.00000000      -2.05332565
2
Properties=species:S:1:pos:R:3:forces:R:3 energy=-2.8152340526941 pbc="F F F"
H        0.00000000       0.00000000       0.00000000       0.00000000       0.00000000       1.61152267
H        0.00000000       0.00000000       1.76727273       0.00000000       0.00000000      -1.61152267
2
Properties=species:S:1:pos:R:3:forces:R:3 energy=-2.7260282973995884 pbc="F F F"
H        0.00000000       0.00000000       0.00000000       0.00000000       0.00000000       1.46261036
H        0.00000000       0.00000000       1.82606061       0.00000000       0.00000000      -1.46261036
2
Properties=species:S:1:pos:R:3:forces:R:3 energy=-2.6442531950989197 pbc="F F F"
H        0.00000000       0.00000000       0.00000000       0.00000000       0.00000000       1.36447489
H        0.00000000       0.00000000       1.88484848       0.00000000       0.00000000      -1.36447489
2
Properties=species:S:1:pos:R:3:forces:R:3 energy=-2.568816669194448 pbc="F F F"
H        0.00000000       0.00000000       0.00000000       0.00000000       0.00000000       1.11808169
H        0.00000000       0.00000000       1.94363636       0.00000000       0.00000000      -1.11808169
2
Properties=species:S:1:pos:R:3:forces:R:3 energy=-2.5128830824306174 pbc="F F F"
H        0.00000000       0.00000000       0.00000000       0.00000000       0.00000000       0.83358705
H        0.00000000       0.00000000       2.00242424       0.00000000       0.00000000      -0.83358705
2
Properties=species:S:1:pos:R:3:forces:R:3 energy=-2.467295114321068 pbc="F F F"
H        0.00000000       0.00000000       0.00000000       0.00000000       0.00000000       0.72250456
H        0.00000000       0.00000000       2.06121212       0.00000000       0.00000000      -0.72250456
2
Properties=species:S:1:pos:R:3:forces:R:3 energy=-2.428729570372744 pbc="F F F"
H        0.00000000       0.00000000       0.00000000       0.00000000       0.00000000       0.58477098
H        0.00000000       0.00000000       2.12000000       0.00000000       0.00000000      -0.58477098
2
Properties=species:S:1:pos:R:3:forces:R:3 energy=-2.3979278583987322 pbc="F F F"
H        0.00000000       0.00000000       0.00000000       0.00000000       0.00000000       0.47303653
H        0.00000000       0.00000000       2.17878788       0.00000000       0.00000000      -0.47303653
2
Properties=species:S:1:pos:R:3:forces:R:3 energy=-2.371850609325083 pbc="F F F"
H        0.00000000       0.00000000       0.00000000       0.00000000       0.00000000       0.42325079
H        0.00000000       0.00000000       2.23757576       0.00000000       0.00000000      -0.42325079
2
Properties=species:S:1:pos:R:3:forces:R:3 energy=-2.348250094439372 pbc="F F F"
H        0.00000000       0.00000000       0.00000000       0.00000000       0.00000000       0.36711279
H        0.00000000       0.00000000       2.29636364       0.00000000       0.00000000      -0.36711279
2
Properties=species:S:1:pos:R:3:forces:R:3 energy=-2.330783854793715 pbc="F F F"
H        0.00000000       0.00000000       0.00000000       0.00000000       0.00000000       0.21565039
H        0.00000000       0.00000000       2.35515152       0.00000000       0.00000000      -0.21565039
2
Properties=species:S:1:pos:R:3:forces:R:3 energy=-2.3218473816787064 pbc="F F F"
H        0.00000000       0.00000000       0.00000000       0.00000000       0.00000000       0.10853886
H        0.00000000       0.00000000       2.41393939       0.00000000       0.00000000      -0.10853886
2
Properties=species:S:1:pos:R:3:forces:R:3 energy=-2.3166413376074297 pbc="F F F"
H        0.00000000       0.00000000       0.00000000       0.00000000       0.00000000       0.07128777
H        0.00000000       0.00000000       2.47272727       0.00000000       0.00000000      -0.07128777
2
Properties=species:S:1:pos:R:3:forces:R:3 energy=-2.3133005470691232 pbc="F F F"
H        0.00000000       0.00000000       0.00000000       0.00000000       0.00000000       0.04448975
H        0.00000000       0.00000000       2.53151515       0.00000000       0.00000000      -0.04448975
2
Properties=species:S:1:pos:R:3:forces:R:3 energy=-2.3113977112250694 pbc="F F F"
H        0.00000000       0.00000000       0.00000000       0.00000000       0.00000000       0.01721494
H        0.00000000       0.00000000       2.59030303       0.00000000       0.00000000      -0.01721494
2
Properties=species:S:1:pos:R:3:forces:R:3 energy=-2.311678737151258 pbc="F F F"
H        0.00000000       0.00000000       0.00000000       0.00000000       0.00000000      -0.02808258
H        0.00000000       0.00000000       2.64909091       0.00000000       0.00000000       0.02808258
2
Properties=species:S:1:pos:R:3:forces:R:3 energy=-2.314517830191298 pbc="F F F"
H        0.00000000       0.00000000       0.00000000       0.00000000       0.00000000      -0.06537928
H        0.00000000       0.00000000       2.70787879       0.00000000       0.00000000       0.06537928
2
Properties=species:S:1:pos:R:3:forces:R:3 energy=-2.3189704363595376 pbc="F F F"
H        0.00000000       0.00000000       0.00000000       0.00000000       0.00000000      -0.08260372
H        0.00000000       0.00000000       2.76666667       0.00000000       0.00000000       0.08260372
2
Properties=species:S:1:pos:R:3:forces:R:3 energy=-2.323782720860181 pbc="F F F"
H        0.00000000       0.00000000       0.00000000       0.00000000       0.00000000      -0.07738557
H        0.00000000       0.00000000       2.82545455       0.00000000       0.00000000       0.07738557
2
Properties=species:S:1:pos:R:3:forces:R:3 energy=-2.3277582016129896 pbc="F F F"
H        0.00000000       0.00000000       0.00000000       0.00000000       0.00000000      -0.05684846
H        0.00000000       0.00000000       2.88424242       0.00000000       0.00000000       0.05684846
2
Properties=species:S:1:pos:R:3:forces:R:3 energy=-2.330542587181711 pbc="F F F"
H        0.00000000       0.00000000       0.00000000       0.00000000       0.00000000      -0.03957821
H        0.00000000       0.00000000       2.94303030       0.00000000       0.00000000       0.03957821
2
Properties=species:S:1:pos:R:3:forces:R:3 energy=-2.332630402997071 pbc="F F F"
H        0.00000000       0.00000000       0.00000000       0.00000000       0.00000000      -0.03285179
H        0.00000000       0.00000000       3.00181818       0.00000000       0.00000000       0.03285179
2
Properties=species:S:1:pos:R:3:forces:R:3 energy=-2.3344646731068743 pbc="F F F"
H        0.00000000       0.00000000       0.00000000       0.00000000       0.00000000      -0.02915319
H        0.00000000       0.00000000       3.06060606       0.00000000       0.00000000       0.02915319
2
Properties=species:S:1:pos:R:3:forces:R:3 energy=-2.3359419146985174 pbc="F F F"
H        0.00000000       0.00000000       0.00000000       0.00000000       0.00000000      -0.01988319
H        0.00000000       0.00000000       3.11939394       0.00000000       0.00000000       0.01988319
2
Properties=species:S:1:pos:R:3:forces:R:3 energy=-2.3366996297236926 pbc="F F F"
H        0.00000000       0.00000000       0.00000000       0.00000000       0.00000000      -0.00561804
H        0.00000000       0.00000000       3.17818182       0.00000000       0.00000000       0.00561804
2
Properties=species:S:1:pos:R:3:forces:R:3 energy=-2.336645070779451 pbc="F F F"
H        0.00000000       0.00000000       0.00000000       0.00000000       0.00000000       0.00659707
H        0.00000000       0.00000000       3.23696970       0.00000000       0.00000000      -0.00659707
2
Properties=species:S:1:pos:R:3:forces:R:3 energy=-2.336052024202149 pbc="F F F"
H        0.00000000       0.00000000       0.00000000       0.00000000       0.00000000       0.01243385
H        0.00000000       0.00000000       3.29575758       0.00000000       0.00000000      -0.01243385
2
Properties=species:S:1:pos:R:3:forces:R:3 energy=-2.3352970983301313 pbc="F F F"
H        0.00000000       0.00000000       0.00000000       0.00000000       0.00000000       0.01244925
H        0.00000000       0.00000000       3.35454545       0.00000000       0.00000000      -0.01244925
2
Properties=species:S:1:pos:R:3:forces:R:3 energy=-2.3346575348471945 pbc="F F F"
H        0.00000000       0.00000000       0.00000000       0.00000000       0.00000000       0.00891738
H        0.00000000       0.00000000       3.41333333       0.00000000       0.00000000      -0.00891738
2
Properties=species:S:1:pos:R:3:forces:R:3 energy=-2.334278320679907 pbc="F F F"
H        0.00000000       0.00000000       0.00000000       0.00000000       0.00000000       0.00390016
H        0.00000000       0.00000000       3.47212121       0.00000000       0.00000000      -0.00390016
2
Properties=species:S:1:pos:R:3:forces:R:3 energy=-2.3341950773691345 pbc="F F F"
H        0.00000000       0.00000000       0.00000000       0.00000000       0.00000000      -0.00089666
H        0.00000000       0.00000000       3.53090909       0.00000000       0.00000000       0.00089666
2
Properties=species:S:1:pos:R:3:forces:R:3 energy=-2.334353151781402 pbc="F F F"
H        0.00000000       0.00000000       0.00000000       0.00000000       0.00000000      -0.00419118
H        0.00000000       0.00000000       3.58969697       0.00000000       0.00000000       0.00419118
2
Properties=species:S:1:pos:R:3:forces:R:3 energy=-2.334648170828017 pbc="F F F"
H        0.00000000       0.00000000       0.00000000       0.00000000       0.00000000      -0.00551419
H        0.00000000       0.00000000       3.64848485       0.00000000       0.00000000       0.00551419
2
Properties=species:S:1:pos:R:3:forces:R:3 energy=-2.3349718331763967 pbc="F F F"
H        0.00000000       0.00000000       0.00000000       0.00000000       0.00000000      -0.00533982
H        0.00000000       0.00000000       3.70727273       0.00000000       0.00000000       0.00533982
2
Properties=species:S:1:pos:R:3:forces:R:3 energy=-2.3352653370875465 pbc="F F F"
H        0.00000000       0.00000000       0.00000000       0.00000000       0.00000000      -0.00465773
H        0.00000000       0.00000000       3.76606061       0.00000000       0.00000000       0.00465773
2
Properties=species:S:1:pos:R:3:forces:R:3 energy=-2.3355265527723224 pbc="F F F"
H        0.00000000       0.00000000       0.00000000       0.00000000       0.00000000      -0.00430256
H        0.00000000       0.00000000       3.82484848       0.00000000       0.00000000       0.00430256
2
Properties=species:S:1:pos:R:3:forces:R:3 energy=-2.3357833344587315 pbc="F F F"
H        0.00000000       0.00000000       0.00000000       0.00000000       0.00000000      -0.00453143
H        0.00000000       0.00000000       3.88363636       0.00000000       0.00000000       0.00453143
2
Properties=species:S:1:pos:R:3:forces:R:3 energy=-2.3360649309512733 pbc="F F F"
H        0.00000000       0.00000000       0.00000000       0.00000000       0.00000000      -0.00502344
H        0.00000000       0.00000000       3.94242424       0.00000000       0.00000000       0.00502344
2
Properties=species:S:1:pos:R:3:forces:R:3 energy=-2.3363671851309067 pbc="F F F"
H        0.00000000       0.00000000       0.00000000       0.00000000       0.00000000      -0.00516406
H        0.00000000       0.00000000       4.00121212       0.00000000       0.00000000       0.00516406
2
Properties=species:S:1:pos:R:3:forces:R:3 energy=-2.336653499112722 pbc="F F F"
H        0.00000000       0.00000000       0.00000000       0.00000000       0.00000000      -0.00437887
H        0.00000000       0.00000000       4.06000000       0.00000000       0.00000000       0.00437887
2
Properties=species:S:1:pos:R:3:forces:R:3 energy=-2.3368577066532517 pbc="F F F"
H        0.00000000       0.00000000       0.00000000       0.00000000       0.00000000      -0.00235841
H        0.00000000       0.00000000       4.11878788       0.00000000       0.00000000       0.00235841
2
Properties=species:S:1:pos:R:3:forces:R:3 energy=-2.3369064902880794 pbc="F F F"
H        0.00000000       0.00000000       0.00000000       0.00000000       0.00000000       0.00086942
H        0.00000000       0.00000000       4.17757576       0.00000000       0.00000000      -0.00086942
2
Properties=species:S:1:pos:R:3:forces:R:3 energy=-2.3367384600153773 pbc="F F F"
H        0.00000000       0.00000000       0.00000000       0.00000000       0.00000000       0.00499448
H        0.00000000       0.00000000       4.23636364       0.00000000       0.00000000      -0.00499448
2
Properties=species:S:1:pos:R:3:forces:R:3 energy=-2.3363117863037344 pbc="F F F"
H        0.00000000       0.00000000       0.00000000       0.00000000       0.00000000       0.00954673
H        0.00000000       0.00000000       4.29515152       0.00000000       0.00000000      -0.00954673
2
Properties=species:S:1:pos:R:3:forces:R:3 energy=-2.3356166043424054 pbc="F F F"
H        0.00000000       0.00000000       0.00000000       0.00000000       0.00000000       0.01402476
H        0.00000000       0.00000000       4.35393939       0.00000000       0.00000000      -0.01402476
2
Properties=species:S:1:pos:R:3:forces:R:3 energy=-2.334672626935184 pbc="F F F"
H        0.00000000       0.00000000       0.00000000       0.00000000       0.00000000       0.01799975
H        0.00000000       0.00000000       4.41272727       0.00000000       0.00000000      -0.01799975
2
Properties=species:S:1:pos:R:3:forces:R:3 energy=-2.3335162734609307 pbc="F F F"
H        0.00000000       0.00000000       0.00000000       0.00000000       0.00000000       0.02118134
H        0.00000000       0.00000000       4.47151515       0.00000000       0.00000000      -0.02118134
2
Properties=species:S:1:pos:R:3:forces:R:3 energy=-2.332200194719321 pbc="F F F"
H        0.00000000       0.00000000       0.00000000       0.00000000       0.00000000       0.02343846
H        0.00000000       0.00000000       4.53030303       0.00000000       0.00000000      -0.02343846
2
Properties=species:S:1:pos:R:3:forces:R:3 energy=-2.3307784892465384 pbc="F F F"
H        0.00000000       0.00000000       0.00000000       0.00000000       0.00000000       0.02478100
H        0.00000000       0.00000000       4.58909091       0.00000000       0.00000000      -0.02478100
2
Properties=species:S:1:pos:R:3:forces:R:3 energy=-2.32930241192934 pbc="F F F"
H        0.00000000       0.00000000       0.00000000       0.00000000       0.00000000       0.02531363
H        0.00000000       0.00000000       4.64787879       0.00000000       0.00000000      -0.02531363
2
Properties=species:S:1:pos:R:3:forces:R:3 energy=-2.3278156064254345 pbc="F F F"
H        0.00000000       0.00000000       0.00000000       0.00000000       0.00000000       0.02517302
H        0.00000000       0.00000000       4.70666667       0.00000000       0.00000000      -0.02517302
2
Properties=species:S:1:pos:R:3:forces:R:3 energy=-2.326354102861856 pbc="F F F"
H        0.00000000       0.00000000       0.00000000       0.00000000       0.00000000       0.02448044
H        0.00000000       0.00000000       4.76545455       0.00000000       0.00000000      -0.02448044
2
Properties=species:S:1:pos:R:3:forces:R:3 energy=-2.3249472718062685 pbc="F F F"
H        0.00000000       0.00000000       0.00000000       0.00000000       0.00000000       0.02331120
H        0.00000000       0.00000000       4.82424242       0.00000000       0.00000000      -0.02331120
2
Properties=species:S:1:pos:R:3:forces:R:3 energy=-2.3236216380980266 pbc="F F F"
H        0.00000000       0.00000000       0.00000000       0.00000000       0.00000000       0.02170184
H        0.00000000       0.00000000       4.88303030       0.00000000       0.00000000      -0.02170184
2
Properties=species:S:1:pos:R:3:forces:R:3 energy=-2.3224027861674243 pbc="F F F"
H        0.00000000       0.00000000       0.00000000       0.00000000       0.00000000       0.01967315
H        0.00000000       0.00000000       4.94181818       0.00000000       0.00000000      -0.01967315
2
Properties=species:S:1:pos:R:3:forces:R:3 energy=-2.321315837046093 pbc="F F F"
H        0.00000000       0.00000000       0.00000000       0.00000000       0.00000000       0.01726731
H        0.00000000       0.00000000       5.00060606       0.00000000       0.00000000      -0.01726731
2
Properties=species:S:1:pos:R:3:forces:R:3 energy=-2.320378295067171 pbc="F F F"
H        0.00000000       0.00000000       0.00000000       0.00000000       0.00000000       0.01456899
H        0.00000000       0.00000000       5.05939394       0.00000000       0.00000000      -0.01456899
2
Properties=species:S:1:pos:R:3:forces:R:3 energy=-2.31960576810455 pbc="F F F"
H        0.00000000       0.00000000       0.00000000       0.00000000       0.00000000       0.01171444
H        0.00000000       0.00000000       5.11818182       0.00000000       0.00000000      -0.01171444
2
Properties=species:S:1:pos:R:3:forces:R:3 energy=-2.319000523159351 pbc="F F F"
H        0.00000000       0.00000000       0.00000000       0.00000000       0.00000000       0.00887625
H        0.00000000       0.00000000       5.17696970       0.00000000       0.00000000      -0.00887625
2
Properties=species:S:1:pos:R:3:forces:R:3 energy=-2.3185576843767763 pbc="F F F"
H        0.00000000       0.00000000       0.00000000       0.00000000       0.00000000       0.00623555
H        0.00000000       0.00000000       5.23575758       0.00000000       0.00000000      -0.00623555
2
Properties=species:S:1:pos:R:3:forces:R:3 energy=-2.318261417655884 pbc="F F F"
H        0.00000000       0.00000000       0.00000000       0.00000000       0.00000000       0.00395042
H        0.00000000       0.00000000       5.29454545       0.00000000       0.00000000      -0.00395042
2
Properties=species:S:1:pos:R:3:forces:R:3 energy=-2.318083499432777 pbc="F F F"
H        0.00000000       0.00000000       0.00000000       0.00000000       0.00000000       0.00212932
H        0.00000000       0.00000000       5.35333333       0.00000000       0.00000000      -0.00212932
2
Properties=species:S:1:pos:R:3:forces:R:3 energy=-2.3180004817417363 pbc="F F F"
H        0.00000000       0.00000000       0.00000000       0.00000000       0.00000000       0.00081641
H        0.00000000       0.00000000       5.41212121       0.00000000       0.00000000      -0.00081641
2
Properties=species:S:1:pos:R:3:forces:R:3 energy=-2.317979387063348 pbc="F F F"
H        0.00000000       0.00000000       0.00000000       0.00000000       0.00000000      -0.00000965
H        0.00000000       0.00000000       5.47090909       0.00000000       0.00000000       0.00000965
2
Properties=species:S:1:pos:R:3:forces:R:3 energy=-2.3179920124864317 pbc="F F F"
H        0.00000000       0.00000000       0.00000000       0.00000000       0.00000000      -0.00042359
H        0.00000000       0.00000000       5.52969697       0.00000000       0.00000000       0.00042359
2
Properties=species:S:1:pos:R:3:forces:R:3 energy=-2.3180225584343566 pbc="F F F"
H        0.00000000       0.00000000       0.00000000       0.00000000       0.00000000      -0.00053257
H        0.00000000       0.00000000       5.58848485       0.00000000       0.00000000       0.00053257
2
Properties=species:S:1:pos:R:3:forces:R:3 energy=-2.3180528468863795 pbc="F F F"
H        0.00000000       0.00000000       0.00000000       0.00000000       0.00000000      -0.00045348
H        0.00000000       0.00000000       5.64727273       0.00000000       0.00000000       0.00045348
2
Properties=species:S:1:pos:R:3:forces:R:3 energy=-2.3180737642567584 pbc="F F F"
H        0.00000000       0.00000000       0.00000000       0.00000000       0.00000000      -0.00029099
H        0.00000000       0.00000000       5.70606061       0.00000000       0.00000000       0.00029099
2
Properties=species:S:1:pos:R:3:forces:R:3 energy=-2.3180866917329865 pbc="F F F"
H        0.00000000       0.00000000       0.00000000       0.00000000       0.00000000      -0.00012301
H        0.00000000       0.00000000       5.76484848       0.00000000       0.00000000       0.00012301
2
Properties=species:S:1:pos:R:3:forces:R:3 energy=-2.3180901539714815 pbc="F F F"
H        0.00000000       0.00000000       0.00000000       0.00000000       0.00000000       0.00000480
H        0.00000000       0.00000000       5.82363636       0.00000000       0.00000000      -0.00000480
2
Properties=species:S:1:pos:R:3:forces:R:3 energy=-2.318086970405153 pbc="F F F"
H        0.00000000       0.00000000       0.00000000       0.00000000       0.00000000       0.00007753
H        0.00000000       0.00000000       5.88242424       0.00000000       0.00000000      -0.00007753
2
Properties=species:S:1:pos:R:3:forces:R:3 energy=-2.318081871366968 pbc="F F F"
H        0.00000000       0.00000000       0.00000000       0.00000000       0.00000000       0.00010243
H        0.00000000       0.00000000       5.94121212       0.00000000       0.00000000      -0.00010243
2
Properties=species:S:1:pos:R:3:forces:R:3 energy=-2.318076252553294 pbc="F F F"
H        0.00000000       0.00000000       0.00000000       0.00000000       0.00000000       0.00010019
H        0.00000000       0.00000000       6.00000000       0.00000000       0.00000000      -0.00010019
