2
Properties=species:S:1:pos:R:3:forces:R:3 energy=37114.384982969925 pbc="F F F"
Hg       0.00000000       0.00000000       0.00000000       0.00000000       0.00000000 -348599.12500000
Hg       0.00000000       0.00000000       0.18000000       0.00000000       0.00000000  348599.12500000
2
Properties=species:S:1:pos:R:3:forces:R:3 energy=19500.78732671993 pbc="F F F"
Hg       0.00000000       0.00000000       0.00000000       0.00000000       0.00000000 -244022.31250000
Hg       0.00000000       0.00000000       0.23878788       0.00000000       0.00000000  244022.31250000
2
Properties=species:S:1:pos:R:3:forces:R:3 energy=8489.476779844927 pbc="F F F"
Hg       0.00000000       0.00000000       0.00000000       0.00000000       0.00000000 -134502.28125000
Hg       0.00000000       0.00000000       0.29757576       0.00000000       0.00000000  134502.28125000
2
Properties=species:S:1:pos:R:3:forces:R:3 energy=2972.086643129345 pbc="F F F"
Hg       0.00000000       0.00000000       0.00000000       0.00000000       0.00000000  -60191.03125000
Hg       0.00000000       0.00000000       0.35636364       0.00000000       0.00000000   60191.03125000
2
Properties=species:S:1:pos:R:3:forces:R:3 energy=727.8974951864616 pbc="F F F"
Hg       0.00000000       0.00000000       0.00000000       0.00000000       0.00000000  -20890.34960938
Hg       0.00000000       0.00000000       0.41515152       0.00000000       0.00000000   20890.34960938
2
Properties=species:S:1:pos:R:3:forces:R:3 energy=68.18406288712112 pbc="F F F"
Hg       0.00000000       0.00000000       0.00000000       0.00000000       0.00000000   -4545.80712891
Hg       0.00000000       0.00000000       0.47393939       0.00000000       0.00000000    4545.80712891
2
Properties=species:S:1:pos:R:3:forces:R:3 energy=2.890870999505832 pbc="F F F"
Hg       0.00000000       0.00000000       0.00000000       0.00000000       0.00000000     -45.07397079
Hg       0.00000000       0.00000000       0.53272727       0.00000000       0.00000000      45.07397079
2
Properties=species:S:1:pos:R:3:forces:R:3 energy=4.198804374391231 pbc="F F F"
Hg       0.00000000       0.00000000       0.00000000       0.00000000       0.00000000     398.49996948
Hg       0.00000000       0.00000000       0.59151515       0.00000000       0.00000000    -398.49996948
2
Properties=species:S:1:pos:R:3:forces:R:3 energy=45.7328873336402 pbc="F F F"
Hg       0.00000000       0.00000000       0.00000000       0.00000000       0.00000000    2405.54931641
Hg       0.00000000       0.00000000       0.65030303       0.00000000       0.00000000   -2405.54931641
2
Properties=species:S:1:pos:R:3:forces:R:3 energy=218.00706880731295 pbc="F F F"
Hg       0.00000000       0.00000000       0.00000000       0.00000000       0.00000000     687.35595703
Hg       0.00000000       0.00000000       0.70909091       0.00000000       0.00000000    -687.35595703
2
Properties=species:S:1:pos:R:3:forces:R:3 energy=211.93954883043816 pbc="F F F"
Hg       0.00000000       0.00000000       0.00000000       0.00000000       0.00000000    -263.01007080
Hg       0.00000000       0.00000000       0.76787879       0.00000000       0.00000000     263.01007080
2
Properties=species:S:1:pos:R:3:forces:R:3 energy=205.46603833217296 pbc="F F F"
Hg       0.00000000       0.00000000       0.00000000       0.00000000       0.00000000      46.67098999
Hg       0.00000000       0.00000000       0.82666667       0.00000000       0.00000000     -46.67098999
2
Properties=species:S:1:pos:R:3:forces:R:3 energy=193.54723070040276 pbc="F F F"
Hg       0.00000000       0.00000000       0.00000000       0.00000000       0.00000000    -254.82844543
Hg       0.00000000       0.00000000       0.88545455       0.00000000       0.00000000     254.82844543
2
Properties=species:S:1:pos:R:3:forces:R:3 energy=171.29373692555205 pbc="F F F"
Hg       0.00000000       0.00000000       0.00000000       0.00000000       0.00000000    -587.23443604
Hg       0.00000000       0.00000000       0.94424242       0.00000000       0.00000000     587.23443604
2
Properties=species:S:1:pos:R:3:forces:R:3 energy=137.9229185085013 pbc="F F F"
Hg       0.00000000       0.00000000       0.00000000       0.00000000       0.00000000    -489.08273315
Hg       0.00000000       0.00000000       1.00303030       0.00000000       0.00000000     489.08273315
2
Properties=species:S:1:pos:R:3:forces:R:3 energy=115.42482676629908 pbc="F F F"
Hg       0.00000000       0.00000000       0.00000000       0.00000000       0.00000000    -316.27920532
Hg       0.00000000       0.00000000       1.06181818       0.00000000       0.00000000     316.27920532
2
Properties=species:S:1:pos:R:3:forces:R:3 energy=99.24560586947355 pbc="F F F"
Hg       0.00000000       0.00000000       0.00000000       0.00000000       0.00000000    -258.39596558
Hg       0.00000000       0.00000000       1.12060606       0.00000000       0.00000000     258.39596558
2
Properties=species:S:1:pos:R:3:forces:R:3 energy=84.43596084377148 pbc="F F F"
Hg       0.00000000       0.00000000       0.00000000       0.00000000       0.00000000    -243.06884766
Hg       0.00000000       0.00000000       1.17939394       0.00000000       0.00000000     243.06884766
2
Properties=species:S:1:pos:R:3:forces:R:3 energy=73.22524664579382 pbc="F F F"
Hg       0.00000000       0.00000000       0.00000000       0.00000000       0.00000000    -158.30570984
Hg       0.00000000       0.00000000       1.23818182       0.00000000       0.00000000     158.30570984
2
Properties=species:S:1:pos:R:3:forces:R:3 energy=64.10542962130164 pbc="F F F"
Hg       0.00000000       0.00000000       0.00000000       0.00000000       0.00000000    -151.94299316
Hg       0.00000000       0.00000000       1.29696970       0.00000000       0.00000000     151.94299316
2
Properties=species:S:1:pos:R:3:forces:R:3 energy=55.620676458781396 pbc="F F F"
Hg       0.00000000       0.00000000       0.00000000       0.00000000       0.00000000    -139.88241577
Hg       0.00000000       0.00000000       1.35575758       0.00000000       0.00000000     139.88241577
2
Properties=species:S:1:pos:R:3:forces:R:3 energy=47.51733282714027 pbc="F F F"
Hg       0.00000000       0.00000000       0.00000000       0.00000000       0.00000000    -134.03947449
Hg       0.00000000       0.00000000       1.41454545       0.00000000       0.00000000     134.03947449
2
Properties=species:S:1:pos:R:3:forces:R:3 energy=40.03162402244667 pbc="F F F"
Hg       0.00000000       0.00000000       0.00000000       0.00000000       0.00000000    -119.16320038
Hg       0.00000000       0.00000000       1.47333333       0.00000000       0.00000000     119.16320038
2
Properties=species:S:1:pos:R:3:forces:R:3 energy=33.35086712296553 pbc="F F F"
Hg       0.00000000       0.00000000       0.00000000       0.00000000       0.00000000    -108.32754517
Hg       0.00000000       0.00000000       1.53212121       0.00000000       0.00000000     108.32754517
2
Properties=species:S:1:pos:R:3:forces:R:3 energy=27.433032019139556 pbc="F F F"
Hg       0.00000000       0.00000000       0.00000000       0.00000000       0.00000000     -93.91274261
Hg       0.00000000       0.00000000       1.59090909       0.00000000       0.00000000      93.91274261
2
Properties=species:S:1:pos:R:3:forces:R:3 energy=22.195210334023436 pbc="F F F"
Hg       0.00000000       0.00000000       0.00000000       0.00000000       0.00000000     -83.33867645
Hg       0.00000000       0.00000000       1.64969697       0.00000000       0.00000000      83.33867645
2
Properties=species:S:1:pos:R:3:forces:R:3 energy=17.656449136168423 pbc="F F F"
Hg       0.00000000       0.00000000       0.00000000       0.00000000       0.00000000     -70.64191437
Hg       0.00000000       0.00000000       1.70848485       0.00000000       0.00000000      70.64191437
2
Properties=species:S:1:pos:R:3:forces:R:3 energy=13.952119953715473 pbc="F F F"
Hg       0.00000000       0.00000000       0.00000000       0.00000000       0.00000000     -55.95021820
Hg       0.00000000       0.00000000       1.76727273       0.00000000       0.00000000      55.95021820
2
Properties=species:S:1:pos:R:3:forces:R:3 energy=10.9641925838615 pbc="F F F"
Hg       0.00000000       0.00000000       0.00000000       0.00000000       0.00000000     -46.26034927
Hg       0.00000000       0.00000000       1.82606061       0.00000000       0.00000000      46.26034927
2
Properties=species:S:1:pos:R:3:forces:R:3 energy=8.542587708082706 pbc="F F F"
Hg       0.00000000       0.00000000       0.00000000       0.00000000       0.00000000     -35.98303986
Hg       0.00000000       0.00000000       1.88484848       0.00000000       0.00000000      35.98303986
2
Properties=species:S:1:pos:R:3:forces:R:3 energy=6.700774989081958 pbc="F F F"
Hg       0.00000000       0.00000000       0.00000000       0.00000000       0.00000000     -27.20520782
Hg       0.00000000       0.00000000       1.94363636       0.00000000       0.00000000      27.20520782
2
Properties=species:S:1:pos:R:3:forces:R:3 energy=5.296481469641024 pbc="F F F"
Hg       0.00000000       0.00000000       0.00000000       0.00000000       0.00000000     -20.89870644
Hg       0.00000000       0.00000000       2.00242424       0.00000000       0.00000000      20.89870644
2
Properties=species:S:1:pos:R:3:forces:R:3 energy=4.2055144714187715 pbc="F F F"
Hg       0.00000000       0.00000000       0.00000000       0.00000000       0.00000000     -16.49765205
Hg       0.00000000       0.00000000       2.06121212       0.00000000       0.00000000      16.49765205
2
Properties=species:S:1:pos:R:3:forces:R:3 energy=3.3372668549714826 pbc="F F F"
Hg       0.00000000       0.00000000       0.00000000       0.00000000       0.00000000     -13.17698097
Hg       0.00000000       0.00000000       2.12000000       0.00000000       0.00000000      13.17698097
2
Properties=species:S:1:pos:R:3:forces:R:3 energy=2.6377792711506505 pbc="F F F"
Hg       0.00000000       0.00000000       0.00000000       0.00000000       0.00000000     -10.73317146
Hg       0.00000000       0.00000000       2.17878788       0.00000000       0.00000000      10.73317146
2
Properties=species:S:1:pos:R:3:forces:R:3 energy=2.069171218412072 pbc="F F F"
Hg       0.00000000       0.00000000       0.00000000       0.00000000       0.00000000      -8.65221024
Hg       0.00000000       0.00000000       2.23757576       0.00000000       0.00000000       8.65221024
2
Properties=species:S:1:pos:R:3:forces:R:3 energy=1.6129997233672486 pbc="F F F"
Hg       0.00000000       0.00000000       0.00000000       0.00000000       0.00000000      -6.93313122
Hg       0.00000000       0.00000000       2.29636364       0.00000000       0.00000000       6.93313122
2
Properties=species:S:1:pos:R:3:forces:R:3 energy=1.2484665511764355 pbc="F F F"
Hg       0.00000000       0.00000000       0.00000000       0.00000000       0.00000000      -5.50721979
Hg       0.00000000       0.00000000       2.35515152       0.00000000       0.00000000       5.50721979
2
Properties=species:S:1:pos:R:3:forces:R:3 energy=0.9596781529005337 pbc="F F F"
Hg       0.00000000       0.00000000       0.00000000       0.00000000       0.00000000      -4.37006235
Hg       0.00000000       0.00000000       2.41393939       0.00000000       0.00000000       4.37006235
2
Properties=species:S:1:pos:R:3:forces:R:3 energy=0.7297747813009234 pbc="F F F"
Hg       0.00000000       0.00000000       0.00000000       0.00000000       0.00000000      -3.48247910
Hg       0.00000000       0.00000000       2.47272727       0.00000000       0.00000000       3.48247910
2
Properties=species:S:1:pos:R:3:forces:R:3 energy=0.5474121227397493 pbc="F F F"
Hg       0.00000000       0.00000000       0.00000000       0.00000000       0.00000000      -2.74012232
Hg       0.00000000       0.00000000       2.53151515       0.00000000       0.00000000       2.74012232
2
Properties=species:S:1:pos:R:3:forces:R:3 energy=0.4056012954218931 pbc="F F F"
Hg       0.00000000       0.00000000       0.00000000       0.00000000       0.00000000      -2.10203862
Hg       0.00000000       0.00000000       2.59030303       0.00000000       0.00000000       2.10203862
2
Properties=species:S:1:pos:R:3:forces:R:3 energy=0.2980017110826292 pbc="F F F"
Hg       0.00000000       0.00000000       0.00000000       0.00000000       0.00000000      -1.57863557
Hg       0.00000000       0.00000000       2.64909091       0.00000000       0.00000000       1.57863557
2
Properties=species:S:1:pos:R:3:forces:R:3 energy=0.21780039082834038 pbc="F F F"
Hg       0.00000000       0.00000000       0.00000000       0.00000000       0.00000000      -1.16584313
Hg       0.00000000       0.00000000       2.70787879       0.00000000       0.00000000       1.16584313
2
Properties=species:S:1:pos:R:3:forces:R:3 energy=0.15930454530397783 pbc="F F F"
Hg       0.00000000       0.00000000       0.00000000       0.00000000       0.00000000      -0.83717734
Hg       0.00000000       0.00000000       2.76666667       0.00000000       0.00000000       0.83717734
2
Properties=species:S:1:pos:R:3:forces:R:3 energy=0.11781321621450813 pbc="F F F"
Hg       0.00000000       0.00000000       0.00000000       0.00000000       0.00000000      -0.58758485
Hg       0.00000000       0.00000000       2.82545455       0.00000000       0.00000000       0.58758485
2
Properties=species:S:1:pos:R:3:forces:R:3 energy=0.08879553777384869 pbc="F F F"
Hg       0.00000000       0.00000000       0.00000000       0.00000000       0.00000000      -0.41007617
Hg       0.00000000       0.00000000       2.88424242       0.00000000       0.00000000       0.41007617
2
Properties=species:S:1:pos:R:3:forces:R:3 energy=0.06858650187997041 pbc="F F F"
Hg       0.00000000       0.00000000       0.00000000       0.00000000       0.00000000      -0.28434643
Hg       0.00000000       0.00000000       2.94303030       0.00000000       0.00000000       0.28434643
2
Properties=species:S:1:pos:R:3:forces:R:3 energy=0.0547103083866335 pbc="F F F"
Hg       0.00000000       0.00000000       0.00000000       0.00000000       0.00000000      -0.19217877
Hg       0.00000000       0.00000000       3.00181818       0.00000000       0.00000000       0.19217877
2
Properties=species:S:1:pos:R:3:forces:R:3 energy=0.045564664597079765 pbc="F F F"
Hg       0.00000000       0.00000000       0.00000000       0.00000000       0.00000000      -0.12191829
Hg       0.00000000       0.00000000       3.06060606       0.00000000       0.00000000       0.12191829
2
Properties=species:S:1:pos:R:3:forces:R:3 energy=0.04008505990031588 pbc="F F F"
Hg       0.00000000       0.00000000       0.00000000       0.00000000       0.00000000      -0.06659508
Hg       0.00000000       0.00000000       3.11939394       0.00000000       0.00000000       0.06659508
2
Properties=species:S:1:pos:R:3:forces:R:3 energy=0.03751715610105273 pbc="F F F"
Hg       0.00000000       0.00000000       0.00000000       0.00000000       0.00000000      -0.02244585
Hg       0.00000000       0.00000000       3.17818182       0.00000000       0.00000000       0.02244585
2
Properties=species:S:1:pos:R:3:forces:R:3 energy=0.03726363736901088 pbc="F F F"
Hg       0.00000000       0.00000000       0.00000000       0.00000000       0.00000000       0.01239088
Hg       0.00000000       0.00000000       3.23696970       0.00000000       0.00000000      -0.01239088
2
Properties=species:S:1:pos:R:3:forces:R:3 energy=0.03881556675329289 pbc="F F F"
Hg       0.00000000       0.00000000       0.00000000       0.00000000       0.00000000       0.03914726
Hg       0.00000000       0.00000000       3.29575758       0.00000000       0.00000000      -0.03914726
2
Properties=species:S:1:pos:R:3:forces:R:3 energy=0.04173057826872446 pbc="F F F"
Hg       0.00000000       0.00000000       0.00000000       0.00000000       0.00000000       0.05896816
Hg       0.00000000       0.00000000       3.35454545       0.00000000       0.00000000      -0.05896816
2
Properties=species:S:1:pos:R:3:forces:R:3 energy=0.04563854481515246 pbc="F F F"
Hg       0.00000000       0.00000000       0.00000000       0.00000000       0.00000000       0.07318521
Hg       0.00000000       0.00000000       3.41333333       0.00000000       0.00000000      -0.07318521
2
Properties=species:S:1:pos:R:3:forces:R:3 energy=0.05025830547900682 pbc="F F F"
Hg       0.00000000       0.00000000       0.00000000       0.00000000       0.00000000       0.08347481
Hg       0.00000000       0.00000000       3.47212121       0.00000000       0.00000000      -0.08347481
2
Properties=species:S:1:pos:R:3:forces:R:3 energy=0.055409957753180715 pbc="F F F"
Hg       0.00000000       0.00000000       0.00000000       0.00000000       0.00000000       0.09152970
Hg       0.00000000       0.00000000       3.53090909       0.00000000       0.00000000      -0.09152970
2
Properties=species:S:1:pos:R:3:forces:R:3 energy=0.060997334466289535 pbc="F F F"
Hg       0.00000000       0.00000000       0.00000000       0.00000000       0.00000000       0.09839267
Hg       0.00000000       0.00000000       3.58969697       0.00000000       0.00000000      -0.09839267
2
Properties=species:S:1:pos:R:3:forces:R:3 energy=0.06695771259685447 pbc="F F F"
Hg       0.00000000       0.00000000       0.00000000       0.00000000       0.00000000       0.10416345
Hg       0.00000000       0.00000000       3.64848485       0.00000000       0.00000000      -0.10416345
2
Properties=species:S:1:pos:R:3:forces:R:3 energy=0.07321324522288461 pbc="F F F"
Hg       0.00000000       0.00000000       0.00000000       0.00000000       0.00000000       0.10835006
Hg       0.00000000       0.00000000       3.70727273       0.00000000       0.00000000      -0.10835006
2
Properties=species:S:1:pos:R:3:forces:R:3 energy=0.0796559698216428 pbc="F F F"
Hg       0.00000000       0.00000000       0.00000000       0.00000000       0.00000000       0.11046444
Hg       0.00000000       0.00000000       3.76606061       0.00000000       0.00000000      -0.11046444
2
Properties=species:S:1:pos:R:3:forces:R:3 energy=0.08615799716004591 pbc="F F F"
Hg       0.00000000       0.00000000       0.00000000       0.00000000       0.00000000       0.11038238
Hg       0.00000000       0.00000000       3.82484848       0.00000000       0.00000000      -0.11038238
2
Properties=species:S:1:pos:R:3:forces:R:3 energy=0.09259544960313364 pbc="F F F"
Hg       0.00000000       0.00000000       0.00000000       0.00000000       0.00000000       0.10832502
Hg       0.00000000       0.00000000       3.88363636       0.00000000       0.00000000      -0.10832502
2
Properties=species:S:1:pos:R:3:forces:R:3 energy=0.09886266802632787 pbc="F F F"
Hg       0.00000000       0.00000000       0.00000000       0.00000000       0.00000000       0.10464604
Hg       0.00000000       0.00000000       3.94242424       0.00000000       0.00000000      -0.10464604
2
Properties=species:S:1:pos:R:3:forces:R:3 energy=0.10487404113646392 pbc="F F F"
Hg       0.00000000       0.00000000       0.00000000       0.00000000       0.00000000       0.09967636
Hg       0.00000000       0.00000000       4.00121212       0.00000000       0.00000000      -0.09967636
2
Properties=species:S:1:pos:R:3:forces:R:3 energy=0.11056296685025221 pbc="F F F"
Hg       0.00000000       0.00000000       0.00000000       0.00000000       0.00000000       0.09372331
Hg       0.00000000       0.00000000       4.06000000       0.00000000       0.00000000      -0.09372331
2
Properties=species:S:1:pos:R:3:forces:R:3 energy=0.11588112178340619 pbc="F F F"
Hg       0.00000000       0.00000000       0.00000000       0.00000000       0.00000000       0.08712764
Hg       0.00000000       0.00000000       4.11878788       0.00000000       0.00000000      -0.08712764
2
Properties=species:S:1:pos:R:3:forces:R:3 energy=0.12080162980028189 pbc="F F F"
Hg       0.00000000       0.00000000       0.00000000       0.00000000       0.00000000       0.08025837
Hg       0.00000000       0.00000000       4.17757576       0.00000000       0.00000000      -0.08025837
2
Properties=species:S:1:pos:R:3:forces:R:3 energy=0.12531863644585015 pbc="F F F"
Hg       0.00000000       0.00000000       0.00000000       0.00000000       0.00000000       0.07344659
Hg       0.00000000       0.00000000       4.23636364       0.00000000       0.00000000      -0.07344659
2
Properties=species:S:1:pos:R:3:forces:R:3 energy=0.12944329384371764 pbc="F F F"
Hg       0.00000000       0.00000000       0.00000000       0.00000000       0.00000000       0.06693459
Hg       0.00000000       0.00000000       4.29515152       0.00000000       0.00000000      -0.06693459
2
Properties=species:S:1:pos:R:3:forces:R:3 energy=0.13319768419018196 pbc="F F F"
Hg       0.00000000       0.00000000       0.00000000       0.00000000       0.00000000       0.06087943
Hg       0.00000000       0.00000000       4.35393939       0.00000000       0.00000000      -0.06087943
2
Properties=species:S:1:pos:R:3:forces:R:3 energy=0.13661188245560887 pbc="F F F"
Hg       0.00000000       0.00000000       0.00000000       0.00000000       0.00000000       0.05538256
Hg       0.00000000       0.00000000       4.41272727       0.00000000       0.00000000      -0.05538256
2
Properties=species:S:1:pos:R:3:forces:R:3 energy=0.13972141397555088 pbc="F F F"
Hg       0.00000000       0.00000000       0.00000000       0.00000000       0.00000000       0.05050747
Hg       0.00000000       0.00000000       4.47151515       0.00000000       0.00000000      -0.05050747
2
Properties=species:S:1:pos:R:3:forces:R:3 energy=0.14256316865674606 pbc="F F F"
Hg       0.00000000       0.00000000       0.00000000       0.00000000       0.00000000       0.04627323
Hg       0.00000000       0.00000000       4.53030303       0.00000000       0.00000000      -0.04627323
2
Properties=species:S:1:pos:R:3:forces:R:3 energy=0.14517393161985961 pbc="F F F"
Hg       0.00000000       0.00000000       0.00000000       0.00000000       0.00000000       0.04264437
Hg       0.00000000       0.00000000       4.58909091       0.00000000       0.00000000      -0.04264437
2
Properties=species:S:1:pos:R:3:forces:R:3 energy=0.1475871613808439 pbc="F F F"
Hg       0.00000000       0.00000000       0.00000000       0.00000000       0.00000000       0.03953643
Hg       0.00000000       0.00000000       4.64787879       0.00000000       0.00000000      -0.03953643
2
Properties=species:S:1:pos:R:3:forces:R:3 energy=0.14983043535474447 pbc="F F F"
Hg       0.00000000       0.00000000       0.00000000       0.00000000       0.00000000       0.03683915
Hg       0.00000000       0.00000000       4.70666667       0.00000000       0.00000000      -0.03683915
2
Properties=species:S:1:pos:R:3:forces:R:3 energy=0.15192471200924867 pbc="F F F"
Hg       0.00000000       0.00000000       0.00000000       0.00000000       0.00000000       0.03445058
Hg       0.00000000       0.00000000       4.76545455       0.00000000       0.00000000      -0.03445058
2
Properties=species:S:1:pos:R:3:forces:R:3 energy=0.15388570493933776 pbc="F F F"
Hg       0.00000000       0.00000000       0.00000000       0.00000000       0.00000000       0.03230115
Hg       0.00000000       0.00000000       4.82424242       0.00000000       0.00000000      -0.03230115
2
Properties=species:S:1:pos:R:3:forces:R:3 energy=0.1557265355659673 pbc="F F F"
Hg       0.00000000       0.00000000       0.00000000       0.00000000       0.00000000       0.03035991
Hg       0.00000000       0.00000000       4.88303030       0.00000000       0.00000000      -0.03035991
2
Properties=species:S:1:pos:R:3:forces:R:3 energy=0.15745921433269616 pbc="F F F"
Hg       0.00000000       0.00000000       0.00000000       0.00000000       0.00000000       0.02861995
Hg       0.00000000       0.00000000       4.94181818       0.00000000       0.00000000      -0.02861995
2
Properties=species:S:1:pos:R:3:forces:R:3 energy=0.15909544824422522 pbc="F F F"
Hg       0.00000000       0.00000000       0.00000000       0.00000000       0.00000000       0.02707537
Hg       0.00000000       0.00000000       5.00060606       0.00000000       0.00000000      -0.02707537
2
Properties=species:S:1:pos:R:3:forces:R:3 energy=0.16064596145663862 pbc="F F F"
Hg       0.00000000       0.00000000       0.00000000       0.00000000       0.00000000       0.02569957
Hg       0.00000000       0.00000000       5.05939394       0.00000000       0.00000000      -0.02569957
2
Properties=species:S:1:pos:R:3:forces:R:3 energy=0.16211933011099644 pbc="F F F"
Hg       0.00000000       0.00000000       0.00000000       0.00000000       0.00000000       0.02443835
Hg       0.00000000       0.00000000       5.11818182       0.00000000       0.00000000      -0.02443835
2
Properties=species:S:1:pos:R:3:forces:R:3 energy=0.1635200870720147 pbc="F F F"
Hg       0.00000000       0.00000000       0.00000000       0.00000000       0.00000000       0.02321732
Hg       0.00000000       0.00000000       5.17696970       0.00000000       0.00000000      -0.02321732
2
Properties=species:S:1:pos:R:3:forces:R:3 energy=0.16484827143341915 pbc="F F F"
Hg       0.00000000       0.00000000       0.00000000       0.00000000       0.00000000       0.02196088
Hg       0.00000000       0.00000000       5.23575758       0.00000000       0.00000000      -0.02196088
2
Properties=species:S:1:pos:R:3:forces:R:3 energy=0.1661003584335956 pbc="F F F"
Hg       0.00000000       0.00000000       0.00000000       0.00000000       0.00000000       0.02061121
Hg       0.00000000       0.00000000       5.29454545       0.00000000       0.00000000      -0.02061121
2
Properties=species:S:1:pos:R:3:forces:R:3 energy=0.1672693295636363 pbc="F F F"
Hg       0.00000000       0.00000000       0.00000000       0.00000000       0.00000000       0.01914112
Hg       0.00000000       0.00000000       5.35333333       0.00000000       0.00000000      -0.01914112
2
Properties=species:S:1:pos:R:3:forces:R:3 energy=0.1683486017221617 pbc="F F F"
Hg       0.00000000       0.00000000       0.00000000       0.00000000       0.00000000       0.01755857
Hg       0.00000000       0.00000000       5.41212121       0.00000000       0.00000000      -0.01755857
2
Properties=species:S:1:pos:R:3:forces:R:3 energy=0.16933249634090303 pbc="F F F"
Hg       0.00000000       0.00000000       0.00000000       0.00000000       0.00000000       0.01590156
Hg       0.00000000       0.00000000       5.47090909       0.00000000       0.00000000      -0.01590156
2
Properties=species:S:1:pos:R:3:forces:R:3 energy=0.17021789643542273 pbc="F F F"
Hg       0.00000000       0.00000000       0.00000000       0.00000000       0.00000000       0.01422735
Hg       0.00000000       0.00000000       5.52969697       0.00000000       0.00000000      -0.01422735
2
Properties=species:S:1:pos:R:3:forces:R:3 energy=0.1710059339581251 pbc="F F F"
Hg       0.00000000       0.00000000       0.00000000       0.00000000       0.00000000       0.01260301
Hg       0.00000000       0.00000000       5.58848485       0.00000000       0.00000000      -0.01260301
2
Properties=species:S:1:pos:R:3:forces:R:3 energy=0.1717019565361238 pbc="F F F"
Hg       0.00000000       0.00000000       0.00000000       0.00000000       0.00000000       0.01109469
Hg       0.00000000       0.00000000       5.64727273       0.00000000       0.00000000      -0.01109469
2
Properties=species:S:1:pos:R:3:forces:R:3 energy=0.17231414785290103 pbc="F F F"
Hg       0.00000000       0.00000000       0.00000000       0.00000000       0.00000000       0.00975915
Hg       0.00000000       0.00000000       5.70606061       0.00000000       0.00000000      -0.00975915
2
Properties=species:S:1:pos:R:3:forces:R:3 energy=0.17285361913915331 pbc="F F F"
Hg       0.00000000       0.00000000       0.00000000       0.00000000       0.00000000       0.00863579
Hg       0.00000000       0.00000000       5.76484848       0.00000000       0.00000000      -0.00863579
2
Properties=species:S:1:pos:R:3:forces:R:3 energy=0.17333388006656786 pbc="F F F"
Hg       0.00000000       0.00000000       0.00000000       0.00000000       0.00000000       0.00774257
Hg       0.00000000       0.00000000       5.82363636       0.00000000       0.00000000      -0.00774257
2
Properties=species:S:1:pos:R:3:forces:R:3 energy=0.17376831059414088 pbc="F F F"
Hg       0.00000000       0.00000000       0.00000000       0.00000000       0.00000000       0.00706720
Hg       0.00000000       0.00000000       5.88242424       0.00000000       0.00000000      -0.00706720
2
Properties=species:S:1:pos:R:3:forces:R:3 energy=0.1741682633309906 pbc="F F F"
Hg       0.00000000       0.00000000       0.00000000       0.00000000       0.00000000       0.00656815
Hg       0.00000000       0.00000000       5.94121212       0.00000000       0.00000000      -0.00656815
2
Properties=species:S:1:pos:R:3:forces:R:3 energy=0.17454258036355497 pbc="F F F"
Hg       0.00000000       0.00000000       0.00000000       0.00000000       0.00000000       0.00617705
Hg       0.00000000       0.00000000       6.00000000       0.00000000       0.00000000      -0.00617705
