2
Properties=species:S:1:pos:R:3:forces:R:3 energy=50432211.88580319 pbc="F F F"
Ho       0.00000000       0.00000000       0.00000000       0.00000000       0.00000000 -471921888.00000000
Ho       0.00000000       0.00000000       0.18000000       0.00000000       0.00000000 471921888.00000000
2
Properties=species:S:1:pos:R:3:forces:R:3 energy=26440663.885803193 pbc="F F F"
Ho       0.00000000       0.00000000       0.00000000       0.00000000       0.00000000 -333649920.00000000
Ho       0.00000000       0.00000000       0.23878788       0.00000000       0.00000000 333649920.00000000
2
Properties=species:S:1:pos:R:3:forces:R:3 energy=11432741.885803193 pbc="F F F"
Ho       0.00000000       0.00000000       0.00000000       0.00000000       0.00000000 -181832160.00000000
Ho       0.00000000       0.00000000       0.29757576       0.00000000       0.00000000 181832160.00000000
2
Properties=species:S:1:pos:R:3:forces:R:3 energy=4098574.635803192 pbc="F F F"
Ho       0.00000000       0.00000000       0.00000000       0.00000000       0.00000000 -77018520.00000000
Ho       0.00000000       0.00000000       0.35636364       0.00000000       0.00000000 77018520.00000000
2
Properties=species:S:1:pos:R:3:forces:R:3 energy=1258201.6358032047 pbc="F F F"
Ho       0.00000000       0.00000000       0.00000000       0.00000000       0.00000000 -27177604.00000000
Ho       0.00000000       0.00000000       0.41515152       0.00000000       0.00000000 27177604.00000000
2
Properties=species:S:1:pos:R:3:forces:R:3 energy=321319.3233032047 pbc="F F F"
Ho       0.00000000       0.00000000       0.00000000       0.00000000       0.00000000 -8082320.50000000
Ho       0.00000000       0.00000000       0.47393939       0.00000000       0.00000000 8082320.50000000
2
Properties=species:S:1:pos:R:3:forces:R:3 energy=67893.1279907174 pbc="F F F"
Ho       0.00000000       0.00000000       0.00000000       0.00000000       0.00000000 -1872392.62500000
Ho       0.00000000       0.00000000       0.53272727       0.00000000       0.00000000 1872392.62500000
2
Properties=species:S:1:pos:R:3:forces:R:3 energy=12251.244201680245 pbc="F F F"
Ho       0.00000000       0.00000000       0.00000000       0.00000000       0.00000000 -383301.65625000
Ho       0.00000000       0.00000000       0.59151515       0.00000000       0.00000000  383301.65625000
2
Properties=species:S:1:pos:R:3:forces:R:3 energy=1951.9287720434302 pbc="F F F"
Ho       0.00000000       0.00000000       0.00000000       0.00000000       0.00000000  -55975.77734375
Ho       0.00000000       0.00000000       0.65030303       0.00000000       0.00000000   55975.77734375
2
Properties=species:S:1:pos:R:3:forces:R:3 energy=521.7257081419427 pbc="F F F"
Ho       0.00000000       0.00000000       0.00000000       0.00000000       0.00000000   -8847.75781250
Ho       0.00000000       0.00000000       0.70909091       0.00000000       0.00000000    8847.75781250
2
Properties=species:S:1:pos:R:3:forces:R:3 energy=178.4314119786646 pbc="F F F"
Ho       0.00000000       0.00000000       0.00000000       0.00000000       0.00000000   -3423.34985352
Ho       0.00000000       0.00000000       0.76787879       0.00000000       0.00000000    3423.34985352
2
Properties=species:S:1:pos:R:3:forces:R:3 energy=38.148445529621846 pbc="F F F"
Ho       0.00000000       0.00000000       0.00000000       0.00000000       0.00000000   -1311.32495117
Ho       0.00000000       0.00000000       0.82666667       0.00000000       0.00000000    1311.32495117
2
Properties=species:S:1:pos:R:3:forces:R:3 energy=-3.8795321857153695 pbc="F F F"
Ho       0.00000000       0.00000000       0.00000000       0.00000000       0.00000000    -199.51559448
Ho       0.00000000       0.00000000       0.88545455       0.00000000       0.00000000     199.51559448
2
Properties=species:S:1:pos:R:3:forces:R:3 energy=-7.081709870336963 pbc="F F F"
Ho       0.00000000       0.00000000       0.00000000       0.00000000       0.00000000      60.68368912
Ho       0.00000000       0.00000000       0.94424242       0.00000000       0.00000000     -60.68368912
2
Properties=species:S:1:pos:R:3:forces:R:3 energy=-5.277708585020964 pbc="F F F"
Ho       0.00000000       0.00000000       0.00000000       0.00000000       0.00000000      -5.90210629
Ho       0.00000000       0.00000000       1.00303030       0.00000000       0.00000000       5.90210629
2
Properties=species:S:1:pos:R:3:forces:R:3 energy=-5.841744371465419 pbc="F F F"
Ho       0.00000000       0.00000000       0.00000000       0.00000000       0.00000000      20.78731728
Ho       0.00000000       0.00000000       1.06181818       0.00000000       0.00000000     -20.78731728
2
Properties=species:S:1:pos:R:3:forces:R:3 energy=-6.106867906829413 pbc="F F F"
Ho       0.00000000       0.00000000       0.00000000       0.00000000       0.00000000     -18.88350677
Ho       0.00000000       0.00000000       1.12060606       0.00000000       0.00000000      18.88350677
2
Properties=species:S:1:pos:R:3:forces:R:3 energy=-4.182080325438337 pbc="F F F"
Ho       0.00000000       0.00000000       0.00000000       0.00000000       0.00000000     118.19289398
Ho       0.00000000       0.00000000       1.17939394       0.00000000       0.00000000    -118.19289398
2
Properties=species:S:1:pos:R:3:forces:R:3 energy=1.8220475538140548 pbc="F F F"
Ho       0.00000000       0.00000000       0.00000000       0.00000000       0.00000000      91.84716034
Ho       0.00000000       0.00000000       1.23818182       0.00000000       0.00000000     -91.84716034
2
Properties=species:S:1:pos:R:3:forces:R:3 energy=5.3859931020104765 pbc="F F F"
Ho       0.00000000       0.00000000       0.00000000       0.00000000       0.00000000      35.86549759
Ho       0.00000000       0.00000000       1.29696970       0.00000000       0.00000000     -35.86549759
2
Properties=species:S:1:pos:R:3:forces:R:3 energy=6.9318135596443815 pbc="F F F"
Ho       0.00000000       0.00000000       0.00000000       0.00000000       0.00000000      22.48143959
Ho       0.00000000       0.00000000       1.35575758       0.00000000       0.00000000     -22.48143959
2
Properties=species:S:1:pos:R:3:forces:R:3 energy=8.066238548203657 pbc="F F F"
Ho       0.00000000       0.00000000       0.00000000       0.00000000       0.00000000      16.24692917
Ho       0.00000000       0.00000000       1.41454545       0.00000000       0.00000000     -16.24692917
2
Properties=species:S:1:pos:R:3:forces:R:3 energy=8.93436587625998 pbc="F F F"
Ho       0.00000000       0.00000000       0.00000000       0.00000000       0.00000000      15.17782688
Ho       0.00000000       0.00000000       1.47333333       0.00000000       0.00000000     -15.17782688
2
Properties=species:S:1:pos:R:3:forces:R:3 energy=10.014758991913343 pbc="F F F"
Ho       0.00000000       0.00000000       0.00000000       0.00000000       0.00000000      19.74735260
Ho       0.00000000       0.00000000       1.53212121       0.00000000       0.00000000     -19.74735260
2
Properties=species:S:1:pos:R:3:forces:R:3 energy=11.003472493166086 pbc="F F F"
Ho       0.00000000       0.00000000       0.00000000       0.00000000       0.00000000      12.89303207
Ho       0.00000000       0.00000000       1.59090909       0.00000000       0.00000000     -12.89303207
2
Properties=species:S:1:pos:R:3:forces:R:3 energy=11.536092316985783 pbc="F F F"
Ho       0.00000000       0.00000000       0.00000000       0.00000000       0.00000000       5.29214239
Ho       0.00000000       0.00000000       1.64969697       0.00000000       0.00000000      -5.29214239
2
Properties=species:S:1:pos:R:3:forces:R:3 energy=11.532183866918713 pbc="F F F"
Ho       0.00000000       0.00000000       0.00000000       0.00000000       0.00000000      -6.03768253
Ho       0.00000000       0.00000000       1.70848485       0.00000000       0.00000000       6.03768253
2
Properties=species:S:1:pos:R:3:forces:R:3 energy=10.891266299709011 pbc="F F F"
Ho       0.00000000       0.00000000       0.00000000       0.00000000       0.00000000     -14.91752625
Ho       0.00000000       0.00000000       1.76727273       0.00000000       0.00000000      14.91752625
2
Properties=species:S:1:pos:R:3:forces:R:3 energy=9.807740656135966 pbc="F F F"
Ho       0.00000000       0.00000000       0.00000000       0.00000000       0.00000000     -21.90141487
Ho       0.00000000       0.00000000       1.82606061       0.00000000       0.00000000      21.90141487
2
Properties=species:S:1:pos:R:3:forces:R:3 energy=8.435856368238237 pbc="F F F"
Ho       0.00000000       0.00000000       0.00000000       0.00000000       0.00000000     -24.09149742
Ho       0.00000000       0.00000000       1.88484848       0.00000000       0.00000000      24.09149742
2
Properties=species:S:1:pos:R:3:forces:R:3 energy=7.014797166030073 pbc="F F F"
Ho       0.00000000       0.00000000       0.00000000       0.00000000       0.00000000     -23.87457275
Ho       0.00000000       0.00000000       1.94363636       0.00000000       0.00000000      23.87457275
2
Properties=species:S:1:pos:R:3:forces:R:3 energy=5.668634512852087 pbc="F F F"
Ho       0.00000000       0.00000000       0.00000000       0.00000000       0.00000000     -21.74415779
Ho       0.00000000       0.00000000       2.00242424       0.00000000       0.00000000      21.74415779
2
Properties=species:S:1:pos:R:3:forces:R:3 energy=4.459264133983756 pbc="F F F"
Ho       0.00000000       0.00000000       0.00000000       0.00000000       0.00000000     -19.42149353
Ho       0.00000000       0.00000000       2.06121212       0.00000000       0.00000000      19.42149353
2
Properties=species:S:1:pos:R:3:forces:R:3 energy=3.3949586059268237 pbc="F F F"
Ho       0.00000000       0.00000000       0.00000000       0.00000000       0.00000000     -16.68296432
Ho       0.00000000       0.00000000       2.12000000       0.00000000       0.00000000      16.68296432
2
Properties=species:S:1:pos:R:3:forces:R:3 energy=2.493178266903734 pbc="F F F"
Ho       0.00000000       0.00000000       0.00000000       0.00000000       0.00000000     -14.14589787
Ho       0.00000000       0.00000000       2.17878788       0.00000000       0.00000000      14.14589787
2
Properties=species:S:1:pos:R:3:forces:R:3 energy=1.7217065980091941 pbc="F F F"
Ho       0.00000000       0.00000000       0.00000000       0.00000000       0.00000000     -12.11123276
Ho       0.00000000       0.00000000       2.23757576       0.00000000       0.00000000      12.11123276
2
Properties=species:S:1:pos:R:3:forces:R:3 energy=1.0657087484287322 pbc="F F F"
Ho       0.00000000       0.00000000       0.00000000       0.00000000       0.00000000     -10.24089909
Ho       0.00000000       0.00000000       2.29636364       0.00000000       0.00000000      10.24089909
2
Properties=species:S:1:pos:R:3:forces:R:3 energy=0.5154416865786325 pbc="F F F"
Ho       0.00000000       0.00000000       0.00000000       0.00000000       0.00000000      -8.51266289
Ho       0.00000000       0.00000000       2.35515152       0.00000000       0.00000000       8.51266289
2
Properties=species:S:1:pos:R:3:forces:R:3 energy=0.05726566761834313 pbc="F F F"
Ho       0.00000000       0.00000000       0.00000000       0.00000000       0.00000000      -7.14313745
Ho       0.00000000       0.00000000       2.41393939       0.00000000       0.00000000       7.14313745
2
Properties=species:S:1:pos:R:3:forces:R:3 energy=-0.3306520440023567 pbc="F F F"
Ho       0.00000000       0.00000000       0.00000000       0.00000000       0.00000000      -6.09624386
Ho       0.00000000       0.00000000       2.47272727       0.00000000       0.00000000       6.09624386
2
Properties=species:S:1:pos:R:3:forces:R:3 energy=-0.6628531536154331 pbc="F F F"
Ho       0.00000000       0.00000000       0.00000000       0.00000000       0.00000000      -5.22396231
Ho       0.00000000       0.00000000       2.53151515       0.00000000       0.00000000       5.22396231
2
Properties=species:S:1:pos:R:3:forces:R:3 energy=-0.9479046729882984 pbc="F F F"
Ho       0.00000000       0.00000000       0.00000000       0.00000000       0.00000000      -4.50865746
Ho       0.00000000       0.00000000       2.59030303       0.00000000       0.00000000       4.50865746
2
Properties=species:S:1:pos:R:3:forces:R:3 energy=-1.1967690663731374 pbc="F F F"
Ho       0.00000000       0.00000000       0.00000000       0.00000000       0.00000000      -3.98073125
Ho       0.00000000       0.00000000       2.64909091       0.00000000       0.00000000       3.98073125
2
Properties=species:S:1:pos:R:3:forces:R:3 energy=-1.4172292098373704 pbc="F F F"
Ho       0.00000000       0.00000000       0.00000000       0.00000000       0.00000000      -3.52063298
Ho       0.00000000       0.00000000       2.70787879       0.00000000       0.00000000       3.52063298
2
Properties=species:S:1:pos:R:3:forces:R:3 energy=-1.610354951893637 pbc="F F F"
Ho       0.00000000       0.00000000       0.00000000       0.00000000       0.00000000      -3.04613614
Ho       0.00000000       0.00000000       2.76666667       0.00000000       0.00000000       3.04613614
2
Properties=species:S:1:pos:R:3:forces:R:3 energy=-1.775346901380555 pbc="F F F"
Ho       0.00000000       0.00000000       0.00000000       0.00000000       0.00000000      -2.57046270
Ho       0.00000000       0.00000000       2.82545455       0.00000000       0.00000000       2.57046270
2
Properties=species:S:1:pos:R:3:forces:R:3 energy=-1.9133329162173127 pbc="F F F"
Ho       0.00000000       0.00000000       0.00000000       0.00000000       0.00000000      -2.13250637
Ho       0.00000000       0.00000000       2.88424242       0.00000000       0.00000000       2.13250637
2
Properties=species:S:1:pos:R:3:forces:R:3 energy=-2.02718693062613 pbc="F F F"
Ho       0.00000000       0.00000000       0.00000000       0.00000000       0.00000000      -1.75014901
Ho       0.00000000       0.00000000       2.94303030       0.00000000       0.00000000       1.75014901
2
Properties=species:S:1:pos:R:3:forces:R:3 energy=-2.120060322027569 pbc="F F F"
Ho       0.00000000       0.00000000       0.00000000       0.00000000       0.00000000      -1.41617441
Ho       0.00000000       0.00000000       3.00181818       0.00000000       0.00000000       1.41617441
2
Properties=species:S:1:pos:R:3:forces:R:3 energy=-2.194400592840242 pbc="F F F"
Ho       0.00000000       0.00000000       0.00000000       0.00000000       0.00000000      -1.11886442
Ho       0.00000000       0.00000000       3.06060606       0.00000000       0.00000000       1.11886442
2
Properties=species:S:1:pos:R:3:forces:R:3 energy=-2.25240135270269 pbc="F F F"
Ho       0.00000000       0.00000000       0.00000000       0.00000000       0.00000000      -0.86193919
Ho       0.00000000       0.00000000       3.11939394       0.00000000       0.00000000       0.86193919
2
Properties=species:S:1:pos:R:3:forces:R:3 energy=-2.296691074070447 pbc="F F F"
Ho       0.00000000       0.00000000       0.00000000       0.00000000       0.00000000      -0.65294307
Ho       0.00000000       0.00000000       3.17818182       0.00000000       0.00000000       0.65294307
2
Properties=species:S:1:pos:R:3:forces:R:3 energy=-2.330047816882549 pbc="F F F"
Ho       0.00000000       0.00000000       0.00000000       0.00000000       0.00000000      -0.48843169
Ho       0.00000000       0.00000000       3.23696970       0.00000000       0.00000000       0.48843169
2
Properties=species:S:1:pos:R:3:forces:R:3 energy=-2.3547621741181732 pbc="F F F"
Ho       0.00000000       0.00000000       0.00000000       0.00000000       0.00000000      -0.35688224
Ho       0.00000000       0.00000000       3.29575758       0.00000000       0.00000000       0.35688224
2
Properties=species:S:1:pos:R:3:forces:R:3 energy=-2.3724399118982973 pbc="F F F"
Ho       0.00000000       0.00000000       0.00000000       0.00000000       0.00000000      -0.24756566
Ho       0.00000000       0.00000000       3.35454545       0.00000000       0.00000000       0.24756566
2
Properties=species:S:1:pos:R:3:forces:R:3 energy=-2.384202190406989 pbc="F F F"
Ho       0.00000000       0.00000000       0.00000000       0.00000000       0.00000000      -0.15510802
Ho       0.00000000       0.00000000       3.41333333       0.00000000       0.00000000       0.15510802
2
Properties=species:S:1:pos:R:3:forces:R:3 energy=-2.3909384016268542 pbc="F F F"
Ho       0.00000000       0.00000000       0.00000000       0.00000000       0.00000000      -0.07599843
Ho       0.00000000       0.00000000       3.47212121       0.00000000       0.00000000       0.07599843
2
Properties=species:S:1:pos:R:3:forces:R:3 energy=-2.393298400560327 pbc="F F F"
Ho       0.00000000       0.00000000       0.00000000       0.00000000       0.00000000      -0.00514018
Ho       0.00000000       0.00000000       3.53090909       0.00000000       0.00000000       0.00514018
2
Properties=species:S:1:pos:R:3:forces:R:3 energy=-2.391613514988163 pbc="F F F"
Ho       0.00000000       0.00000000       0.00000000       0.00000000       0.00000000       0.06207823
Ho       0.00000000       0.00000000       3.58969697       0.00000000       0.00000000      -0.06207823
2
Properties=species:S:1:pos:R:3:forces:R:3 energy=-2.386038554243563 pbc="F F F"
Ho       0.00000000       0.00000000       0.00000000       0.00000000       0.00000000       0.12726995
Ho       0.00000000       0.00000000       3.64848485       0.00000000       0.00000000      -0.12726995
2
Properties=species:S:1:pos:R:3:forces:R:3 energy=-2.376704447787951 pbc="F F F"
Ho       0.00000000       0.00000000       0.00000000       0.00000000       0.00000000       0.18963856
Ho       0.00000000       0.00000000       3.70727273       0.00000000       0.00000000      -0.18963856
2
Properties=species:S:1:pos:R:3:forces:R:3 energy=-2.36382120402328 pbc="F F F"
Ho       0.00000000       0.00000000       0.00000000       0.00000000       0.00000000       0.24783756
Ho       0.00000000       0.00000000       3.76606061       0.00000000       0.00000000      -0.24783756
2
Properties=species:S:1:pos:R:3:forces:R:3 energy=-2.347663655862444 pbc="F F F"
Ho       0.00000000       0.00000000       0.00000000       0.00000000       0.00000000       0.30095384
Ho       0.00000000       0.00000000       3.82484848       0.00000000       0.00000000      -0.30095384
2
Properties=species:S:1:pos:R:3:forces:R:3 energy=-2.328545762207886 pbc="F F F"
Ho       0.00000000       0.00000000       0.00000000       0.00000000       0.00000000       0.34850943
Ho       0.00000000       0.00000000       3.88363636       0.00000000       0.00000000      -0.34850943
2
Properties=species:S:1:pos:R:3:forces:R:3 energy=-2.3068024374544307 pbc="F F F"
Ho       0.00000000       0.00000000       0.00000000       0.00000000       0.00000000       0.39023197
Ho       0.00000000       0.00000000       3.94242424       0.00000000       0.00000000      -0.39023197
2
Properties=species:S:1:pos:R:3:forces:R:3 energy=-2.282782958132451 pbc="F F F"
Ho       0.00000000       0.00000000       0.00000000       0.00000000       0.00000000       0.42600965
Ho       0.00000000       0.00000000       4.00121212       0.00000000       0.00000000      -0.42600965
2
Properties=species:S:1:pos:R:3:forces:R:3 energy=-2.2568281064024887 pbc="F F F"
Ho       0.00000000       0.00000000       0.00000000       0.00000000       0.00000000       0.45598400
Ho       0.00000000       0.00000000       4.06000000       0.00000000       0.00000000      -0.45598400
2
Properties=species:S:1:pos:R:3:forces:R:3 energy=-2.2292739974238156 pbc="F F F"
Ho       0.00000000       0.00000000       0.00000000       0.00000000       0.00000000       0.48053670
Ho       0.00000000       0.00000000       4.11878788       0.00000000       0.00000000      -0.48053670
2
Properties=species:S:1:pos:R:3:forces:R:3 energy=-2.200426393504328 pbc="F F F"
Ho       0.00000000       0.00000000       0.00000000       0.00000000       0.00000000       0.50008553
Ho       0.00000000       0.00000000       4.17757576       0.00000000       0.00000000      -0.50008553
2
Properties=species:S:1:pos:R:3:forces:R:3 energy=-2.1705702725219354 pbc="F F F"
Ho       0.00000000       0.00000000       0.00000000       0.00000000       0.00000000       0.51485795
Ho       0.00000000       0.00000000       4.23636364       0.00000000       0.00000000      -0.51485795
2
Properties=species:S:1:pos:R:3:forces:R:3 energy=-2.1399850930492654 pbc="F F F"
Ho       0.00000000       0.00000000       0.00000000       0.00000000       0.00000000       0.52482975
Ho       0.00000000       0.00000000       4.29515152       0.00000000       0.00000000      -0.52482975
2
Properties=species:S:1:pos:R:3:forces:R:3 energy=-2.108961127194287 pbc="F F F"
Ho       0.00000000       0.00000000       0.00000000       0.00000000       0.00000000       0.52986246
Ho       0.00000000       0.00000000       4.35393939       0.00000000       0.00000000      -0.52986246
2
Properties=species:S:1:pos:R:3:forces:R:3 energy=-2.077785123807339 pbc="F F F"
Ho       0.00000000       0.00000000       0.00000000       0.00000000       0.00000000       0.52989197
Ho       0.00000000       0.00000000       4.41272727       0.00000000       0.00000000      -0.52989197
2
Properties=species:S:1:pos:R:3:forces:R:3 energy=-2.0467499465946064 pbc="F F F"
Ho       0.00000000       0.00000000       0.00000000       0.00000000       0.00000000       0.52509212
Ho       0.00000000       0.00000000       4.47151515       0.00000000       0.00000000      -0.52509212
2
Properties=species:S:1:pos:R:3:forces:R:3 energy=-2.016131692270169 pbc="F F F"
Ho       0.00000000       0.00000000       0.00000000       0.00000000       0.00000000       0.51588511
Ho       0.00000000       0.00000000       4.53030303       0.00000000       0.00000000      -0.51588511
2
Properties=species:S:1:pos:R:3:forces:R:3 energy=-1.9861735224421329 pbc="F F F"
Ho       0.00000000       0.00000000       0.00000000       0.00000000       0.00000000       0.50287008
Ho       0.00000000       0.00000000       4.58909091       0.00000000       0.00000000      -0.50287008
2
Properties=species:S:1:pos:R:3:forces:R:3 energy=-1.9570705252008107 pbc="F F F"
Ho       0.00000000       0.00000000       0.00000000       0.00000000       0.00000000       0.48678625
Ho       0.00000000       0.00000000       4.64787879       0.00000000       0.00000000      -0.48678625
2
Properties=species:S:1:pos:R:3:forces:R:3 energy=-1.9289800724876702 pbc="F F F"
Ho       0.00000000       0.00000000       0.00000000       0.00000000       0.00000000       0.46844742
Ho       0.00000000       0.00000000       4.70666667       0.00000000       0.00000000      -0.46844742
2
Properties=species:S:1:pos:R:3:forces:R:3 energy=-1.9020172354574374 pbc="F F F"
Ho       0.00000000       0.00000000       0.00000000       0.00000000       0.00000000       0.44875562
Ho       0.00000000       0.00000000       4.76545455       0.00000000       0.00000000      -0.44875562
2
Properties=species:S:1:pos:R:3:forces:R:3 energy=-1.876224216214818 pbc="F F F"
Ho       0.00000000       0.00000000       0.00000000       0.00000000       0.00000000       0.42866263
Ho       0.00000000       0.00000000       4.82424242       0.00000000       0.00000000      -0.42866263
2
Properties=species:S:1:pos:R:3:forces:R:3 energy=-1.8516094801396903 pbc="F F F"
Ho       0.00000000       0.00000000       0.00000000       0.00000000       0.00000000       0.40909562
Ho       0.00000000       0.00000000       4.88303030       0.00000000       0.00000000      -0.40909562
2
Properties=species:S:1:pos:R:3:forces:R:3 energy=-1.8281009878317367 pbc="F F F"
Ho       0.00000000       0.00000000       0.00000000       0.00000000       0.00000000       0.39077914
Ho       0.00000000       0.00000000       4.94181818       0.00000000       0.00000000      -0.39077914
2
Properties=species:S:1:pos:R:3:forces:R:3 energy=-1.8056262910817318 pbc="F F F"
Ho       0.00000000       0.00000000       0.00000000       0.00000000       0.00000000       0.37407997
Ho       0.00000000       0.00000000       5.00060606       0.00000000       0.00000000      -0.37407997
2
Properties=species:S:1:pos:R:3:forces:R:3 energy=-1.7840878133670492 pbc="F F F"
Ho       0.00000000       0.00000000       0.00000000       0.00000000       0.00000000       0.35883963
Ho       0.00000000       0.00000000       5.05939394       0.00000000       0.00000000      -0.35883963
2
Properties=species:S:1:pos:R:3:forces:R:3 energy=-1.7634217939255925 pbc="F F F"
Ho       0.00000000       0.00000000       0.00000000       0.00000000       0.00000000       0.34434348
Ho       0.00000000       0.00000000       5.11818182       0.00000000       0.00000000      -0.34434348
2
Properties=species:S:1:pos:R:3:forces:R:3 energy=-1.7436088098514981 pbc="F F F"
Ho       0.00000000       0.00000000       0.00000000       0.00000000       0.00000000       0.32942203
Ho       0.00000000       0.00000000       5.17696970       0.00000000       0.00000000      -0.32942203
2
Properties=species:S:1:pos:R:3:forces:R:3 energy=-1.7247242828200389 pbc="F F F"
Ho       0.00000000       0.00000000       0.00000000       0.00000000       0.00000000       0.31270012
Ho       0.00000000       0.00000000       5.23575758       0.00000000       0.00000000      -0.31270012
2
Properties=species:S:1:pos:R:3:forces:R:3 energy=-1.706904948431086 pbc="F F F"
Ho       0.00000000       0.00000000       0.00000000       0.00000000       0.00000000       0.29289347
Ho       0.00000000       0.00000000       5.29454545       0.00000000       0.00000000      -0.29289347
2
Properties=species:S:1:pos:R:3:forces:R:3 energy=-1.6903631993377228 pbc="F F F"
Ho       0.00000000       0.00000000       0.00000000       0.00000000       0.00000000       0.26915729
Ho       0.00000000       0.00000000       5.35333333       0.00000000       0.00000000      -0.26915729
2
Properties=species:S:1:pos:R:3:forces:R:3 energy=-1.6753421041622638 pbc="F F F"
Ho       0.00000000       0.00000000       0.00000000       0.00000000       0.00000000       0.24131835
Ho       0.00000000       0.00000000       5.41212121       0.00000000       0.00000000      -0.24131835
2
Properties=species:S:1:pos:R:3:forces:R:3 energy=-1.6620599740086635 pbc="F F F"
Ho       0.00000000       0.00000000       0.00000000       0.00000000       0.00000000       0.21000223
Ho       0.00000000       0.00000000       5.47090909       0.00000000       0.00000000      -0.21000223
2
Properties=species:S:1:pos:R:3:forces:R:3 energy=-1.650689400634487 pbc="F F F"
Ho       0.00000000       0.00000000       0.00000000       0.00000000       0.00000000       0.17659917
Ho       0.00000000       0.00000000       5.52969697       0.00000000       0.00000000      -0.17659917
2
Properties=species:S:1:pos:R:3:forces:R:3 energy=-1.6412998902721079 pbc="F F F"
Ho       0.00000000       0.00000000       0.00000000       0.00000000       0.00000000       0.14304826
Ho       0.00000000       0.00000000       5.58848485       0.00000000       0.00000000      -0.14304826
2
Properties=species:S:1:pos:R:3:forces:R:3 energy=-1.633834893081738 pbc="F F F"
Ho       0.00000000       0.00000000       0.00000000       0.00000000       0.00000000       0.11155922
Ho       0.00000000       0.00000000       5.64727273       0.00000000       0.00000000      -0.11155922
2
Properties=species:S:1:pos:R:3:forces:R:3 energy=-1.6281012303705709 pbc="F F F"
Ho       0.00000000       0.00000000       0.00000000       0.00000000       0.00000000       0.08418918
Ho       0.00000000       0.00000000       5.70606061       0.00000000       0.00000000      -0.08418918
2
Properties=species:S:1:pos:R:3:forces:R:3 energy=-1.6238186603146585 pbc="F F F"
Ho       0.00000000       0.00000000       0.00000000       0.00000000       0.00000000       0.06250352
Ho       0.00000000       0.00000000       5.76484848       0.00000000       0.00000000      -0.06250352
2
Properties=species:S:1:pos:R:3:forces:R:3 energy=-1.6206236356353776 pbc="F F F"
Ho       0.00000000       0.00000000       0.00000000       0.00000000       0.00000000       0.04729988
Ho       0.00000000       0.00000000       5.82363636       0.00000000       0.00000000      -0.04729988
2
Properties=species:S:1:pos:R:3:forces:R:3 energy=-1.6181368687560762 pbc="F F F"
Ho       0.00000000       0.00000000       0.00000000       0.00000000       0.00000000       0.03833714
Ho       0.00000000       0.00000000       5.88242424       0.00000000       0.00000000      -0.03833714
2
Properties=species:S:1:pos:R:3:forces:R:3 energy=-1.6160187652896663 pbc="F F F"
Ho       0.00000000       0.00000000       0.00000000       0.00000000       0.00000000       0.03432744
Ho       0.00000000       0.00000000       5.94121212       0.00000000       0.00000000      -0.03432744
2
Properties=species:S:1:pos:R:3:forces:R:3 energy=-1.6140455342502518 pbc="F F F"
Ho       0.00000000       0.00000000       0.00000000       0.00000000       0.00000000       0.03309826
Ho       0.00000000       0.00000000       6.00000000       0.00000000       0.00000000      -0.03309826
