2
Properties=species:S:1:pos:R:3:forces:R:3 energy=50432251.88580319 pbc="F F F"
Ho       0.00000000       0.00000000       0.00000000       0.00000000       0.00000000 -471922144.00000000
Ho       0.00000000       0.00000000       0.18000000       0.00000000       0.00000000 471922144.00000000
2
Properties=species:S:1:pos:R:3:forces:R:3 energy=26440671.885803193 pbc="F F F"
Ho       0.00000000       0.00000000       0.00000000       0.00000000       0.00000000 -333649824.00000000
Ho       0.00000000       0.00000000       0.23878788       0.00000000       0.00000000 333649824.00000000
2
Properties=species:S:1:pos:R:3:forces:R:3 energy=11432760.885803193 pbc="F F F"
Ho       0.00000000       0.00000000       0.00000000       0.00000000       0.00000000 -181832288.00000000
Ho       0.00000000       0.00000000       0.29757576       0.00000000       0.00000000 181832288.00000000
2
Properties=species:S:1:pos:R:3:forces:R:3 energy=4098578.135803192 pbc="F F F"
Ho       0.00000000       0.00000000       0.00000000       0.00000000       0.00000000 -77018536.00000000
Ho       0.00000000       0.00000000       0.35636364       0.00000000       0.00000000 77018536.00000000
2
Properties=species:S:1:pos:R:3:forces:R:3 energy=1258199.6358032047 pbc="F F F"
Ho       0.00000000       0.00000000       0.00000000       0.00000000       0.00000000 -27177572.00000000
Ho       0.00000000       0.00000000       0.41515152       0.00000000       0.00000000 27177572.00000000
2
Properties=species:S:1:pos:R:3:forces:R:3 energy=321318.8858032047 pbc="F F F"
Ho       0.00000000       0.00000000       0.00000000       0.00000000       0.00000000 -8082310.00000000
Ho       0.00000000       0.00000000       0.47393939       0.00000000       0.00000000 8082310.00000000
2
Properties=species:S:1:pos:R:3:forces:R:3 energy=67892.9326782174 pbc="F F F"
Ho       0.00000000       0.00000000       0.00000000       0.00000000       0.00000000 -1872388.75000000
Ho       0.00000000       0.00000000       0.53272727       0.00000000       0.00000000 1872388.75000000
2
Properties=species:S:1:pos:R:3:forces:R:3 energy=12251.239318867745 pbc="F F F"
Ho       0.00000000       0.00000000       0.00000000       0.00000000       0.00000000 -383301.43750000
Ho       0.00000000       0.00000000       0.59151515       0.00000000       0.00000000  383301.43750000
2
Properties=species:S:1:pos:R:3:forces:R:3 energy=1951.9323120824927 pbc="F F F"
Ho       0.00000000       0.00000000       0.00000000       0.00000000       0.00000000  -55975.86718750
Ho       0.00000000       0.00000000       0.65030303       0.00000000       0.00000000   55975.86718750
2
Properties=species:S:1:pos:R:3:forces:R:3 energy=521.7258912474115 pbc="F F F"
Ho       0.00000000       0.00000000       0.00000000       0.00000000       0.00000000   -8847.75683594
Ho       0.00000000       0.00000000       0.70909091       0.00000000       0.00000000    8847.75683594
2
Properties=species:S:1:pos:R:3:forces:R:3 energy=178.43142723745368 pbc="F F F"
Ho       0.00000000       0.00000000       0.00000000       0.00000000       0.00000000   -3423.35058594
Ho       0.00000000       0.00000000       0.76787879       0.00000000       0.00000000    3423.35058594
2
Properties=species:S:1:pos:R:3:forces:R:3 energy=38.14852945296169 pbc="F F F"
Ho       0.00000000       0.00000000       0.00000000       0.00000000       0.00000000   -1311.32617188
Ho       0.00000000       0.00000000       0.82666667       0.00000000       0.00000000    1311.32617188
2
Properties=species:S:1:pos:R:3:forces:R:3 energy=-3.879380551499061 pbc="F F F"
Ho       0.00000000       0.00000000       0.00000000       0.00000000       0.00000000    -199.51654053
Ho       0.00000000       0.00000000       0.88545455       0.00000000       0.00000000     199.51654053
2
Properties=species:S:1:pos:R:3:forces:R:3 energy=-7.081765183447315 pbc="F F F"
Ho       0.00000000       0.00000000       0.00000000       0.00000000       0.00000000      60.68436432
Ho       0.00000000       0.00000000       0.94424242       0.00000000       0.00000000     -60.68436432
2
Properties=species:S:1:pos:R:3:forces:R:3 energy=-5.277585561034147 pbc="F F F"
Ho       0.00000000       0.00000000       0.00000000       0.00000000       0.00000000      -5.90260696
Ho       0.00000000       0.00000000       1.00303030       0.00000000       0.00000000       5.90260696
2
Properties=species:S:1:pos:R:3:forces:R:3 energy=-5.841700502446864 pbc="F F F"
Ho       0.00000000       0.00000000       0.00000000       0.00000000       0.00000000      20.78703880
Ho       0.00000000       0.00000000       1.06181818       0.00000000       0.00000000     -20.78703880
2
Properties=species:S:1:pos:R:3:forces:R:3 energy=-6.106843111297186 pbc="F F F"
Ho       0.00000000       0.00000000       0.00000000       0.00000000       0.00000000     -18.88351059
Ho       0.00000000       0.00000000       1.12060606       0.00000000       0.00000000      18.88351059
2
Properties=species:S:1:pos:R:3:forces:R:3 energy=-4.182134684874372 pbc="F F F"
Ho       0.00000000       0.00000000       0.00000000       0.00000000       0.00000000     118.19345856
Ho       0.00000000       0.00000000       1.17939394       0.00000000       0.00000000    -118.19345856
2
Properties=species:S:1:pos:R:3:forces:R:3 energy=1.8220380170708907 pbc="F F F"
Ho       0.00000000       0.00000000       0.00000000       0.00000000       0.00000000      91.84742737
Ho       0.00000000       0.00000000       1.23818182       0.00000000       0.00000000     -91.84742737
2
Properties=species:S:1:pos:R:3:forces:R:3 energy=5.385987379964578 pbc="F F F"
Ho       0.00000000       0.00000000       0.00000000       0.00000000       0.00000000      35.86548615
Ho       0.00000000       0.00000000       1.29696970       0.00000000       0.00000000     -35.86548615
2
Properties=species:S:1:pos:R:3:forces:R:3 energy=6.9318135596443815 pbc="F F F"
Ho       0.00000000       0.00000000       0.00000000       0.00000000       0.00000000      22.48143768
Ho       0.00000000       0.00000000       1.35575758       0.00000000       0.00000000     -22.48143768
2
Properties=species:S:1:pos:R:3:forces:R:3 energy=8.066238548203657 pbc="F F F"
Ho       0.00000000       0.00000000       0.00000000       0.00000000       0.00000000      16.24691582
Ho       0.00000000       0.00000000       1.41454545       0.00000000       0.00000000     -16.24691582
2
Properties=species:S:1:pos:R:3:forces:R:3 energy=8.934367783608613 pbc="F F F"
Ho       0.00000000       0.00000000       0.00000000       0.00000000       0.00000000      15.17779922
Ho       0.00000000       0.00000000       1.47333333       0.00000000       0.00000000     -15.17779922
2
Properties=species:S:1:pos:R:3:forces:R:3 energy=10.014762806610609 pbc="F F F"
Ho       0.00000000       0.00000000       0.00000000       0.00000000       0.00000000      19.74730301
Ho       0.00000000       0.00000000       1.53212121       0.00000000       0.00000000     -19.74730301
2
Properties=species:S:1:pos:R:3:forces:R:3 energy=11.00346104907429 pbc="F F F"
Ho       0.00000000       0.00000000       0.00000000       0.00000000       0.00000000      12.89301777
Ho       0.00000000       0.00000000       1.59090909       0.00000000       0.00000000     -12.89301777
2
Properties=species:S:1:pos:R:3:forces:R:3 energy=11.536088502288518 pbc="F F F"
Ho       0.00000000       0.00000000       0.00000000       0.00000000       0.00000000       5.29213905
Ho       0.00000000       0.00000000       1.64969697       0.00000000       0.00000000      -5.29213905
2
Properties=species:S:1:pos:R:3:forces:R:3 energy=11.53218195957008 pbc="F F F"
Ho       0.00000000       0.00000000       0.00000000       0.00000000       0.00000000      -6.03767633
Ho       0.00000000       0.00000000       1.70848485       0.00000000       0.00000000       6.03767633
2
Properties=species:S:1:pos:R:3:forces:R:3 energy=10.891264392360378 pbc="F F F"
Ho       0.00000000       0.00000000       0.00000000       0.00000000       0.00000000     -14.91752529
Ho       0.00000000       0.00000000       1.76727273       0.00000000       0.00000000      14.91752529
2
Properties=species:S:1:pos:R:3:forces:R:3 energy=9.807748285530497 pbc="F F F"
Ho       0.00000000       0.00000000       0.00000000       0.00000000       0.00000000     -21.90143776
Ho       0.00000000       0.00000000       1.82606061       0.00000000       0.00000000      21.90143776
2
Properties=species:S:1:pos:R:3:forces:R:3 energy=8.435856368238237 pbc="F F F"
Ho       0.00000000       0.00000000       0.00000000       0.00000000       0.00000000     -24.09149742
Ho       0.00000000       0.00000000       1.88484848       0.00000000       0.00000000      24.09149742
2
Properties=species:S:1:pos:R:3:forces:R:3 energy=7.014799073378706 pbc="F F F"
Ho       0.00000000       0.00000000       0.00000000       0.00000000       0.00000000     -23.87456512
Ho       0.00000000       0.00000000       1.94363636       0.00000000       0.00000000      23.87456512
2
Properties=species:S:1:pos:R:3:forces:R:3 energy=5.668634512852087 pbc="F F F"
Ho       0.00000000       0.00000000       0.00000000       0.00000000       0.00000000     -21.74415779
Ho       0.00000000       0.00000000       2.00242424       0.00000000       0.00000000      21.74415779
2
Properties=species:S:1:pos:R:3:forces:R:3 energy=4.459264133983756 pbc="F F F"
Ho       0.00000000       0.00000000       0.00000000       0.00000000       0.00000000     -19.42149162
Ho       0.00000000       0.00000000       2.06121212       0.00000000       0.00000000      19.42149162
2
Properties=species:S:1:pos:R:3:forces:R:3 energy=3.394954791229558 pbc="F F F"
Ho       0.00000000       0.00000000       0.00000000       0.00000000       0.00000000     -16.68295479
Ho       0.00000000       0.00000000       2.12000000       0.00000000       0.00000000      16.68295479
2
Properties=species:S:1:pos:R:3:forces:R:3 energy=2.493178266903734 pbc="F F F"
Ho       0.00000000       0.00000000       0.00000000       0.00000000       0.00000000     -14.14589310
Ho       0.00000000       0.00000000       2.17878788       0.00000000       0.00000000      14.14589310
2
Properties=species:S:1:pos:R:3:forces:R:3 energy=1.7217065980091941 pbc="F F F"
Ho       0.00000000       0.00000000       0.00000000       0.00000000       0.00000000     -12.11123466
Ho       0.00000000       0.00000000       2.23757576       0.00000000       0.00000000      12.11123466
2
Properties=species:S:1:pos:R:3:forces:R:3 energy=1.0657068410800994 pbc="F F F"
Ho       0.00000000       0.00000000       0.00000000       0.00000000       0.00000000     -10.24089432
Ho       0.00000000       0.00000000       2.29636364       0.00000000       0.00000000      10.24089432
2
Properties=species:S:1:pos:R:3:forces:R:3 energy=0.5154407329043161 pbc="F F F"
Ho       0.00000000       0.00000000       0.00000000       0.00000000       0.00000000      -8.51266098
Ho       0.00000000       0.00000000       2.35515152       0.00000000       0.00000000       8.51266098
2
Properties=species:S:1:pos:R:3:forces:R:3 energy=0.05726566761834313 pbc="F F F"
Ho       0.00000000       0.00000000       0.00000000       0.00000000       0.00000000      -7.14313793
Ho       0.00000000       0.00000000       2.41393939       0.00000000       0.00000000       7.14313793
2
Properties=species:S:1:pos:R:3:forces:R:3 energy=-0.33065585869962233 pbc="F F F"
Ho       0.00000000       0.00000000       0.00000000       0.00000000       0.00000000      -6.09624195
Ho       0.00000000       0.00000000       2.47272727       0.00000000       0.00000000       6.09624195
2
Properties=species:S:1:pos:R:3:forces:R:3 energy=-0.6628550609640659 pbc="F F F"
Ho       0.00000000       0.00000000       0.00000000       0.00000000       0.00000000      -5.22396135
Ho       0.00000000       0.00000000       2.53151515       0.00000000       0.00000000       5.22396135
2
Properties=species:S:1:pos:R:3:forces:R:3 energy=-0.9479065803369312 pbc="F F F"
Ho       0.00000000       0.00000000       0.00000000       0.00000000       0.00000000      -4.50865746
Ho       0.00000000       0.00000000       2.59030303       0.00000000       0.00000000       4.50865746
2
Properties=species:S:1:pos:R:3:forces:R:3 energy=-1.1967709737217702 pbc="F F F"
Ho       0.00000000       0.00000000       0.00000000       0.00000000       0.00000000      -3.98073196
Ho       0.00000000       0.00000000       2.64909091       0.00000000       0.00000000       3.98073196
2
Properties=species:S:1:pos:R:3:forces:R:3 energy=-1.4172292098373704 pbc="F F F"
Ho       0.00000000       0.00000000       0.00000000       0.00000000       0.00000000      -3.52063346
Ho       0.00000000       0.00000000       2.70787879       0.00000000       0.00000000       3.52063346
2
Properties=species:S:1:pos:R:3:forces:R:3 energy=-1.6103530445450043 pbc="F F F"
Ho       0.00000000       0.00000000       0.00000000       0.00000000       0.00000000      -3.04613686
Ho       0.00000000       0.00000000       2.76666667       0.00000000       0.00000000       3.04613686
2
Properties=species:S:1:pos:R:3:forces:R:3 energy=-1.7753478550548714 pbc="F F F"
Ho       0.00000000       0.00000000       0.00000000       0.00000000       0.00000000      -2.57046342
Ho       0.00000000       0.00000000       2.82545455       0.00000000       0.00000000       2.57046342
2
Properties=species:S:1:pos:R:3:forces:R:3 energy=-1.9133329162173127 pbc="F F F"
Ho       0.00000000       0.00000000       0.00000000       0.00000000       0.00000000      -2.13250566
Ho       0.00000000       0.00000000       2.88424242       0.00000000       0.00000000       2.13250566
2
Properties=species:S:1:pos:R:3:forces:R:3 energy=-2.02718693062613 pbc="F F F"
Ho       0.00000000       0.00000000       0.00000000       0.00000000       0.00000000      -1.75014901
Ho       0.00000000       0.00000000       2.94303030       0.00000000       0.00000000       1.75014901
2
Properties=species:S:1:pos:R:3:forces:R:3 energy=-2.120059381024541 pbc="F F F"
Ho       0.00000000       0.00000000       0.00000000       0.00000000       0.00000000      -1.41617358
Ho       0.00000000       0.00000000       3.00181818       0.00000000       0.00000000       1.41617358
2
Properties=species:S:1:pos:R:3:forces:R:3 energy=-2.1943996391659257 pbc="F F F"
Ho       0.00000000       0.00000000       0.00000000       0.00000000       0.00000000      -1.11886394
Ho       0.00000000       0.00000000       3.06060606       0.00000000       0.00000000       1.11886394
2
Properties=species:S:1:pos:R:3:forces:R:3 energy=-2.2524003990283736 pbc="F F F"
Ho       0.00000000       0.00000000       0.00000000       0.00000000       0.00000000      -0.86193931
Ho       0.00000000       0.00000000       3.11939394       0.00000000       0.00000000       0.86193931
2
Properties=species:S:1:pos:R:3:forces:R:3 energy=-2.2966901203961307 pbc="F F F"
Ho       0.00000000       0.00000000       0.00000000       0.00000000       0.00000000      -0.65294296
Ho       0.00000000       0.00000000       3.17818182       0.00000000       0.00000000       0.65294296
2
Properties=species:S:1:pos:R:3:forces:R:3 energy=-2.330047816882549 pbc="F F F"
Ho       0.00000000       0.00000000       0.00000000       0.00000000       0.00000000      -0.48843145
Ho       0.00000000       0.00000000       3.23696970       0.00000000       0.00000000       0.48843145
2
Properties=species:S:1:pos:R:3:forces:R:3 energy=-2.3547631277924896 pbc="F F F"
Ho       0.00000000       0.00000000       0.00000000       0.00000000       0.00000000      -0.35688126
Ho       0.00000000       0.00000000       3.29575758       0.00000000       0.00000000       0.35688126
2
Properties=species:S:1:pos:R:3:forces:R:3 energy=-2.372438958223981 pbc="F F F"
Ho       0.00000000       0.00000000       0.00000000       0.00000000       0.00000000      -0.24756569
Ho       0.00000000       0.00000000       3.35454545       0.00000000       0.00000000       0.24756569
2
Properties=species:S:1:pos:R:3:forces:R:3 energy=-2.3842012367326726 pbc="F F F"
Ho       0.00000000       0.00000000       0.00000000       0.00000000       0.00000000      -0.15510839
Ho       0.00000000       0.00000000       3.41333333       0.00000000       0.00000000       0.15510839
2
Properties=species:S:1:pos:R:3:forces:R:3 energy=-2.3909384016268542 pbc="F F F"
Ho       0.00000000       0.00000000       0.00000000       0.00000000       0.00000000      -0.07599770
Ho       0.00000000       0.00000000       3.47212121       0.00000000       0.00000000       0.07599770
2
Properties=species:S:1:pos:R:3:forces:R:3 energy=-2.3933003079089596 pbc="F F F"
Ho       0.00000000       0.00000000       0.00000000       0.00000000       0.00000000      -0.00514020
Ho       0.00000000       0.00000000       3.53090909       0.00000000       0.00000000       0.00514020
2
Properties=species:S:1:pos:R:3:forces:R:3 energy=-2.391612561313847 pbc="F F F"
Ho       0.00000000       0.00000000       0.00000000       0.00000000       0.00000000       0.06207784
Ho       0.00000000       0.00000000       3.58969697       0.00000000       0.00000000      -0.06207784
2
Properties=species:S:1:pos:R:3:forces:R:3 energy=-2.386035693220614 pbc="F F F"
Ho       0.00000000       0.00000000       0.00000000       0.00000000       0.00000000       0.12726998
Ho       0.00000000       0.00000000       3.64848485       0.00000000       0.00000000      -0.12726998
2
Properties=species:S:1:pos:R:3:forces:R:3 energy=-2.376702540439318 pbc="F F F"
Ho       0.00000000       0.00000000       0.00000000       0.00000000       0.00000000       0.18963878
Ho       0.00000000       0.00000000       3.70727273       0.00000000       0.00000000      -0.18963878
2
Properties=species:S:1:pos:R:3:forces:R:3 energy=-2.363820250348964 pbc="F F F"
Ho       0.00000000       0.00000000       0.00000000       0.00000000       0.00000000       0.24783738
Ho       0.00000000       0.00000000       3.76606061       0.00000000       0.00000000      -0.24783738
2
Properties=species:S:1:pos:R:3:forces:R:3 energy=-2.347662702188128 pbc="F F F"
Ho       0.00000000       0.00000000       0.00000000       0.00000000       0.00000000       0.30095354
Ho       0.00000000       0.00000000       3.82484848       0.00000000       0.00000000      -0.30095354
2
Properties=species:S:1:pos:R:3:forces:R:3 energy=-2.328545762207886 pbc="F F F"
Ho       0.00000000       0.00000000       0.00000000       0.00000000       0.00000000       0.34851018
Ho       0.00000000       0.00000000       3.88363636       0.00000000       0.00000000      -0.34851018
2
Properties=species:S:1:pos:R:3:forces:R:3 energy=-2.3068024374544307 pbc="F F F"
Ho       0.00000000       0.00000000       0.00000000       0.00000000       0.00000000       0.39023161
Ho       0.00000000       0.00000000       3.94242424       0.00000000       0.00000000      -0.39023161
2
Properties=species:S:1:pos:R:3:forces:R:3 energy=-2.2827820044581344 pbc="F F F"
Ho       0.00000000       0.00000000       0.00000000       0.00000000       0.00000000       0.42600995
Ho       0.00000000       0.00000000       4.00121212       0.00000000       0.00000000      -0.42600995
2
Properties=species:S:1:pos:R:3:forces:R:3 energy=-2.256829060076805 pbc="F F F"
Ho       0.00000000       0.00000000       0.00000000       0.00000000       0.00000000       0.45598373
Ho       0.00000000       0.00000000       4.06000000       0.00000000       0.00000000      -0.45598373
2
Properties=species:S:1:pos:R:3:forces:R:3 energy=-2.2292759047724484 pbc="F F F"
Ho       0.00000000       0.00000000       0.00000000       0.00000000       0.00000000       0.48053694
Ho       0.00000000       0.00000000       4.11878788       0.00000000       0.00000000      -0.48053694
2
Properties=species:S:1:pos:R:3:forces:R:3 energy=-2.200425446165656 pbc="F F F"
Ho       0.00000000       0.00000000       0.00000000       0.00000000       0.00000000       0.50008535
Ho       0.00000000       0.00000000       4.17757576       0.00000000       0.00000000      -0.50008535
2
Properties=species:S:1:pos:R:3:forces:R:3 energy=-2.1705712325318958 pbc="F F F"
Ho       0.00000000       0.00000000       0.00000000       0.00000000       0.00000000       0.51485801
Ho       0.00000000       0.00000000       4.23636364       0.00000000       0.00000000      -0.51485801
2
Properties=species:S:1:pos:R:3:forces:R:3 energy=-2.1399850930492654 pbc="F F F"
Ho       0.00000000       0.00000000       0.00000000       0.00000000       0.00000000       0.52483106
Ho       0.00000000       0.00000000       4.29515152       0.00000000       0.00000000      -0.52483106
2
Properties=species:S:1:pos:R:3:forces:R:3 energy=-2.108959219845654 pbc="F F F"
Ho       0.00000000       0.00000000       0.00000000       0.00000000       0.00000000       0.52986246
Ho       0.00000000       0.00000000       4.35393939       0.00000000       0.00000000      -0.52986246
2
Properties=species:S:1:pos:R:3:forces:R:3 energy=-2.0777851364786275 pbc="F F F"
Ho       0.00000000       0.00000000       0.00000000       0.00000000       0.00000000       0.52989239
Ho       0.00000000       0.00000000       4.41272727       0.00000000       0.00000000      -0.52989239
2
Properties=species:S:1:pos:R:3:forces:R:3 energy=-2.04674899292029 pbc="F F F"
Ho       0.00000000       0.00000000       0.00000000       0.00000000       0.00000000       0.52509296
Ho       0.00000000       0.00000000       4.47151515       0.00000000       0.00000000      -0.52509296
2
Properties=species:S:1:pos:R:3:forces:R:3 energy=-2.016129784921536 pbc="F F F"
Ho       0.00000000       0.00000000       0.00000000       0.00000000       0.00000000       0.51588410
Ho       0.00000000       0.00000000       4.53030303       0.00000000       0.00000000      -0.51588410
2
Properties=species:S:1:pos:R:3:forces:R:3 energy=-1.986171634100433 pbc="F F F"
Ho       0.00000000       0.00000000       0.00000000       0.00000000       0.00000000       0.50287032
Ho       0.00000000       0.00000000       4.58909091       0.00000000       0.00000000      -0.50287032
2
Properties=species:S:1:pos:R:3:forces:R:3 energy=-1.9570705252008107 pbc="F F F"
Ho       0.00000000       0.00000000       0.00000000       0.00000000       0.00000000       0.48678634
Ho       0.00000000       0.00000000       4.64787879       0.00000000       0.00000000      -0.48678634
2
Properties=species:S:1:pos:R:3:forces:R:3 energy=-1.9289791188133538 pbc="F F F"
Ho       0.00000000       0.00000000       0.00000000       0.00000000       0.00000000       0.46844691
Ho       0.00000000       0.00000000       4.70666667       0.00000000       0.00000000      -0.46844691
2
Properties=species:S:1:pos:R:3:forces:R:3 energy=-1.9020172354574374 pbc="F F F"
Ho       0.00000000       0.00000000       0.00000000       0.00000000       0.00000000       0.44875506
Ho       0.00000000       0.00000000       4.76545455       0.00000000       0.00000000      -0.44875506
2
Properties=species:S:1:pos:R:3:forces:R:3 energy=-1.8762251698891343 pbc="F F F"
Ho       0.00000000       0.00000000       0.00000000       0.00000000       0.00000000       0.42866510
Ho       0.00000000       0.00000000       4.82424242       0.00000000       0.00000000      -0.42866510
2
Properties=species:S:1:pos:R:3:forces:R:3 energy=-1.8516075727910575 pbc="F F F"
Ho       0.00000000       0.00000000       0.00000000       0.00000000       0.00000000       0.40909693
Ho       0.00000000       0.00000000       4.88303030       0.00000000       0.00000000      -0.40909693
2
Properties=species:S:1:pos:R:3:forces:R:3 energy=-1.8280990804831039 pbc="F F F"
Ho       0.00000000       0.00000000       0.00000000       0.00000000       0.00000000       0.39078081
Ho       0.00000000       0.00000000       4.94181818       0.00000000       0.00000000      -0.39078081
2
Properties=species:S:1:pos:R:3:forces:R:3 energy=-1.8056253374074154 pbc="F F F"
Ho       0.00000000       0.00000000       0.00000000       0.00000000       0.00000000       0.37408015
Ho       0.00000000       0.00000000       5.00060606       0.00000000       0.00000000      -0.37408015
2
Properties=species:S:1:pos:R:3:forces:R:3 energy=-1.7840878133670492 pbc="F F F"
Ho       0.00000000       0.00000000       0.00000000       0.00000000       0.00000000       0.35884005
Ho       0.00000000       0.00000000       5.05939394       0.00000000       0.00000000      -0.35884005
2
Properties=species:S:1:pos:R:3:forces:R:3 energy=-1.7634189329026433 pbc="F F F"
Ho       0.00000000       0.00000000       0.00000000       0.00000000       0.00000000       0.34434280
Ho       0.00000000       0.00000000       5.11818182       0.00000000       0.00000000      -0.34434280
2
Properties=species:S:1:pos:R:3:forces:R:3 energy=-1.7436107298714196 pbc="F F F"
Ho       0.00000000       0.00000000       0.00000000       0.00000000       0.00000000       0.32942042
Ho       0.00000000       0.00000000       5.17696970       0.00000000       0.00000000      -0.32942042
2
Properties=species:S:1:pos:R:3:forces:R:3 energy=-1.7247242828200389 pbc="F F F"
Ho       0.00000000       0.00000000       0.00000000       0.00000000       0.00000000       0.31269720
Ho       0.00000000       0.00000000       5.23575758       0.00000000       0.00000000      -0.31269720
2
Properties=species:S:1:pos:R:3:forces:R:3 energy=-1.706906855779719 pbc="F F F"
Ho       0.00000000       0.00000000       0.00000000       0.00000000       0.00000000       0.29289305
Ho       0.00000000       0.00000000       5.29454545       0.00000000       0.00000000      -0.29289305
2
Properties=species:S:1:pos:R:3:forces:R:3 energy=-1.6903651193576443 pbc="F F F"
Ho       0.00000000       0.00000000       0.00000000       0.00000000       0.00000000       0.26915655
Ho       0.00000000       0.00000000       5.35333333       0.00000000       0.00000000      -0.26915655
2
Properties=species:S:1:pos:R:3:forces:R:3 energy=-1.675340196813631 pbc="F F F"
Ho       0.00000000       0.00000000       0.00000000       0.00000000       0.00000000       0.24131754
Ho       0.00000000       0.00000000       5.41212121       0.00000000       0.00000000      -0.24131754
2
Properties=species:S:1:pos:R:3:forces:R:3 energy=-1.662059020334347 pbc="F F F"
Ho       0.00000000       0.00000000       0.00000000       0.00000000       0.00000000       0.20999894
Ho       0.00000000       0.00000000       5.47090909       0.00000000       0.00000000      -0.20999894
2
Properties=species:S:1:pos:R:3:forces:R:3 energy=-1.65068941964142 pbc="F F F"
Ho       0.00000000       0.00000000       0.00000000       0.00000000       0.00000000       0.17659383
Ho       0.00000000       0.00000000       5.52969697       0.00000000       0.00000000      -0.17659383
2
Properties=species:S:1:pos:R:3:forces:R:3 energy=-1.6412998902721079 pbc="F F F"
Ho       0.00000000       0.00000000       0.00000000       0.00000000       0.00000000       0.14304399
Ho       0.00000000       0.00000000       5.58848485       0.00000000       0.00000000      -0.14304399
2
Properties=species:S:1:pos:R:3:forces:R:3 energy=-1.6338320320587887 pbc="F F F"
Ho       0.00000000       0.00000000       0.00000000       0.00000000       0.00000000       0.11155587
Ho       0.00000000       0.00000000       5.64727273       0.00000000       0.00000000      -0.11155587
2
Properties=species:S:1:pos:R:3:forces:R:3 energy=-1.6281031503904921 pbc="F F F"
Ho       0.00000000       0.00000000       0.00000000       0.00000000       0.00000000       0.08418730
Ho       0.00000000       0.00000000       5.70606061       0.00000000       0.00000000      -0.08418730
2
Properties=species:S:1:pos:R:3:forces:R:3 energy=-1.6238186603146585 pbc="F F F"
Ho       0.00000000       0.00000000       0.00000000       0.00000000       0.00000000       0.06250415
Ho       0.00000000       0.00000000       5.76484848       0.00000000       0.00000000      -0.06250415
2
Properties=species:S:1:pos:R:3:forces:R:3 energy=-1.6206236356353776 pbc="F F F"
Ho       0.00000000       0.00000000       0.00000000       0.00000000       0.00000000       0.04730266
Ho       0.00000000       0.00000000       5.82363636       0.00000000       0.00000000      -0.04730266
2
Properties=species:S:1:pos:R:3:forces:R:3 energy=-1.6181378351016813 pbc="F F F"
Ho       0.00000000       0.00000000       0.00000000       0.00000000       0.00000000       0.03833885
Ho       0.00000000       0.00000000       5.88242424       0.00000000       0.00000000      -0.03833885
2
Properties=species:S:1:pos:R:3:forces:R:3 energy=-1.6160187652896663 pbc="F F F"
Ho       0.00000000       0.00000000       0.00000000       0.00000000       0.00000000       0.03432785
Ho       0.00000000       0.00000000       5.94121212       0.00000000       0.00000000      -0.03432785
2
Properties=species:S:1:pos:R:3:forces:R:3 energy=-1.614043626901619 pbc="F F F"
Ho       0.00000000       0.00000000       0.00000000       0.00000000       0.00000000       0.03309826
Ho       0.00000000       0.00000000       6.00000000       0.00000000       0.00000000      -0.03309826
