2
Properties=species:S:1:pos:R:3:forces:R:3 energy=-671596.2760244668 pbc="F F F"
Lu       0.00000000       0.00000000       0.00000000       0.00000000       0.00000000 2747843.00000000
Lu       0.00000000       0.00000000       0.10000000       0.00000000       0.00000000 -2747843.00000000
2
Properties=species:S:1:pos:R:3:forces:R:3 energy=-487950.7760244668 pbc="F F F"
Lu       0.00000000       0.00000000       0.00000000       0.00000000       0.00000000 3238847.00000000
Lu       0.00000000       0.00000000       0.15959596       0.00000000       0.00000000 -3238847.00000000
2
Properties=species:S:1:pos:R:3:forces:R:3 energy=-304397.4010244668 pbc="F F F"
Lu       0.00000000       0.00000000       0.00000000       0.00000000       0.00000000 2798659.25000000
Lu       0.00000000       0.00000000       0.21919192       0.00000000       0.00000000 -2798659.25000000
2
Properties=species:S:1:pos:R:3:forces:R:3 energy=-147046.11977446682 pbc="F F F"
Lu       0.00000000       0.00000000       0.00000000       0.00000000       0.00000000 2024164.00000000
Lu       0.00000000       0.00000000       0.27878788       0.00000000       0.00000000 -2024164.00000000
2
Properties=species:S:1:pos:R:3:forces:R:3 energy=-59320.79164946047 pbc="F F F"
Lu       0.00000000       0.00000000       0.00000000       0.00000000       0.00000000  986009.81250000
Lu       0.00000000       0.00000000       0.33838384       0.00000000       0.00000000 -986009.81250000
2
Properties=species:S:1:pos:R:3:forces:R:3 energy=-21394.315086960472 pbc="F F F"
Lu       0.00000000       0.00000000       0.00000000       0.00000000       0.00000000  387772.53125000
Lu       0.00000000       0.00000000       0.39797980       0.00000000       0.00000000 -387772.53125000
2
Properties=species:S:1:pos:R:3:forces:R:3 energy=-6649.281395547885 pbc="F F F"
Lu       0.00000000       0.00000000       0.00000000       0.00000000       0.00000000  143462.26562500
Lu       0.00000000       0.00000000       0.45757576       0.00000000       0.00000000 -143462.26562500
2
Properties=species:S:1:pos:R:3:forces:R:3 energy=-1616.061058614816 pbc="F F F"
Lu       0.00000000       0.00000000       0.00000000       0.00000000       0.00000000   40041.01171875
Lu       0.00000000       0.00000000       0.51717172       0.00000000       0.00000000  -40041.01171875
2
Properties=species:S:1:pos:R:3:forces:R:3 energy=-661.1041494161216 pbc="F F F"
Lu       0.00000000       0.00000000       0.00000000       0.00000000       0.00000000   56508.54296875
Lu       0.00000000       0.00000000       0.57676768       0.00000000       0.00000000  -56508.54296875
2
Properties=species:S:1:pos:R:3:forces:R:3 energy=839.1454844172905 pbc="F F F"
Lu       0.00000000       0.00000000       0.00000000       0.00000000       0.00000000    3307.77319336
Lu       0.00000000       0.00000000       0.63636364       0.00000000       0.00000000   -3307.77319336
2
Properties=species:S:1:pos:R:3:forces:R:3 energy=697.5664439596388 pbc="F F F"
Lu       0.00000000       0.00000000       0.00000000       0.00000000       0.00000000   -4064.93090820
Lu       0.00000000       0.00000000       0.69595960       0.00000000       0.00000000    4064.93090820
2
Properties=species:S:1:pos:R:3:forces:R:3 energy=414.415137915001 pbc="F F F"
Lu       0.00000000       0.00000000       0.00000000       0.00000000       0.00000000   -4290.60449219
Lu       0.00000000       0.00000000       0.75555556       0.00000000       0.00000000    4290.60449219
2
Properties=species:S:1:pos:R:3:forces:R:3 energy=214.97461683949342 pbc="F F F"
Lu       0.00000000       0.00000000       0.00000000       0.00000000       0.00000000   -2096.68286133
Lu       0.00000000       0.00000000       0.81515152       0.00000000       0.00000000    2096.68286133
2
Properties=species:S:1:pos:R:3:forces:R:3 energy=128.6593247155138 pbc="F F F"
Lu       0.00000000       0.00000000       0.00000000       0.00000000       0.00000000    -777.73632812
Lu       0.00000000       0.00000000       0.87474747       0.00000000       0.00000000     777.73632812
2
Properties=species:S:1:pos:R:3:forces:R:3 energy=101.54192392825608 pbc="F F F"
Lu       0.00000000       0.00000000       0.00000000       0.00000000       0.00000000    -311.94204712
Lu       0.00000000       0.00000000       0.93434343       0.00000000       0.00000000     311.94204712
2
Properties=species:S:1:pos:R:3:forces:R:3 energy=83.13724603969591 pbc="F F F"
Lu       0.00000000       0.00000000       0.00000000       0.00000000       0.00000000    -306.82223511
Lu       0.00000000       0.00000000       0.99393939       0.00000000       0.00000000     306.82223511
2
Properties=species:S:1:pos:R:3:forces:R:3 energy=66.43218379437812 pbc="F F F"
Lu       0.00000000       0.00000000       0.00000000       0.00000000       0.00000000    -249.95903015
Lu       0.00000000       0.00000000       1.05353535       0.00000000       0.00000000     249.95903015
2
Properties=species:S:1:pos:R:3:forces:R:3 energy=51.66904681330035 pbc="F F F"
Lu       0.00000000       0.00000000       0.00000000       0.00000000       0.00000000    -231.03451538
Lu       0.00000000       0.00000000       1.11313131       0.00000000       0.00000000     231.03451538
2
Properties=species:S:1:pos:R:3:forces:R:3 energy=39.87403448796808 pbc="F F F"
Lu       0.00000000       0.00000000       0.00000000       0.00000000       0.00000000    -172.11724854
Lu       0.00000000       0.00000000       1.17272727       0.00000000       0.00000000     172.11724854
2
Properties=species:S:1:pos:R:3:forces:R:3 energy=31.203774524095763 pbc="F F F"
Lu       0.00000000       0.00000000       0.00000000       0.00000000       0.00000000    -105.80233002
Lu       0.00000000       0.00000000       1.23232323       0.00000000       0.00000000     105.80233002
2
Properties=species:S:1:pos:R:3:forces:R:3 energy=26.118037225690422 pbc="F F F"
Lu       0.00000000       0.00000000       0.00000000       0.00000000       0.00000000     -68.38201141
Lu       0.00000000       0.00000000       1.29191919       0.00000000       0.00000000      68.38201141
2
Properties=species:S:1:pos:R:3:forces:R:3 energy=22.81495040269053 pbc="F F F"
Lu       0.00000000       0.00000000       0.00000000       0.00000000       0.00000000     -42.95296860
Lu       0.00000000       0.00000000       1.35151515       0.00000000       0.00000000      42.95296860
2
Properties=species:S:1:pos:R:3:forces:R:3 energy=20.407429220871478 pbc="F F F"
Lu       0.00000000       0.00000000       0.00000000       0.00000000       0.00000000     -42.58585358
Lu       0.00000000       0.00000000       1.41111111       0.00000000       0.00000000      42.58585358
2
Properties=species:S:1:pos:R:3:forces:R:3 energy=17.743900613122513 pbc="F F F"
Lu       0.00000000       0.00000000       0.00000000       0.00000000       0.00000000     -41.91922379
Lu       0.00000000       0.00000000       1.47070707       0.00000000       0.00000000      41.91922379
2
Properties=species:S:1:pos:R:3:forces:R:3 energy=15.75365549031219 pbc="F F F"
Lu       0.00000000       0.00000000       0.00000000       0.00000000       0.00000000     -27.73798180
Lu       0.00000000       0.00000000       1.53030303       0.00000000       0.00000000      27.73798180
2
Properties=species:S:1:pos:R:3:forces:R:3 energy=14.143399097879758 pbc="F F F"
Lu       0.00000000       0.00000000       0.00000000       0.00000000       0.00000000     -27.23477554
Lu       0.00000000       0.00000000       1.58989899       0.00000000       0.00000000      27.23477554
2
Properties=species:S:1:pos:R:3:forces:R:3 energy=12.544313355484782 pbc="F F F"
Lu       0.00000000       0.00000000       0.00000000       0.00000000       0.00000000     -25.76603508
Lu       0.00000000       0.00000000       1.64949495       0.00000000       0.00000000      25.76603508
2
Properties=species:S:1:pos:R:3:forces:R:3 energy=10.97232672796485 pbc="F F F"
Lu       0.00000000       0.00000000       0.00000000       0.00000000       0.00000000     -27.52301025
Lu       0.00000000       0.00000000       1.70909091       0.00000000       0.00000000      27.52301025
2
Properties=species:S:1:pos:R:3:forces:R:3 energy=9.373099087189974 pbc="F F F"
Lu       0.00000000       0.00000000       0.00000000       0.00000000       0.00000000     -25.46617317
Lu       0.00000000       0.00000000       1.76868687       0.00000000       0.00000000      25.46617317
2
Properties=species:S:1:pos:R:3:forces:R:3 energy=7.899851842299596 pbc="F F F"
Lu       0.00000000       0.00000000       0.00000000       0.00000000       0.00000000     -24.23245239
Lu       0.00000000       0.00000000       1.82828283       0.00000000       0.00000000      24.23245239
2
Properties=species:S:1:pos:R:3:forces:R:3 energy=6.520147019206402 pbc="F F F"
Lu       0.00000000       0.00000000       0.00000000       0.00000000       0.00000000     -22.02826691
Lu       0.00000000       0.00000000       1.88787879       0.00000000       0.00000000      22.02826691
2
Properties=species:S:1:pos:R:3:forces:R:3 energy=5.267611497424735 pbc="F F F"
Lu       0.00000000       0.00000000       0.00000000       0.00000000       0.00000000     -19.94540024
Lu       0.00000000       0.00000000       1.94747475       0.00000000       0.00000000      19.94540024
2
Properties=species:S:1:pos:R:3:forces:R:3 energy=4.150443460524011 pbc="F F F"
Lu       0.00000000       0.00000000       0.00000000       0.00000000       0.00000000     -17.56762505
Lu       0.00000000       0.00000000       2.00707071       0.00000000       0.00000000      17.56762505
2
Properties=species:S:1:pos:R:3:forces:R:3 energy=3.161736817257343 pbc="F F F"
Lu       0.00000000       0.00000000       0.00000000       0.00000000       0.00000000     -15.65811157
Lu       0.00000000       0.00000000       2.06666667       0.00000000       0.00000000      15.65811157
2
Properties=species:S:1:pos:R:3:forces:R:3 energy=2.292865098596196 pbc="F F F"
Lu       0.00000000       0.00000000       0.00000000       0.00000000       0.00000000     -13.43444729
Lu       0.00000000       0.00000000       2.12626263       0.00000000       0.00000000      13.43444729
2
Properties=species:S:1:pos:R:3:forces:R:3 energy=1.5515993623934805 pbc="F F F"
Lu       0.00000000       0.00000000       0.00000000       0.00000000       0.00000000     -11.57847500
Lu       0.00000000       0.00000000       2.18585859       0.00000000       0.00000000      11.57847500
2
Properties=species:S:1:pos:R:3:forces:R:3 energy=0.9086557142945857 pbc="F F F"
Lu       0.00000000       0.00000000       0.00000000       0.00000000       0.00000000      -9.97270775
Lu       0.00000000       0.00000000       2.24545455       0.00000000       0.00000000       9.97270775
2
Properties=species:S:1:pos:R:3:forces:R:3 energy=0.361870900840015 pbc="F F F"
Lu       0.00000000       0.00000000       0.00000000       0.00000000       0.00000000      -8.39949226
Lu       0.00000000       0.00000000       2.30505051       0.00000000       0.00000000       8.39949226
2
Properties=species:S:1:pos:R:3:forces:R:3 energy=-0.09598035867348062 pbc="F F F"
Lu       0.00000000       0.00000000       0.00000000       0.00000000       0.00000000      -7.02161407
Lu       0.00000000       0.00000000       2.36464646       0.00000000       0.00000000       7.02161407
2
Properties=species:S:1:pos:R:3:forces:R:3 energy=-0.48286545642141854 pbc="F F F"
Lu       0.00000000       0.00000000       0.00000000       0.00000000       0.00000000      -6.01247644
Lu       0.00000000       0.00000000       2.42424242       0.00000000       0.00000000       6.01247644
2
Properties=species:S:1:pos:R:3:forces:R:3 energy=-0.8168347732517766 pbc="F F F"
Lu       0.00000000       0.00000000       0.00000000       0.00000000       0.00000000      -5.21804333
Lu       0.00000000       0.00000000       2.48383838       0.00000000       0.00000000       5.21804333
2
Properties=species:S:1:pos:R:3:forces:R:3 energy=-1.1056378002952565 pbc="F F F"
Lu       0.00000000       0.00000000       0.00000000       0.00000000       0.00000000      -4.47717047
Lu       0.00000000       0.00000000       2.54343434       0.00000000       0.00000000       4.47717047
2
Properties=species:S:1:pos:R:3:forces:R:3 energy=-1.3526295924672247 pbc="F F F"
Lu       0.00000000       0.00000000       0.00000000       0.00000000       0.00000000      -3.84154081
Lu       0.00000000       0.00000000       2.60303030       0.00000000       0.00000000       3.84154081
2
Properties=species:S:1:pos:R:3:forces:R:3 energy=-1.566754499782176 pbc="F F F"
Lu       0.00000000       0.00000000       0.00000000       0.00000000       0.00000000      -3.36256909
Lu       0.00000000       0.00000000       2.66262626       0.00000000       0.00000000       3.36256909
2
Properties=species:S:1:pos:R:3:forces:R:3 energy=-1.7543504993547994 pbc="F F F"
Lu       0.00000000       0.00000000       0.00000000       0.00000000       0.00000000      -2.93308115
Lu       0.00000000       0.00000000       2.72222222       0.00000000       0.00000000       2.93308115
2
Properties=species:S:1:pos:R:3:forces:R:3 energy=-1.9161953112459877 pbc="F F F"
Lu       0.00000000       0.00000000       0.00000000       0.00000000       0.00000000      -2.49882722
Lu       0.00000000       0.00000000       2.78181818       0.00000000       0.00000000       2.49882722
2
Properties=species:S:1:pos:R:3:forces:R:3 energy=-2.0526978433176013 pbc="F F F"
Lu       0.00000000       0.00000000       0.00000000       0.00000000       0.00000000      -2.08945727
Lu       0.00000000       0.00000000       2.84141414       0.00000000       0.00000000       2.08945727
2
Properties=species:S:1:pos:R:3:forces:R:3 energy=-2.16629792424421 pbc="F F F"
Lu       0.00000000       0.00000000       0.00000000       0.00000000       0.00000000      -1.73241282
Lu       0.00000000       0.00000000       2.90101010       0.00000000       0.00000000       1.73241282
2
Properties=species:S:1:pos:R:3:forces:R:3 energy=-2.2602555932976482 pbc="F F F"
Lu       0.00000000       0.00000000       0.00000000       0.00000000       0.00000000      -1.42866838
Lu       0.00000000       0.00000000       2.96060606       0.00000000       0.00000000       1.42866838
2
Properties=species:S:1:pos:R:3:forces:R:3 energy=-2.3373500541605967 pbc="F F F"
Lu       0.00000000       0.00000000       0.00000000       0.00000000       0.00000000      -1.16385961
Lu       0.00000000       0.00000000       3.02020202       0.00000000       0.00000000       1.16385961
2
Properties=species:S:1:pos:R:3:forces:R:3 energy=-2.3995757189167097 pbc="F F F"
Lu       0.00000000       0.00000000       0.00000000       0.00000000       0.00000000      -0.92961526
Lu       0.00000000       0.00000000       3.07979798       0.00000000       0.00000000       0.92961526
2
Properties=species:S:1:pos:R:3:forces:R:3 energy=-2.448863689677389 pbc="F F F"
Lu       0.00000000       0.00000000       0.00000000       0.00000000       0.00000000      -0.73099154
Lu       0.00000000       0.00000000       3.13939394       0.00000000       0.00000000       0.73099154
2
Properties=species:S:1:pos:R:3:forces:R:3 energy=-2.4874778882191744 pbc="F F F"
Lu       0.00000000       0.00000000       0.00000000       0.00000000       0.00000000      -0.57104802
Lu       0.00000000       0.00000000       3.19898990       0.00000000       0.00000000       0.57104802
2
Properties=species:S:1:pos:R:3:forces:R:3 energy=-2.517559256681299 pbc="F F F"
Lu       0.00000000       0.00000000       0.00000000       0.00000000       0.00000000      -0.44262087
Lu       0.00000000       0.00000000       3.25858586       0.00000000       0.00000000       0.44262087
2
Properties=species:S:1:pos:R:3:forces:R:3 energy=-2.5406246857396306 pbc="F F F"
Lu       0.00000000       0.00000000       0.00000000       0.00000000       0.00000000      -0.33382609
Lu       0.00000000       0.00000000       3.31818182       0.00000000       0.00000000       0.33382609
2
Properties=species:S:1:pos:R:3:forces:R:3 energy=-2.557575074825013 pbc="F F F"
Lu       0.00000000       0.00000000       0.00000000       0.00000000       0.00000000      -0.23660658
Lu       0.00000000       0.00000000       3.37777778       0.00000000       0.00000000       0.23660658
2
Properties=species:S:1:pos:R:3:forces:R:3 energy=-2.5690059828602885 pbc="F F F"
Lu       0.00000000       0.00000000       0.00000000       0.00000000       0.00000000      -0.14851363
Lu       0.00000000       0.00000000       3.43737374       0.00000000       0.00000000       0.14851363
2
Properties=species:S:1:pos:R:3:forces:R:3 energy=-2.5754205700655626 pbc="F F F"
Lu       0.00000000       0.00000000       0.00000000       0.00000000       0.00000000      -0.06771850
Lu       0.00000000       0.00000000       3.49696970       0.00000000       0.00000000       0.06771850
2
Properties=species:S:1:pos:R:3:forces:R:3 energy=-2.577164374301672 pbc="F F F"
Lu       0.00000000       0.00000000       0.00000000       0.00000000       0.00000000       0.00868201
Lu       0.00000000       0.00000000       3.55656566       0.00000000       0.00000000      -0.00868201
2
Properties=species:S:1:pos:R:3:forces:R:3 energy=-2.574440981676128 pbc="F F F"
Lu       0.00000000       0.00000000       0.00000000       0.00000000       0.00000000       0.08211274
Lu       0.00000000       0.00000000       3.61616162       0.00000000       0.00000000      -0.08211274
2
Properties=species:S:1:pos:R:3:forces:R:3 energy=-2.5674557969460547 pbc="F F F"
Lu       0.00000000       0.00000000       0.00000000       0.00000000       0.00000000       0.15151599
Lu       0.00000000       0.00000000       3.67575758       0.00000000       0.00000000      -0.15151599
2
Properties=species:S:1:pos:R:3:forces:R:3 energy=-2.5565048936207218 pbc="F F F"
Lu       0.00000000       0.00000000       0.00000000       0.00000000       0.00000000       0.21488988
Lu       0.00000000       0.00000000       3.73535354       0.00000000       0.00000000      -0.21488988
2
Properties=species:S:1:pos:R:3:forces:R:3 energy=-2.5419910933763936 pbc="F F F"
Lu       0.00000000       0.00000000       0.00000000       0.00000000       0.00000000       0.27084747
Lu       0.00000000       0.00000000       3.79494949       0.00000000       0.00000000      -0.27084747
2
Properties=species:S:1:pos:R:3:forces:R:3 energy=-2.524376510423704 pbc="F F F"
Lu       0.00000000       0.00000000       0.00000000       0.00000000       0.00000000       0.31896263
Lu       0.00000000       0.00000000       3.85454545       0.00000000       0.00000000      -0.31896263
2
Properties=species:S:1:pos:R:3:forces:R:3 energy=-2.5041252423496494 pbc="F F F"
Lu       0.00000000       0.00000000       0.00000000       0.00000000       0.00000000       0.35940638
Lu       0.00000000       0.00000000       3.91414141       0.00000000       0.00000000      -0.35940638
2
Properties=species:S:1:pos:R:3:forces:R:3 energy=-2.481683387306458 pbc="F F F"
Lu       0.00000000       0.00000000       0.00000000       0.00000000       0.00000000       0.39260235
Lu       0.00000000       0.00000000       3.97373737       0.00000000       0.00000000      -0.39260235
2
Properties=species:S:1:pos:R:3:forces:R:3 energy=-2.4574629645967385 pbc="F F F"
Lu       0.00000000       0.00000000       0.00000000       0.00000000       0.00000000       0.41915160
Lu       0.00000000       0.00000000       4.03333333       0.00000000       0.00000000      -0.41915160
2
Properties=species:S:1:pos:R:3:forces:R:3 energy=-2.4318399439684053 pbc="F F F"
Lu       0.00000000       0.00000000       0.00000000       0.00000000       0.00000000       0.43981776
Lu       0.00000000       0.00000000       4.09292929       0.00000000       0.00000000      -0.43981776
2
Properties=species:S:1:pos:R:3:forces:R:3 energy=-2.4051419365475843 pbc="F F F"
Lu       0.00000000       0.00000000       0.00000000       0.00000000       0.00000000       0.45537534
Lu       0.00000000       0.00000000       4.15252525       0.00000000       0.00000000      -0.45537534
2
Properties=species:S:1:pos:R:3:forces:R:3 energy=-2.377653992912245 pbc="F F F"
Lu       0.00000000       0.00000000       0.00000000       0.00000000       0.00000000       0.46636483
Lu       0.00000000       0.00000000       4.21212121       0.00000000       0.00000000      -0.46636483
2
Properties=species:S:1:pos:R:3:forces:R:3 energy=-2.3496424576213966 pbc="F F F"
Lu       0.00000000       0.00000000       0.00000000       0.00000000       0.00000000       0.47296360
Lu       0.00000000       0.00000000       4.27171717       0.00000000       0.00000000      -0.47296360
2
Properties=species:S:1:pos:R:3:forces:R:3 energy=-2.321369312343702 pbc="F F F"
Lu       0.00000000       0.00000000       0.00000000       0.00000000       0.00000000       0.47509748
Lu       0.00000000       0.00000000       4.33131313       0.00000000       0.00000000      -0.47509748
2
Properties=species:S:1:pos:R:3:forces:R:3 energy=-2.2931046623226097 pbc="F F F"
Lu       0.00000000       0.00000000       0.00000000       0.00000000       0.00000000       0.47267771
Lu       0.00000000       0.00000000       4.39090909       0.00000000       0.00000000      -0.47267771
2
Properties=species:S:1:pos:R:3:forces:R:3 energy=-2.2651190816392472 pbc="F F F"
Lu       0.00000000       0.00000000       0.00000000       0.00000000       0.00000000       0.46583152
Lu       0.00000000       0.00000000       4.45050505       0.00000000       0.00000000      -0.46583152
2
Properties=species:S:1:pos:R:3:forces:R:3 energy=-2.237659885396107 pbc="F F F"
Lu       0.00000000       0.00000000       0.00000000       0.00000000       0.00000000       0.45496643
Lu       0.00000000       0.00000000       4.51010101       0.00000000       0.00000000      -0.45496643
2
Properties=species:S:1:pos:R:3:forces:R:3 energy=-2.210955796718318 pbc="F F F"
Lu       0.00000000       0.00000000       0.00000000       0.00000000       0.00000000       0.44071105
Lu       0.00000000       0.00000000       4.56969697       0.00000000       0.00000000      -0.44071105
2
Properties=species:S:1:pos:R:3:forces:R:3 energy=-2.185182779205012 pbc="F F F"
Lu       0.00000000       0.00000000       0.00000000       0.00000000       0.00000000       0.42383537
Lu       0.00000000       0.00000000       4.62929293       0.00000000       0.00000000      -0.42383537
2
Properties=species:S:1:pos:R:3:forces:R:3 energy=-2.1604734469595943 pbc="F F F"
Lu       0.00000000       0.00000000       0.00000000       0.00000000       0.00000000       0.40515527
Lu       0.00000000       0.00000000       4.68888889       0.00000000       0.00000000      -0.40515527
2
Properties=species:S:1:pos:R:3:forces:R:3 energy=-2.1369104775685566 pbc="F F F"
Lu       0.00000000       0.00000000       0.00000000       0.00000000       0.00000000       0.38550785
Lu       0.00000000       0.00000000       4.74848485       0.00000000       0.00000000      -0.38550785
2
Properties=species:S:1:pos:R:3:forces:R:3 energy=-2.114528367394641 pbc="F F F"
Lu       0.00000000       0.00000000       0.00000000       0.00000000       0.00000000       0.36572647
Lu       0.00000000       0.00000000       4.80808081       0.00000000       0.00000000      -0.36572647
2
Properties=species:S:1:pos:R:3:forces:R:3 energy=-2.0933088025894353 pbc="F F F"
Lu       0.00000000       0.00000000       0.00000000       0.00000000       0.00000000       0.34658894
Lu       0.00000000       0.00000000       4.86767677       0.00000000       0.00000000      -0.34658894
2
Properties=species:S:1:pos:R:3:forces:R:3 energy=-2.0731919004445523 pbc="F F F"
Lu       0.00000000       0.00000000       0.00000000       0.00000000       0.00000000       0.32871661
Lu       0.00000000       0.00000000       4.92727273       0.00000000       0.00000000      -0.32871661
2
Properties=species:S:1:pos:R:3:forces:R:3 energy=-2.0540953018848898 pbc="F F F"
Lu       0.00000000       0.00000000       0.00000000       0.00000000       0.00000000       0.31243733
Lu       0.00000000       0.00000000       4.98686869       0.00000000       0.00000000      -0.31243733
2
Properties=species:S:1:pos:R:3:forces:R:3 energy=-2.035922672174103 pbc="F F F"
Lu       0.00000000       0.00000000       0.00000000       0.00000000       0.00000000       0.29767385
Lu       0.00000000       0.00000000       5.04646465       0.00000000       0.00000000      -0.29767385
2
Properties=species:S:1:pos:R:3:forces:R:3 energy=-2.0185950454541595 pbc="F F F"
Lu       0.00000000       0.00000000       0.00000000       0.00000000       0.00000000       0.28389555
Lu       0.00000000       0.00000000       5.10606061       0.00000000       0.00000000      -0.28389555
2
Properties=species:S:1:pos:R:3:forces:R:3 energy=-2.0020803601387493 pbc="F F F"
Lu       0.00000000       0.00000000       0.00000000       0.00000000       0.00000000       0.27017930
Lu       0.00000000       0.00000000       5.16565657       0.00000000       0.00000000      -0.27017930
2
Properties=species:S:1:pos:R:3:forces:R:3 energy=-1.9864124468684148 pbc="F F F"
Lu       0.00000000       0.00000000       0.00000000       0.00000000       0.00000000       0.25540328
Lu       0.00000000       0.00000000       5.22525253       0.00000000       0.00000000      -0.25540328
2
Properties=species:S:1:pos:R:3:forces:R:3 energy=-1.9716822807149508 pbc="F F F"
Lu       0.00000000       0.00000000       0.00000000       0.00000000       0.00000000       0.23848625
Lu       0.00000000       0.00000000       5.28484848       0.00000000       0.00000000      -0.23848625
2
Properties=species:S:1:pos:R:3:forces:R:3 energy=-1.9580437190664142 pbc="F F F"
Lu       0.00000000       0.00000000       0.00000000       0.00000000       0.00000000       0.21866207
Lu       0.00000000       0.00000000       5.34444444       0.00000000       0.00000000      -0.21866207
2
Properties=species:S:1:pos:R:3:forces:R:3 energy=-1.9456828066509588 pbc="F F F"
Lu       0.00000000       0.00000000       0.00000000       0.00000000       0.00000000       0.19570006
Lu       0.00000000       0.00000000       5.40404040       0.00000000       0.00000000      -0.19570006
2
Properties=species:S:1:pos:R:3:forces:R:3 energy=-1.9347719960018255 pbc="F F F"
Lu       0.00000000       0.00000000       0.00000000       0.00000000       0.00000000       0.17000583
Lu       0.00000000       0.00000000       5.46363636       0.00000000       0.00000000      -0.17000583
2
Properties=species:S:1:pos:R:3:forces:R:3 energy=-1.9254547872979706 pbc="F F F"
Lu       0.00000000       0.00000000       0.00000000       0.00000000       0.00000000       0.14263162
Lu       0.00000000       0.00000000       5.52323232       0.00000000       0.00000000      -0.14263162
2
Properties=species:S:1:pos:R:3:forces:R:3 energy=-1.9177770416385302 pbc="F F F"
Lu       0.00000000       0.00000000       0.00000000       0.00000000       0.00000000       0.11508348
Lu       0.00000000       0.00000000       5.58282828       0.00000000       0.00000000      -0.11508348
2
Properties=species:S:1:pos:R:3:forces:R:3 energy=-1.9117068973296898 pbc="F F F"
Lu       0.00000000       0.00000000       0.00000000       0.00000000       0.00000000       0.08913322
Lu       0.00000000       0.00000000       5.64242424       0.00000000       0.00000000      -0.08913322
2
Properties=species:S:1:pos:R:3:forces:R:3 energy=-1.907088084192689 pbc="F F F"
Lu       0.00000000       0.00000000       0.00000000       0.00000000       0.00000000       0.06645864
Lu       0.00000000       0.00000000       5.70202020       0.00000000       0.00000000      -0.06645864
2
Properties=species:S:1:pos:R:3:forces:R:3 energy=-1.9036933008151427 pbc="F F F"
Lu       0.00000000       0.00000000       0.00000000       0.00000000       0.00000000       0.04839443
Lu       0.00000000       0.00000000       5.76161616       0.00000000       0.00000000      -0.04839443
2
Properties=species:S:1:pos:R:3:forces:R:3 energy=-1.9012165059609547 pbc="F F F"
Lu       0.00000000       0.00000000       0.00000000       0.00000000       0.00000000       0.03559826
Lu       0.00000000       0.00000000       5.82121212       0.00000000       0.00000000      -0.03559826
2
Properties=species:S:1:pos:R:3:forces:R:3 energy=-1.8993464465273466 pbc="F F F"
Lu       0.00000000       0.00000000       0.00000000       0.00000000       0.00000000       0.02793895
Lu       0.00000000       0.00000000       5.88080808       0.00000000       0.00000000      -0.02793895
2
Properties=species:S:1:pos:R:3:forces:R:3 energy=-1.8978028338124375 pbc="F F F"
Lu       0.00000000       0.00000000       0.00000000       0.00000000       0.00000000       0.02438220
Lu       0.00000000       0.00000000       5.94040404       0.00000000       0.00000000      -0.02438220
2
Properties=species:S:1:pos:R:3:forces:R:3 energy=-1.8963926958311101 pbc="F F F"
Lu       0.00000000       0.00000000       0.00000000       0.00000000       0.00000000       0.02315903
Lu       0.00000000       0.00000000       6.00000000       0.00000000       0.00000000      -0.02315903
