2
Properties=species:S:1:pos:R:3:forces:R:3 energy=-4327394.115012928 pbc="F F F"
Pa       0.00000000       0.00000000       0.00000000       0.00000000       0.00000000 43985620.00000000
Pa       0.00000000       0.00000000       0.18000000       0.00000000       0.00000000 -43985620.00000000
2
Properties=species:S:1:pos:R:3:forces:R:3 energy=-2107189.6150129274 pbc="F F F"
Pa       0.00000000       0.00000000       0.00000000       0.00000000       0.00000000 30516430.00000000
Pa       0.00000000       0.00000000       0.23878788       0.00000000       0.00000000 -30516430.00000000
2
Properties=species:S:1:pos:R:3:forces:R:3 energy=-770037.4275129277 pbc="F F F"
Pa       0.00000000       0.00000000       0.00000000       0.00000000       0.00000000 15418972.00000000
Pa       0.00000000       0.00000000       0.29757576       0.00000000       0.00000000 -15418972.00000000
2
Properties=species:S:1:pos:R:3:forces:R:3 energy=-193182.06813791496 pbc="F F F"
Pa       0.00000000       0.00000000       0.00000000       0.00000000       0.00000000 5191046.00000000
Pa       0.00000000       0.00000000       0.35636364       0.00000000       0.00000000 -5191046.00000000
2
Properties=species:S:1:pos:R:3:forces:R:3 energy=-31289.870872289954 pbc="F F F"
Pa       0.00000000       0.00000000       0.00000000       0.00000000       0.00000000 1170801.25000000
Pa       0.00000000       0.00000000       0.41515152       0.00000000       0.00000000 -1170801.25000000
2
Properties=species:S:1:pos:R:3:forces:R:3 energy=-2289.007346886657 pbc="F F F"
Pa       0.00000000       0.00000000       0.00000000       0.00000000       0.00000000  110860.46875000
Pa       0.00000000       0.00000000       0.47393939       0.00000000       0.00000000 -110860.46875000
2
Properties=species:S:1:pos:R:3:forces:R:3 energy=-79.71572852681774 pbc="F F F"
Pa       0.00000000       0.00000000       0.00000000       0.00000000       0.00000000    7424.09472656
Pa       0.00000000       0.00000000       0.53272727       0.00000000       0.00000000   -7424.09472656
2
Properties=species:S:1:pos:R:3:forces:R:3 energy=54.076050062977956 pbc="F F F"
Pa       0.00000000       0.00000000       0.00000000       0.00000000       0.00000000    -131.40061951
Pa       0.00000000       0.00000000       0.59151515       0.00000000       0.00000000     131.40061951
2
Properties=species:S:1:pos:R:3:forces:R:3 energy=45.2262652499176 pbc="F F F"
Pa       0.00000000       0.00000000       0.00000000       0.00000000       0.00000000     -95.89196777
Pa       0.00000000       0.00000000       0.65030303       0.00000000       0.00000000      95.89196777
2
Properties=species:S:1:pos:R:3:forces:R:3 energy=42.622368218547486 pbc="F F F"
Pa       0.00000000       0.00000000       0.00000000       0.00000000       0.00000000      35.75022888
Pa       0.00000000       0.00000000       0.70909091       0.00000000       0.00000000     -35.75022888
2
Properties=species:S:1:pos:R:3:forces:R:3 energy=45.093597873140446 pbc="F F F"
Pa       0.00000000       0.00000000       0.00000000       0.00000000       0.00000000      52.57612991
Pa       0.00000000       0.00000000       0.76787879       0.00000000       0.00000000     -52.57612991
2
Properties=species:S:1:pos:R:3:forces:R:3 energy=48.52487242658712 pbc="F F F"
Pa       0.00000000       0.00000000       0.00000000       0.00000000       0.00000000      45.84675217
Pa       0.00000000       0.00000000       0.82666667       0.00000000       0.00000000     -45.84675217
2
Properties=species:S:1:pos:R:3:forces:R:3 energy=47.76380239053419 pbc="F F F"
Pa       0.00000000       0.00000000       0.00000000       0.00000000       0.00000000     -68.37823486
Pa       0.00000000       0.00000000       0.88545455       0.00000000       0.00000000      68.37823486
2
Properties=species:S:1:pos:R:3:forces:R:3 energy=41.74612534950234 pbc="F F F"
Pa       0.00000000       0.00000000       0.00000000       0.00000000       0.00000000    -135.31642151
Pa       0.00000000       0.00000000       0.94424242       0.00000000       0.00000000     135.31642151
2
Properties=species:S:1:pos:R:3:forces:R:3 energy=31.52304607358709 pbc="F F F"
Pa       0.00000000       0.00000000       0.00000000       0.00000000       0.00000000    -213.87886047
Pa       0.00000000       0.00000000       1.00303030       0.00000000       0.00000000     213.87886047
2
Properties=species:S:1:pos:R:3:forces:R:3 energy=19.305162542060508 pbc="F F F"
Pa       0.00000000       0.00000000       0.00000000       0.00000000       0.00000000    -204.22561646
Pa       0.00000000       0.00000000       1.06181818       0.00000000       0.00000000     204.22561646
2
Properties=species:S:1:pos:R:3:forces:R:3 energy=8.09251675460638 pbc="F F F"
Pa       0.00000000       0.00000000       0.00000000       0.00000000       0.00000000    -160.53236389
Pa       0.00000000       0.00000000       1.12060606       0.00000000       0.00000000     160.53236389
2
Properties=species:S:1:pos:R:3:forces:R:3 energy=0.04010946122665926 pbc="F F F"
Pa       0.00000000       0.00000000       0.00000000       0.00000000       0.00000000    -114.83617401
Pa       0.00000000       0.00000000       1.17939394       0.00000000       0.00000000     114.83617401
2
Properties=species:S:1:pos:R:3:forces:R:3 energy=-6.381115836465768 pbc="F F F"
Pa       0.00000000       0.00000000       0.00000000       0.00000000       0.00000000     -85.63622284
Pa       0.00000000       0.00000000       1.23818182       0.00000000       0.00000000      85.63622284
2
Properties=species:S:1:pos:R:3:forces:R:3 energy=-9.800928425713384 pbc="F F F"
Pa       0.00000000       0.00000000       0.00000000       0.00000000       0.00000000     -35.63178253
Pa       0.00000000       0.00000000       1.29696970       0.00000000       0.00000000      35.63178253
2
Properties=species:S:1:pos:R:3:forces:R:3 energy=-11.062533669782498 pbc="F F F"
Pa       0.00000000       0.00000000       0.00000000       0.00000000       0.00000000     -10.22578239
Pa       0.00000000       0.00000000       1.35575758       0.00000000       0.00000000      10.22578239
2
Properties=species:S:1:pos:R:3:forces:R:3 energy=-11.463159339471162 pbc="F F F"
Pa       0.00000000       0.00000000       0.00000000       0.00000000       0.00000000      -5.44422483
Pa       0.00000000       0.00000000       1.41454545       0.00000000       0.00000000       5.44422483
2
Properties=species:S:1:pos:R:3:forces:R:3 energy=-11.671674351963755 pbc="F F F"
Pa       0.00000000       0.00000000       0.00000000       0.00000000       0.00000000      -0.77629620
Pa       0.00000000       0.00000000       1.47333333       0.00000000       0.00000000       0.77629620
2
Properties=species:S:1:pos:R:3:forces:R:3 energy=-11.538719869171606 pbc="F F F"
Pa       0.00000000       0.00000000       0.00000000       0.00000000       0.00000000       3.84705806
Pa       0.00000000       0.00000000       1.53212121       0.00000000       0.00000000      -3.84705806
2
Properties=species:S:1:pos:R:3:forces:R:3 energy=-11.37029456656689 pbc="F F F"
Pa       0.00000000       0.00000000       0.00000000       0.00000000       0.00000000       1.80518937
Pa       0.00000000       0.00000000       1.59090909       0.00000000       0.00000000      -1.80518937
2
Properties=species:S:1:pos:R:3:forces:R:3 energy=-11.272743443448345 pbc="F F F"
Pa       0.00000000       0.00000000       0.00000000       0.00000000       0.00000000       1.86051011
Pa       0.00000000       0.00000000       1.64969697       0.00000000       0.00000000      -1.86051011
2
Properties=species:S:1:pos:R:3:forces:R:3 energy=-11.15444591518033 pbc="F F F"
Pa       0.00000000       0.00000000       0.00000000       0.00000000       0.00000000       1.95138645
Pa       0.00000000       0.00000000       1.70848485       0.00000000       0.00000000      -1.95138645
2
Properties=species:S:1:pos:R:3:forces:R:3 energy=-11.0424184187317 pbc="F F F"
Pa       0.00000000       0.00000000       0.00000000       0.00000000       0.00000000       1.89958751
Pa       0.00000000       0.00000000       1.76727273       0.00000000       0.00000000      -1.89958751
2
Properties=species:S:1:pos:R:3:forces:R:3 energy=-10.950524314899436 pbc="F F F"
Pa       0.00000000       0.00000000       0.00000000       0.00000000       0.00000000       1.36108947
Pa       0.00000000       0.00000000       1.82606061       0.00000000       0.00000000      -1.36108947
2
Properties=species:S:1:pos:R:3:forces:R:3 energy=-10.853377518971923 pbc="F F F"
Pa       0.00000000       0.00000000       0.00000000       0.00000000       0.00000000       1.81196284
Pa       0.00000000       0.00000000       1.88484848       0.00000000       0.00000000      -1.81196284
2
Properties=species:S:1:pos:R:3:forces:R:3 energy=-10.755605920967048 pbc="F F F"
Pa       0.00000000       0.00000000       0.00000000       0.00000000       0.00000000       1.61464906
Pa       0.00000000       0.00000000       1.94363636       0.00000000       0.00000000      -1.61464906
2
Properties=species:S:1:pos:R:3:forces:R:3 energy=-10.663573110829835 pbc="F F F"
Pa       0.00000000       0.00000000       0.00000000       0.00000000       0.00000000       1.44745505
Pa       0.00000000       0.00000000       2.00242424       0.00000000       0.00000000      -1.44745505
2
Properties=species:S:1:pos:R:3:forces:R:3 energy=-10.58959353021196 pbc="F F F"
Pa       0.00000000       0.00000000       0.00000000       0.00000000       0.00000000       1.09040475
Pa       0.00000000       0.00000000       2.06121212       0.00000000       0.00000000      -1.09040475
2
Properties=species:S:1:pos:R:3:forces:R:3 energy=-10.524492490064805 pbc="F F F"
Pa       0.00000000       0.00000000       0.00000000       0.00000000       0.00000000       1.25263369
Pa       0.00000000       0.00000000       2.12000000       0.00000000       0.00000000      -1.25263369
2
Properties=species:S:1:pos:R:3:forces:R:3 energy=-10.438426241852541 pbc="F F F"
Pa       0.00000000       0.00000000       0.00000000       0.00000000       0.00000000       1.60578513
Pa       0.00000000       0.00000000       2.17878788       0.00000000       0.00000000      -1.60578513
2
Properties=species:S:1:pos:R:3:forces:R:3 energy=-10.337142124513765 pbc="F F F"
Pa       0.00000000       0.00000000       0.00000000       0.00000000       0.00000000       1.88482034
Pa       0.00000000       0.00000000       2.23757576       0.00000000       0.00000000      -1.88482034
2
Properties=species:S:1:pos:R:3:forces:R:3 energy=-10.218410894319486 pbc="F F F"
Pa       0.00000000       0.00000000       0.00000000       0.00000000       0.00000000       2.11361122
Pa       0.00000000       0.00000000       2.29636364       0.00000000       0.00000000      -2.11361122
2
Properties=species:S:1:pos:R:3:forces:R:3 energy=-10.089562900874514 pbc="F F F"
Pa       0.00000000       0.00000000       0.00000000       0.00000000       0.00000000       2.27393651
Pa       0.00000000       0.00000000       2.35515152       0.00000000       0.00000000      -2.27393651
2
Properties=species:S:1:pos:R:3:forces:R:3 energy=-9.952659354486487 pbc="F F F"
Pa       0.00000000       0.00000000       0.00000000       0.00000000       0.00000000       2.36196709
Pa       0.00000000       0.00000000       2.41393939       0.00000000       0.00000000      -2.36196709
2
Properties=species:S:1:pos:R:3:forces:R:3 energy=-9.815165988499276 pbc="F F F"
Pa       0.00000000       0.00000000       0.00000000       0.00000000       0.00000000       2.27642655
Pa       0.00000000       0.00000000       2.47272727       0.00000000       0.00000000      -2.27642655
2
Properties=species:S:1:pos:R:3:forces:R:3 energy=-9.688680629671696 pbc="F F F"
Pa       0.00000000       0.00000000       0.00000000       0.00000000       0.00000000       2.01303172
Pa       0.00000000       0.00000000       2.53151515       0.00000000       0.00000000      -2.01303172
2
Properties=species:S:1:pos:R:3:forces:R:3 energy=-9.579612099450557 pbc="F F F"
Pa       0.00000000       0.00000000       0.00000000       0.00000000       0.00000000       1.68335867
Pa       0.00000000       0.00000000       2.59030303       0.00000000       0.00000000      -1.68335867
2
Properties=species:S:1:pos:R:3:forces:R:3 energy=-9.492280685201026 pbc="F F F"
Pa       0.00000000       0.00000000       0.00000000       0.00000000       0.00000000       1.28302836
Pa       0.00000000       0.00000000       2.64909091       0.00000000       0.00000000      -1.28302836
2
Properties=species:S:1:pos:R:3:forces:R:3 energy=-9.428093059867471 pbc="F F F"
Pa       0.00000000       0.00000000       0.00000000       0.00000000       0.00000000       0.91363710
Pa       0.00000000       0.00000000       2.70787879       0.00000000       0.00000000      -0.91363710
2
Properties=species:S:1:pos:R:3:forces:R:3 energy=-9.383091465693195 pbc="F F F"
Pa       0.00000000       0.00000000       0.00000000       0.00000000       0.00000000       0.63208592
Pa       0.00000000       0.00000000       2.76666667       0.00000000       0.00000000      -0.63208592
2
Properties=species:S:1:pos:R:3:forces:R:3 energy=-9.352184036089955 pbc="F F F"
Pa       0.00000000       0.00000000       0.00000000       0.00000000       0.00000000       0.43124422
Pa       0.00000000       0.00000000       2.82545455       0.00000000       0.00000000      -0.43124422
2
Properties=species:S:1:pos:R:3:forces:R:3 energy=-9.33127843118084 pbc="F F F"
Pa       0.00000000       0.00000000       0.00000000       0.00000000       0.00000000       0.28711960
Pa       0.00000000       0.00000000       2.88424242       0.00000000       0.00000000      -0.28711960
2
Properties=species:S:1:pos:R:3:forces:R:3 energy=-9.317750703439142 pbc="F F F"
Pa       0.00000000       0.00000000       0.00000000       0.00000000       0.00000000       0.17815794
Pa       0.00000000       0.00000000       2.94303030       0.00000000       0.00000000      -0.17815794
2
Properties=species:S:1:pos:R:3:forces:R:3 energy=-9.309726544036002 pbc="F F F"
Pa       0.00000000       0.00000000       0.00000000       0.00000000       0.00000000       0.10010965
Pa       0.00000000       0.00000000       3.00181818       0.00000000       0.00000000      -0.10010965
2
Properties=species:S:1:pos:R:3:forces:R:3 energy=-9.30546504450526 pbc="F F F"
Pa       0.00000000       0.00000000       0.00000000       0.00000000       0.00000000       0.04752415
Pa       0.00000000       0.00000000       3.06060606       0.00000000       0.00000000      -0.04752415
2
Properties=species:S:1:pos:R:3:forces:R:3 energy=-9.304106288708503 pbc="F F F"
Pa       0.00000000       0.00000000       0.00000000       0.00000000       0.00000000      -0.00306314
Pa       0.00000000       0.00000000       3.11939394       0.00000000       0.00000000       0.00306314
2
Properties=species:S:1:pos:R:3:forces:R:3 energy=-9.306084572582405 pbc="F F F"
Pa       0.00000000       0.00000000       0.00000000       0.00000000       0.00000000      -0.06584223
Pa       0.00000000       0.00000000       3.17818182       0.00000000       0.00000000       0.06584223
2
Properties=species:S:1:pos:R:3:forces:R:3 energy=-9.311882538014146 pbc="F F F"
Pa       0.00000000       0.00000000       0.00000000       0.00000000       0.00000000      -0.13004404
Pa       0.00000000       0.00000000       3.23696970       0.00000000       0.00000000       0.13004404
2
Properties=species:S:1:pos:R:3:forces:R:3 energy=-9.321071076230552 pbc="F F F"
Pa       0.00000000       0.00000000       0.00000000       0.00000000       0.00000000      -0.17928115
Pa       0.00000000       0.00000000       3.29575758       0.00000000       0.00000000       0.17928115
2
Properties=species:S:1:pos:R:3:forces:R:3 energy=-9.33251729215552 pbc="F F F"
Pa       0.00000000       0.00000000       0.00000000       0.00000000       0.00000000      -0.20644541
Pa       0.00000000       0.00000000       3.35454545       0.00000000       0.00000000       0.20644541
2
Properties=species:S:1:pos:R:3:forces:R:3 energy=-9.344961021205052 pbc="F F F"
Pa       0.00000000       0.00000000       0.00000000       0.00000000       0.00000000      -0.21401598
Pa       0.00000000       0.00000000       3.41333333       0.00000000       0.00000000       0.21401598
2
Properties=species:S:1:pos:R:3:forces:R:3 energy=-9.357375036082834 pbc="F F F"
Pa       0.00000000       0.00000000       0.00000000       0.00000000       0.00000000      -0.20587461
Pa       0.00000000       0.00000000       3.47212121       0.00000000       0.00000000       0.20587461
2
Properties=species:S:1:pos:R:3:forces:R:3 energy=-9.368863387094718 pbc="F F F"
Pa       0.00000000       0.00000000       0.00000000       0.00000000       0.00000000      -0.18206443
Pa       0.00000000       0.00000000       3.53090909       0.00000000       0.00000000       0.18206443
2
Properties=species:S:1:pos:R:3:forces:R:3 energy=-9.378459603332294 pbc="F F F"
Pa       0.00000000       0.00000000       0.00000000       0.00000000       0.00000000      -0.14183588
Pa       0.00000000       0.00000000       3.58969697       0.00000000       0.00000000       0.14183588
2
Properties=species:S:1:pos:R:3:forces:R:3 energy=-9.385261924356492 pbc="F F F"
Pa       0.00000000       0.00000000       0.00000000       0.00000000       0.00000000      -0.08759326
Pa       0.00000000       0.00000000       3.64848485       0.00000000       0.00000000       0.08759326
2
Properties=species:S:1:pos:R:3:forces:R:3 energy=-9.388584170808905 pbc="F F F"
Pa       0.00000000       0.00000000       0.00000000       0.00000000       0.00000000      -0.02446369
Pa       0.00000000       0.00000000       3.70727273       0.00000000       0.00000000       0.02446369
2
Properties=species:S:1:pos:R:3:forces:R:3 energy=-9.38807003327429 pbc="F F F"
Pa       0.00000000       0.00000000       0.00000000       0.00000000       0.00000000       0.04227422
Pa       0.00000000       0.00000000       3.76606061       0.00000000       0.00000000      -0.04227422
2
Properties=species:S:1:pos:R:3:forces:R:3 energy=-9.38362157204943 pbc="F F F"
Pa       0.00000000       0.00000000       0.00000000       0.00000000       0.00000000       0.10872349
Pa       0.00000000       0.00000000       3.82484848       0.00000000       0.00000000      -0.10872349
2
Properties=species:S:1:pos:R:3:forces:R:3 energy=-9.375339211688905 pbc="F F F"
Pa       0.00000000       0.00000000       0.00000000       0.00000000       0.00000000       0.17240025
Pa       0.00000000       0.00000000       3.88363636       0.00000000       0.00000000      -0.17240025
2
Properties=species:S:1:pos:R:3:forces:R:3 energy=-9.363440666016936 pbc="F F F"
Pa       0.00000000       0.00000000       0.00000000       0.00000000       0.00000000       0.23164484
Pa       0.00000000       0.00000000       3.94242424       0.00000000       0.00000000      -0.23164484
2
Properties=species:S:1:pos:R:3:forces:R:3 energy=-9.348215174431472 pbc="F F F"
Pa       0.00000000       0.00000000       0.00000000       0.00000000       0.00000000       0.28522977
Pa       0.00000000       0.00000000       4.00121212       0.00000000       0.00000000      -0.28522977
2
Properties=species:S:1:pos:R:3:forces:R:3 energy=-9.330029287306528 pbc="F F F"
Pa       0.00000000       0.00000000       0.00000000       0.00000000       0.00000000       0.33227751
Pa       0.00000000       0.00000000       4.06000000       0.00000000       0.00000000      -0.33227751
2
Properties=species:S:1:pos:R:3:forces:R:3 energy=-9.309286773657044 pbc="F F F"
Pa       0.00000000       0.00000000       0.00000000       0.00000000       0.00000000       0.37230936
Pa       0.00000000       0.00000000       4.11878788       0.00000000       0.00000000      -0.37230936
2
Properties=species:S:1:pos:R:3:forces:R:3 energy=-9.286396329260645 pbc="F F F"
Pa       0.00000000       0.00000000       0.00000000       0.00000000       0.00000000       0.40517995
Pa       0.00000000       0.00000000       4.17757576       0.00000000       0.00000000      -0.40517995
2
Properties=species:S:1:pos:R:3:forces:R:3 energy=-9.26178772576458 pbc="F F F"
Pa       0.00000000       0.00000000       0.00000000       0.00000000       0.00000000       0.43092734
Pa       0.00000000       0.00000000       4.23636364       0.00000000       0.00000000      -0.43092734
2
Properties=species:S:1:pos:R:3:forces:R:3 energy=-9.235866142024497 pbc="F F F"
Pa       0.00000000       0.00000000       0.00000000       0.00000000       0.00000000       0.44964856
Pa       0.00000000       0.00000000       4.29515152       0.00000000       0.00000000      -0.44964856
2
Properties=species:S:1:pos:R:3:forces:R:3 energy=-9.209049395416628 pbc="F F F"
Pa       0.00000000       0.00000000       0.00000000       0.00000000       0.00000000       0.46151191
Pa       0.00000000       0.00000000       4.35393939       0.00000000       0.00000000      -0.46151191
2
Properties=species:S:1:pos:R:3:forces:R:3 energy=-9.181730697854318 pbc="F F F"
Pa       0.00000000       0.00000000       0.00000000       0.00000000       0.00000000       0.46683186
Pa       0.00000000       0.00000000       4.41272727       0.00000000       0.00000000      -0.46683186
2
Properties=species:S:1:pos:R:3:forces:R:3 energy=-9.154280734199038 pbc="F F F"
Pa       0.00000000       0.00000000       0.00000000       0.00000000       0.00000000       0.46615252
Pa       0.00000000       0.00000000       4.47151515       0.00000000       0.00000000      -0.46615252
2
Properties=species:S:1:pos:R:3:forces:R:3 energy=-9.127025696072893 pbc="F F F"
Pa       0.00000000       0.00000000       0.00000000       0.00000000       0.00000000       0.46024674
Pa       0.00000000       0.00000000       4.53030303       0.00000000       0.00000000      -0.46024674
2
Properties=species:S:1:pos:R:3:forces:R:3 energy=-9.100251121898461 pbc="F F F"
Pa       0.00000000       0.00000000       0.00000000       0.00000000       0.00000000       0.45004562
Pa       0.00000000       0.00000000       4.58909091       0.00000000       0.00000000      -0.45004562
2
Properties=species:S:1:pos:R:3:forces:R:3 energy=-9.074175339737758 pbc="F F F"
Pa       0.00000000       0.00000000       0.00000000       0.00000000       0.00000000       0.43656921
Pa       0.00000000       0.00000000       4.64787879       0.00000000       0.00000000      -0.43656921
2
Properties=species:S:1:pos:R:3:forces:R:3 energy=-9.048964586697121 pbc="F F F"
Pa       0.00000000       0.00000000       0.00000000       0.00000000       0.00000000       0.42083991
Pa       0.00000000       0.00000000       4.70666667       0.00000000       0.00000000      -0.42083991
2
Properties=species:S:1:pos:R:3:forces:R:3 energy=-9.024716051865772 pbc="F F F"
Pa       0.00000000       0.00000000       0.00000000       0.00000000       0.00000000       0.40386140
Pa       0.00000000       0.00000000       4.76545455       0.00000000       0.00000000      -0.40386140
2
Properties=species:S:1:pos:R:3:forces:R:3 energy=-9.00148354949464 pbc="F F F"
Pa       0.00000000       0.00000000       0.00000000       0.00000000       0.00000000       0.38658583
Pa       0.00000000       0.00000000       4.82424242       0.00000000       0.00000000      -0.38658583
2
Properties=species:S:1:pos:R:3:forces:R:3 energy=-8.979255673186096 pbc="F F F"
Pa       0.00000000       0.00000000       0.00000000       0.00000000       0.00000000       0.36985770
Pa       0.00000000       0.00000000       4.88303030       0.00000000       0.00000000      -0.36985770
2
Properties=species:S:1:pos:R:3:forces:R:3 energy=-8.957979530045904 pbc="F F F"
Pa       0.00000000       0.00000000       0.00000000       0.00000000       0.00000000       0.35431096
Pa       0.00000000       0.00000000       4.94181818       0.00000000       0.00000000      -0.35431096
2
Properties=species:S:1:pos:R:3:forces:R:3 energy=-8.937569444129327 pbc="F F F"
Pa       0.00000000       0.00000000       0.00000000       0.00000000       0.00000000       0.34024969
Pa       0.00000000       0.00000000       5.00060606       0.00000000       0.00000000      -0.34024969
2
Properties=species:S:1:pos:R:3:forces:R:3 energy=-8.917944137068163 pbc="F F F"
Pa       0.00000000       0.00000000       0.00000000       0.00000000       0.00000000       0.32751620
Pa       0.00000000       0.00000000       5.05939394       0.00000000       0.00000000      -0.32751620
2
Properties=species:S:1:pos:R:3:forces:R:3 energy=-8.899046641189802 pbc="F F F"
Pa       0.00000000       0.00000000       0.00000000       0.00000000       0.00000000       0.31547487
Pa       0.00000000       0.00000000       5.11818182       0.00000000       0.00000000      -0.31547487
2
Properties=species:S:1:pos:R:3:forces:R:3 energy=-8.880859577313215 pbc="F F F"
Pa       0.00000000       0.00000000       0.00000000       0.00000000       0.00000000       0.30306607
Pa       0.00000000       0.00000000       5.17696970       0.00000000       0.00000000      -0.30306607
2
Properties=species:S:1:pos:R:3:forces:R:3 energy=-8.86344620709407 pbc="F F F"
Pa       0.00000000       0.00000000       0.00000000       0.00000000       0.00000000       0.28900960
Pa       0.00000000       0.00000000       5.23575758       0.00000000       0.00000000      -0.28900960
2
Properties=species:S:1:pos:R:3:forces:R:3 energy=-8.846937794504143 pbc="F F F"
Pa       0.00000000       0.00000000       0.00000000       0.00000000       0.00000000       0.27207428
Pa       0.00000000       0.00000000       5.29454545       0.00000000       0.00000000      -0.27207428
2
Properties=species:S:1:pos:R:3:forces:R:3 energy=-8.831528035840872 pbc="F F F"
Pa       0.00000000       0.00000000       0.00000000       0.00000000       0.00000000       0.25138265
Pa       0.00000000       0.00000000       5.35333333       0.00000000       0.00000000      -0.25138265
2
Properties=species:S:1:pos:R:3:forces:R:3 energy=-8.817460452884989 pbc="F F F"
Pa       0.00000000       0.00000000       0.00000000       0.00000000       0.00000000       0.22667548
Pa       0.00000000       0.00000000       5.41212121       0.00000000       0.00000000      -0.22667548
2
Properties=species:S:1:pos:R:3:forces:R:3 energy=-8.804946307217222 pbc="F F F"
Pa       0.00000000       0.00000000       0.00000000       0.00000000       0.00000000       0.19844712
Pa       0.00000000       0.00000000       5.47090909       0.00000000       0.00000000      -0.19844712
2
Properties=species:S:1:pos:R:3:forces:R:3 energy=-8.794173170615846 pbc="F F F"
Pa       0.00000000       0.00000000       0.00000000       0.00000000       0.00000000       0.16793673
Pa       0.00000000       0.00000000       5.52969697       0.00000000       0.00000000      -0.16793673
2
Properties=species:S:1:pos:R:3:forces:R:3 energy=-8.785212329948985 pbc="F F F"
Pa       0.00000000       0.00000000       0.00000000       0.00000000       0.00000000       0.13696229
Pa       0.00000000       0.00000000       5.58848485       0.00000000       0.00000000      -0.13696229
2
Properties=species:S:1:pos:R:3:forces:R:3 energy=-8.778037721276753 pbc="F F F"
Pa       0.00000000       0.00000000       0.00000000       0.00000000       0.00000000       0.10764303
Pa       0.00000000       0.00000000       5.64727273       0.00000000       0.00000000      -0.10764303
2
Properties=species:S:1:pos:R:3:forces:R:3 energy=-8.77248771952216 pbc="F F F"
Pa       0.00000000       0.00000000       0.00000000       0.00000000       0.00000000       0.08199167
Pa       0.00000000       0.00000000       5.70606061       0.00000000       0.00000000      -0.08199167
2
Properties=species:S:1:pos:R:3:forces:R:3 energy=-8.768291854023264 pbc="F F F"
Pa       0.00000000       0.00000000       0.00000000       0.00000000       0.00000000       0.06157793
Pa       0.00000000       0.00000000       5.76484848       0.00000000       0.00000000      -0.06157793
2
Properties=species:S:1:pos:R:3:forces:R:3 energy=-8.765124074910704 pbc="F F F"
Pa       0.00000000       0.00000000       0.00000000       0.00000000       0.00000000       0.04723433
Pa       0.00000000       0.00000000       5.82363636       0.00000000       0.00000000      -0.04723433
2
Properties=species:S:1:pos:R:3:forces:R:3 energy=-8.762622659891116 pbc="F F F"
Pa       0.00000000       0.00000000       0.00000000       0.00000000       0.00000000       0.03879626
Pa       0.00000000       0.00000000       5.88242424       0.00000000       0.00000000      -0.03879626
2
Properties=species:S:1:pos:R:3:forces:R:3 energy=-8.76047425796421 pbc="F F F"
Pa       0.00000000       0.00000000       0.00000000       0.00000000       0.00000000       0.03506548
Pa       0.00000000       0.00000000       5.94121212       0.00000000       0.00000000      -0.03506548
2
Properties=species:S:1:pos:R:3:forces:R:3 energy=-8.75844895679275 pbc="F F F"
Pa       0.00000000       0.00000000       0.00000000       0.00000000       0.00000000       0.03397926
Pa       0.00000000       0.00000000       6.00000000       0.00000000       0.00000000      -0.03397926
