2
Properties=species:S:1:pos:R:3:forces:R:3 energy=-1357967.7934273032 pbc="F F F"
Pb       0.00000000       0.00000000       0.00000000       0.00000000       0.00000000 16009444.00000000
Pb       0.00000000       0.00000000       0.18000000       0.00000000       0.00000000 -16009444.00000000
2
Properties=species:S:1:pos:R:3:forces:R:3 energy=-586139.4184273032 pbc="F F F"
Pb       0.00000000       0.00000000       0.00000000       0.00000000       0.00000000 10012488.00000000
Pb       0.00000000       0.00000000       0.23878788       0.00000000       0.00000000 -10012488.00000000
2
Properties=species:S:1:pos:R:3:forces:R:3 energy=-171393.6371773032 pbc="F F F"
Pb       0.00000000       0.00000000       0.00000000       0.00000000       0.00000000 4396905.00000000
Pb       0.00000000       0.00000000       0.29757576       0.00000000       0.00000000 -4396905.00000000
2
Properties=species:S:1:pos:R:3:forces:R:3 energy=-21793.29147417819 pbc="F F F"
Pb       0.00000000       0.00000000       0.00000000       0.00000000       0.00000000 1108012.50000000
Pb       0.00000000       0.00000000       0.35636364       0.00000000       0.00000000 -1108012.50000000
2
Properties=species:S:1:pos:R:3:forces:R:3 energy=-1424.2719429250233 pbc="F F F"
Pb       0.00000000       0.00000000       0.00000000       0.00000000       0.00000000   58855.12890625
Pb       0.00000000       0.00000000       0.41515152       0.00000000       0.00000000  -58855.12890625
2
Properties=species:S:1:pos:R:3:forces:R:3 energy=-108.13284379759388 pbc="F F F"
Pb       0.00000000       0.00000000       0.00000000       0.00000000       0.00000000    4162.51171875
Pb       0.00000000       0.00000000       0.47393939       0.00000000       0.00000000   -4162.51171875
2
Properties=species:S:1:pos:R:3:forces:R:3 energy=-10.644655041331275 pbc="F F F"
Pb       0.00000000       0.00000000       0.00000000       0.00000000       0.00000000     465.95028687
Pb       0.00000000       0.00000000       0.53272727       0.00000000       0.00000000    -465.95028687
2
Properties=species:S:1:pos:R:3:forces:R:3 energy=18.350131237020044 pbc="F F F"
Pb       0.00000000       0.00000000       0.00000000       0.00000000       0.00000000      88.95318604
Pb       0.00000000       0.00000000       0.59151515       0.00000000       0.00000000     -88.95318604
2
Properties=species:S:1:pos:R:3:forces:R:3 energy=15.614421127823118 pbc="F F F"
Pb       0.00000000       0.00000000       0.00000000       0.00000000       0.00000000     -79.63731384
Pb       0.00000000       0.00000000       0.65030303       0.00000000       0.00000000      79.63731384
2
Properties=species:S:1:pos:R:3:forces:R:3 energy=10.569018651652804 pbc="F F F"
Pb       0.00000000       0.00000000       0.00000000       0.00000000       0.00000000     -86.50100708
Pb       0.00000000       0.00000000       0.70909091       0.00000000       0.00000000      86.50100708
2
Properties=species:S:1:pos:R:3:forces:R:3 energy=6.320173627277703 pbc="F F F"
Pb       0.00000000       0.00000000       0.00000000       0.00000000       0.00000000     -53.13332367
Pb       0.00000000       0.00000000       0.76787879       0.00000000       0.00000000      53.13332367
2
Properties=species:S:1:pos:R:3:forces:R:3 energy=4.610904217698695 pbc="F F F"
Pb       0.00000000       0.00000000       0.00000000       0.00000000       0.00000000       0.28792238
Pb       0.00000000       0.00000000       0.82666667       0.00000000       0.00000000      -0.28792238
2
Properties=species:S:1:pos:R:3:forces:R:3 energy=5.420599623093074 pbc="F F F"
Pb       0.00000000       0.00000000       0.00000000       0.00000000       0.00000000      17.78340721
Pb       0.00000000       0.00000000       0.88545455       0.00000000       0.00000000     -17.78340721
2
Properties=species:S:1:pos:R:3:forces:R:3 energy=6.026047620341307 pbc="F F F"
Pb       0.00000000       0.00000000       0.00000000       0.00000000       0.00000000      -0.09659504
Pb       0.00000000       0.00000000       0.94424242       0.00000000       0.00000000       0.09659504
2
Properties=species:S:1:pos:R:3:forces:R:3 energy=5.290676344295056 pbc="F F F"
Pb       0.00000000       0.00000000       0.00000000       0.00000000       0.00000000      -3.78043365
Pb       0.00000000       0.00000000       1.00303030       0.00000000       0.00000000       3.78043365
2
Properties=species:S:1:pos:R:3:forces:R:3 energy=10.20851009069465 pbc="F F F"
Pb       0.00000000       0.00000000       0.00000000       0.00000000       0.00000000     148.48837280
Pb       0.00000000       0.00000000       1.06181818       0.00000000       0.00000000    -148.48837280
2
Properties=species:S:1:pos:R:3:forces:R:3 energy=21.44760252773594 pbc="F F F"
Pb       0.00000000       0.00000000       0.00000000       0.00000000       0.00000000     210.85281372
Pb       0.00000000       0.00000000       1.12060606       0.00000000       0.00000000    -210.85281372
2
Properties=species:S:1:pos:R:3:forces:R:3 energy=32.64800456882302 pbc="F F F"
Pb       0.00000000       0.00000000       0.00000000       0.00000000       0.00000000     139.28393555
Pb       0.00000000       0.00000000       1.17939394       0.00000000       0.00000000    -139.28393555
2
Properties=species:S:1:pos:R:3:forces:R:3 energy=37.983447108525134 pbc="F F F"
Pb       0.00000000       0.00000000       0.00000000       0.00000000       0.00000000      38.60451889
Pb       0.00000000       0.00000000       1.23818182       0.00000000       0.00000000     -38.60451889
2
Properties=species:S:1:pos:R:3:forces:R:3 energy=38.91013746975023 pbc="F F F"
Pb       0.00000000       0.00000000       0.00000000       0.00000000       0.00000000      -1.24466574
Pb       0.00000000       0.00000000       1.29696970       0.00000000       0.00000000       1.24466574
2
Properties=species:S:1:pos:R:3:forces:R:3 energy=38.677022859409455 pbc="F F F"
Pb       0.00000000       0.00000000       0.00000000       0.00000000       0.00000000      -7.77331543
Pb       0.00000000       0.00000000       1.35575758       0.00000000       0.00000000       7.77331543
2
Properties=species:S:1:pos:R:3:forces:R:3 energy=37.5739974385275 pbc="F F F"
Pb       0.00000000       0.00000000       0.00000000       0.00000000       0.00000000     -28.58502960
Pb       0.00000000       0.00000000       1.41454545       0.00000000       0.00000000      28.58502960
2
Properties=species:S:1:pos:R:3:forces:R:3 energy=35.518312882717446 pbc="F F F"
Pb       0.00000000       0.00000000       0.00000000       0.00000000       0.00000000     -43.39638519
Pb       0.00000000       0.00000000       1.47333333       0.00000000       0.00000000      43.39638519
2
Properties=species:S:1:pos:R:3:forces:R:3 energy=32.290753878108454 pbc="F F F"
Pb       0.00000000       0.00000000       0.00000000       0.00000000       0.00000000     -62.98283386
Pb       0.00000000       0.00000000       1.53212121       0.00000000       0.00000000      62.98283386
2
Properties=species:S:1:pos:R:3:forces:R:3 energy=28.479552572811738 pbc="F F F"
Pb       0.00000000       0.00000000       0.00000000       0.00000000       0.00000000     -66.51097107
Pb       0.00000000       0.00000000       1.59090909       0.00000000       0.00000000      66.51097107
2
Properties=species:S:1:pos:R:3:forces:R:3 energy=24.439979472946728 pbc="F F F"
Pb       0.00000000       0.00000000       0.00000000       0.00000000       0.00000000     -70.63849640
Pb       0.00000000       0.00000000       1.64969697       0.00000000       0.00000000      70.63849640
2
Properties=species:S:1:pos:R:3:forces:R:3 energy=20.162608588282957 pbc="F F F"
Pb       0.00000000       0.00000000       0.00000000       0.00000000       0.00000000     -74.02011871
Pb       0.00000000       0.00000000       1.70848485       0.00000000       0.00000000      74.02011871
2
Properties=species:S:1:pos:R:3:forces:R:3 energy=15.960748780360555 pbc="F F F"
Pb       0.00000000       0.00000000       0.00000000       0.00000000       0.00000000     -68.25792694
Pb       0.00000000       0.00000000       1.76727273       0.00000000       0.00000000      68.25792694
2
Properties=species:S:1:pos:R:3:forces:R:3 energy=12.082704593642989 pbc="F F F"
Pb       0.00000000       0.00000000       0.00000000       0.00000000       0.00000000     -63.53973007
Pb       0.00000000       0.00000000       1.82606061       0.00000000       0.00000000      63.53973007
2
Properties=species:S:1:pos:R:3:forces:R:3 energy=8.582139465648124 pbc="F F F"
Pb       0.00000000       0.00000000       0.00000000       0.00000000       0.00000000     -55.42951965
Pb       0.00000000       0.00000000       1.88484848       0.00000000       0.00000000      55.42951965
2
Properties=species:S:1:pos:R:3:forces:R:3 energy=5.597621542623022 pbc="F F F"
Pb       0.00000000       0.00000000       0.00000000       0.00000000       0.00000000     -45.63757324
Pb       0.00000000       0.00000000       1.94363636       0.00000000       0.00000000      45.63757324
2
Properties=species:S:1:pos:R:3:forces:R:3 energy=3.217088407692383 pbc="F F F"
Pb       0.00000000       0.00000000       0.00000000       0.00000000       0.00000000     -35.68454742
Pb       0.00000000       0.00000000       2.00242424       0.00000000       0.00000000      35.68454742
2
Properties=species:S:1:pos:R:3:forces:R:3 energy=1.3702182775388132 pbc="F F F"
Pb       0.00000000       0.00000000       0.00000000       0.00000000       0.00000000     -27.39957619
Pb       0.00000000       0.00000000       2.06121212       0.00000000       0.00000000      27.39957619
2
Properties=species:S:1:pos:R:3:forces:R:3 energy=-0.04037587024082238 pbc="F F F"
Pb       0.00000000       0.00000000       0.00000000       0.00000000       0.00000000     -20.86281204
Pb       0.00000000       0.00000000       2.12000000       0.00000000       0.00000000      20.86281204
2
Properties=species:S:1:pos:R:3:forces:R:3 energy=-1.1128702108751973 pbc="F F F"
Pb       0.00000000       0.00000000       0.00000000       0.00000000       0.00000000     -15.89250565
Pb       0.00000000       0.00000000       2.17878788       0.00000000       0.00000000      15.89250565
2
Properties=species:S:1:pos:R:3:forces:R:3 energy=-1.9338366073431317 pbc="F F F"
Pb       0.00000000       0.00000000       0.00000000       0.00000000       0.00000000     -12.18221951
Pb       0.00000000       0.00000000       2.23757576       0.00000000       0.00000000      12.18221951
2
Properties=species:S:1:pos:R:3:forces:R:3 energy=-2.5617544939355565 pbc="F F F"
Pb       0.00000000       0.00000000       0.00000000       0.00000000       0.00000000      -9.32604122
Pb       0.00000000       0.00000000       2.29636364       0.00000000       0.00000000       9.32604122
2
Properties=species:S:1:pos:R:3:forces:R:3 energy=-3.0455289106507752 pbc="F F F"
Pb       0.00000000       0.00000000       0.00000000       0.00000000       0.00000000      -7.23354006
Pb       0.00000000       0.00000000       2.35515152       0.00000000       0.00000000       7.23354006
2
Properties=species:S:1:pos:R:3:forces:R:3 energy=-3.420880362734063 pbc="F F F"
Pb       0.00000000       0.00000000       0.00000000       0.00000000       0.00000000      -5.58429909
Pb       0.00000000       0.00000000       2.41393939       0.00000000       0.00000000       5.58429909
2
Properties=species:S:1:pos:R:3:forces:R:3 energy=-3.706437419766461 pbc="F F F"
Pb       0.00000000       0.00000000       0.00000000       0.00000000       0.00000000      -4.16654587
Pb       0.00000000       0.00000000       2.47272727       0.00000000       0.00000000       4.16654587
2
Properties=species:S:1:pos:R:3:forces:R:3 energy=-3.9150696917324974 pbc="F F F"
Pb       0.00000000       0.00000000       0.00000000       0.00000000       0.00000000      -2.96701050
Pb       0.00000000       0.00000000       2.53151515       0.00000000       0.00000000       2.96701050
2
Properties=species:S:1:pos:R:3:forces:R:3 energy=-4.0597117461761725 pbc="F F F"
Pb       0.00000000       0.00000000       0.00000000       0.00000000       0.00000000      -1.99380827
Pb       0.00000000       0.00000000       2.59030303       0.00000000       0.00000000       1.99380827
2
Properties=species:S:1:pos:R:3:forces:R:3 energy=-4.154013590112473 pbc="F F F"
Pb       0.00000000       0.00000000       0.00000000       0.00000000       0.00000000      -1.24797964
Pb       0.00000000       0.00000000       2.64909091       0.00000000       0.00000000       1.24797964
2
Properties=species:S:1:pos:R:3:forces:R:3 energy=-4.209461250833701 pbc="F F F"
Pb       0.00000000       0.00000000       0.00000000       0.00000000       0.00000000      -0.65611726
Pb       0.00000000       0.00000000       2.70787879       0.00000000       0.00000000       0.65611726
2
Properties=species:S:1:pos:R:3:forces:R:3 energy=-4.232753830918548 pbc="F F F"
Pb       0.00000000       0.00000000       0.00000000       0.00000000       0.00000000      -0.14946510
Pb       0.00000000       0.00000000       2.76666667       0.00000000       0.00000000       0.14946510
2
Properties=species:S:1:pos:R:3:forces:R:3 energy=-4.228924614172896 pbc="F F F"
Pb       0.00000000       0.00000000       0.00000000       0.00000000       0.00000000       0.26073238
Pb       0.00000000       0.00000000       2.82545455       0.00000000       0.00000000      -0.26073238
2
Properties=species:S:1:pos:R:3:forces:R:3 energy=-4.2044387106832755 pbc="F F F"
Pb       0.00000000       0.00000000       0.00000000       0.00000000       0.00000000       0.55305409
Pb       0.00000000       0.00000000       2.88424242       0.00000000       0.00000000      -0.55305409
2
Properties=species:S:1:pos:R:3:forces:R:3 energy=-4.165889504403583 pbc="F F F"
Pb       0.00000000       0.00000000       0.00000000       0.00000000       0.00000000       0.74437219
Pb       0.00000000       0.00000000       2.94303030       0.00000000       0.00000000      -0.74437219
2
Properties=species:S:1:pos:R:3:forces:R:3 energy=-4.118206182599692 pbc="F F F"
Pb       0.00000000       0.00000000       0.00000000       0.00000000       0.00000000       0.86967188
Pb       0.00000000       0.00000000       3.00181818       0.00000000       0.00000000      -0.86967188
2
Properties=species:S:1:pos:R:3:forces:R:3 energy=-4.064362158438911 pbc="F F F"
Pb       0.00000000       0.00000000       0.00000000       0.00000000       0.00000000       0.95732737
Pb       0.00000000       0.00000000       3.06060606       0.00000000       0.00000000      -0.95732737
2
Properties=species:S:1:pos:R:3:forces:R:3 energy=-4.006152509307224 pbc="F F F"
Pb       0.00000000       0.00000000       0.00000000       0.00000000       0.00000000       1.01890004
Pb       0.00000000       0.00000000       3.11939394       0.00000000       0.00000000      -1.01890004
2
Properties=species:S:1:pos:R:3:forces:R:3 energy=-3.9450449395960367 pbc="F F F"
Pb       0.00000000       0.00000000       0.00000000       0.00000000       0.00000000       1.05594611
Pb       0.00000000       0.00000000       3.17818182       0.00000000       0.00000000      -1.05594611
2
Properties=species:S:1:pos:R:3:forces:R:3 energy=-3.8824686095001995 pbc="F F F"
Pb       0.00000000       0.00000000       0.00000000       0.00000000       0.00000000       1.06909239
Pb       0.00000000       0.00000000       3.23696970       0.00000000       0.00000000      -1.06909239
2
Properties=species:S:1:pos:R:3:forces:R:3 energy=-3.8197775189353673 pbc="F F F"
Pb       0.00000000       0.00000000       0.00000000       0.00000000       0.00000000       1.06027818
Pb       0.00000000       0.00000000       3.29575758       0.00000000       0.00000000      -1.06027818
2
Properties=species:S:1:pos:R:3:forces:R:3 energy=-3.758157300303207 pbc="F F F"
Pb       0.00000000       0.00000000       0.00000000       0.00000000       0.00000000       1.03361928
Pb       0.00000000       0.00000000       3.35454545       0.00000000       0.00000000      -1.03361928
2
Properties=species:S:1:pos:R:3:forces:R:3 energy=-3.6984647055381834 pbc="F F F"
Pb       0.00000000       0.00000000       0.00000000       0.00000000       0.00000000       0.99603051
Pb       0.00000000       0.00000000       3.41333333       0.00000000       0.00000000      -0.99603051
2
Properties=species:S:1:pos:R:3:forces:R:3 energy=-3.641102165802864 pbc="F F F"
Pb       0.00000000       0.00000000       0.00000000       0.00000000       0.00000000       0.95559269
Pb       0.00000000       0.00000000       3.47212121       0.00000000       0.00000000      -0.95559269
2
Properties=species:S:1:pos:R:3:forces:R:3 energy=-3.5860516972916043 pbc="F F F"
Pb       0.00000000       0.00000000       0.00000000       0.00000000       0.00000000       0.91793621
Pb       0.00000000       0.00000000       3.53090909       0.00000000       0.00000000      -0.91793621
2
Properties=species:S:1:pos:R:3:forces:R:3 energy=-3.5330992222449904 pbc="F F F"
Pb       0.00000000       0.00000000       0.00000000       0.00000000       0.00000000       0.88400435
Pb       0.00000000       0.00000000       3.58969697       0.00000000       0.00000000      -0.88400435
2
Properties=species:S:1:pos:R:3:forces:R:3 energy=-3.48208362495552 pbc="F F F"
Pb       0.00000000       0.00000000       0.00000000       0.00000000       0.00000000       0.85157782
Pb       0.00000000       0.00000000       3.64848485       0.00000000       0.00000000      -0.85157782
2
Properties=species:S:1:pos:R:3:forces:R:3 energy=-3.432993627082584 pbc="F F F"
Pb       0.00000000       0.00000000       0.00000000       0.00000000       0.00000000       0.81827217
Pb       0.00000000       0.00000000       3.70727273       0.00000000       0.00000000      -0.81827217
2
Properties=species:S:1:pos:R:3:forces:R:3 energy=-3.3859099320562374 pbc="F F F"
Pb       0.00000000       0.00000000       0.00000000       0.00000000       0.00000000       0.78323603
Pb       0.00000000       0.00000000       3.76606061       0.00000000       0.00000000      -0.78323603
2
Properties=species:S:1:pos:R:3:forces:R:3 energy=-3.340923764922687 pbc="F F F"
Pb       0.00000000       0.00000000       0.00000000       0.00000000       0.00000000       0.74716508
Pb       0.00000000       0.00000000       3.82484848       0.00000000       0.00000000      -0.74716508
2
Properties=species:S:1:pos:R:3:forces:R:3 energy=-3.298056486691713 pbc="F F F"
Pb       0.00000000       0.00000000       0.00000000       0.00000000       0.00000000       0.71142018
Pb       0.00000000       0.00000000       3.88363636       0.00000000       0.00000000      -0.71142018
2
Properties=species:S:1:pos:R:3:forces:R:3 energy=-3.2572501559558433 pbc="F F F"
Pb       0.00000000       0.00000000       0.00000000       0.00000000       0.00000000       0.67707980
Pb       0.00000000       0.00000000       3.94242424       0.00000000       0.00000000      -0.67707980
2
Properties=species:S:1:pos:R:3:forces:R:3 energy=-3.218412821765035 pbc="F F F"
Pb       0.00000000       0.00000000       0.00000000       0.00000000       0.00000000       0.64448857
Pb       0.00000000       0.00000000       4.00121212       0.00000000       0.00000000      -0.64448857
2
Properties=species:S:1:pos:R:3:forces:R:3 energy=-3.181444166311555 pbc="F F F"
Pb       0.00000000       0.00000000       0.00000000       0.00000000       0.00000000       0.61343527
Pb       0.00000000       0.00000000       4.06000000       0.00000000       0.00000000      -0.61343527
2
Properties=species:S:1:pos:R:3:forces:R:3 energy=-3.1462639120991516 pbc="F F F"
Pb       0.00000000       0.00000000       0.00000000       0.00000000       0.00000000       0.58362275
Pb       0.00000000       0.00000000       4.11878788       0.00000000       0.00000000      -0.58362275
2
Properties=species:S:1:pos:R:3:forces:R:3 energy=-3.112800551921628 pbc="F F F"
Pb       0.00000000       0.00000000       0.00000000       0.00000000       0.00000000       0.55500793
Pb       0.00000000       0.00000000       4.17757576       0.00000000       0.00000000      -0.55500793
2
Properties=species:S:1:pos:R:3:forces:R:3 energy=-3.080979244040352 pbc="F F F"
Pb       0.00000000       0.00000000       0.00000000       0.00000000       0.00000000       0.52786362
Pb       0.00000000       0.00000000       4.23636364       0.00000000       0.00000000      -0.52786362
2
Properties=species:S:1:pos:R:3:forces:R:3 energy=-3.0506993643279396 pbc="F F F"
Pb       0.00000000       0.00000000       0.00000000       0.00000000       0.00000000       0.50264961
Pb       0.00000000       0.00000000       4.29515152       0.00000000       0.00000000      -0.50264961
2
Properties=species:S:1:pos:R:3:forces:R:3 energy=-3.0218339105578447 pbc="F F F"
Pb       0.00000000       0.00000000       0.00000000       0.00000000       0.00000000       0.47982001
Pb       0.00000000       0.00000000       4.35393939       0.00000000       0.00000000      -0.47982001
2
Properties=species:S:1:pos:R:3:forces:R:3 energy=-2.9942333931293517 pbc="F F F"
Pb       0.00000000       0.00000000       0.00000000       0.00000000       0.00000000       0.45963973
Pb       0.00000000       0.00000000       4.41272727       0.00000000       0.00000000      -0.45963973
2
Properties=species:S:1:pos:R:3:forces:R:3 energy=-2.9677399136031175 pbc="F F F"
Pb       0.00000000       0.00000000       0.00000000       0.00000000       0.00000000       0.44205076
Pb       0.00000000       0.00000000       4.47151515       0.00000000       0.00000000      -0.44205076
2
Properties=species:S:1:pos:R:3:forces:R:3 energy=-2.9422148149206997 pbc="F F F"
Pb       0.00000000       0.00000000       0.00000000       0.00000000       0.00000000       0.42661744
Pb       0.00000000       0.00000000       4.53030303       0.00000000       0.00000000      -0.42661744
2
Properties=species:S:1:pos:R:3:forces:R:3 energy=-2.917551581350407 pbc="F F F"
Pb       0.00000000       0.00000000       0.00000000       0.00000000       0.00000000       0.41259935
Pb       0.00000000       0.00000000       4.58909091       0.00000000       0.00000000      -0.41259935
2
Properties=species:S:1:pos:R:3:forces:R:3 energy=-2.8936926735076547 pbc="F F F"
Pb       0.00000000       0.00000000       0.00000000       0.00000000       0.00000000       0.39916834
Pb       0.00000000       0.00000000       4.64787879       0.00000000       0.00000000      -0.39916834
2
Properties=species:S:1:pos:R:3:forces:R:3 energy=-2.870621181368792 pbc="F F F"
Pb       0.00000000       0.00000000       0.00000000       0.00000000       0.00000000       0.38564605
Pb       0.00000000       0.00000000       4.70666667       0.00000000       0.00000000      -0.38564605
2
Properties=species:S:1:pos:R:3:forces:R:3 energy=-2.8483572028109867 pbc="F F F"
Pb       0.00000000       0.00000000       0.00000000       0.00000000       0.00000000       0.37173808
Pb       0.00000000       0.00000000       4.76545455       0.00000000       0.00000000      -0.37173808
2
Properties=species:S:1:pos:R:3:forces:R:3 energy=-2.826917192076538 pbc="F F F"
Pb       0.00000000       0.00000000       0.00000000       0.00000000       0.00000000       0.35761124
Pb       0.00000000       0.00000000       4.82424242       0.00000000       0.00000000      -0.35761124
2
Properties=species:S:1:pos:R:3:forces:R:3 energy=-2.8063053450258053 pbc="F F F"
Pb       0.00000000       0.00000000       0.00000000       0.00000000       0.00000000       0.34379327
Pb       0.00000000       0.00000000       4.88303030       0.00000000       0.00000000      -0.34379327
2
Properties=species:S:1:pos:R:3:forces:R:3 energy=-2.7864772834854556 pbc="F F F"
Pb       0.00000000       0.00000000       0.00000000       0.00000000       0.00000000       0.33090872
Pb       0.00000000       0.00000000       4.94181818       0.00000000       0.00000000      -0.33090872
2
Properties=species:S:1:pos:R:3:forces:R:3 energy=-2.7673715169974353 pbc="F F F"
Pb       0.00000000       0.00000000       0.00000000       0.00000000       0.00000000       0.31937262
Pb       0.00000000       0.00000000       5.00060606       0.00000000       0.00000000      -0.31937262
2
Properties=species:S:1:pos:R:3:forces:R:3 energy=-2.748902716413604 pbc="F F F"
Pb       0.00000000       0.00000000       0.00000000       0.00000000       0.00000000       0.30910742
Pb       0.00000000       0.00000000       5.05939394       0.00000000       0.00000000      -0.30910742
2
Properties=species:S:1:pos:R:3:forces:R:3 energy=-2.73101546344608 pbc="F F F"
Pb       0.00000000       0.00000000       0.00000000       0.00000000       0.00000000       0.29942161
Pb       0.00000000       0.00000000       5.11818182       0.00000000       0.00000000      -0.29942161
2
Properties=species:S:1:pos:R:3:forces:R:3 energy=-2.7137100505589373 pbc="F F F"
Pb       0.00000000       0.00000000       0.00000000       0.00000000       0.00000000       0.28907764
Pb       0.00000000       0.00000000       5.17696970       0.00000000       0.00000000      -0.28907764
2
Properties=species:S:1:pos:R:3:forces:R:3 energy=-2.697070051992184 pbc="F F F"
Pb       0.00000000       0.00000000       0.00000000       0.00000000       0.00000000       0.27656102
Pb       0.00000000       0.00000000       5.23575758       0.00000000       0.00000000      -0.27656102
2
Properties=species:S:1:pos:R:3:forces:R:3 energy=-2.6812636529029277 pbc="F F F"
Pb       0.00000000       0.00000000       0.00000000       0.00000000       0.00000000       0.26042727
Pb       0.00000000       0.00000000       5.29454545       0.00000000       0.00000000      -0.26042727
2
Properties=species:S:1:pos:R:3:forces:R:3 energy=-2.6665399170314856 pbc="F F F"
Pb       0.00000000       0.00000000       0.00000000       0.00000000       0.00000000       0.23969485
Pb       0.00000000       0.00000000       5.35333333       0.00000000       0.00000000      -0.23969485
2
Properties=species:S:1:pos:R:3:forces:R:3 energy=-2.6531766942417225 pbc="F F F"
Pb       0.00000000       0.00000000       0.00000000       0.00000000       0.00000000       0.21414566
Pb       0.00000000       0.00000000       5.41212121       0.00000000       0.00000000      -0.21414566
2
Properties=species:S:1:pos:R:3:forces:R:3 energy=-2.6414429503855508 pbc="F F F"
Pb       0.00000000       0.00000000       0.00000000       0.00000000       0.00000000       0.18445173
Pb       0.00000000       0.00000000       5.47090909       0.00000000       0.00000000      -0.18445173
2
Properties=species:S:1:pos:R:3:forces:R:3 energy=-2.631541548427857 pbc="F F F"
Pb       0.00000000       0.00000000       0.00000000       0.00000000       0.00000000       0.15212570
Pb       0.00000000       0.00000000       5.52969697       0.00000000       0.00000000      -0.15212570
2
Properties=species:S:1:pos:R:3:forces:R:3 energy=-2.62356824361872 pbc="F F F"
Pb       0.00000000       0.00000000       0.00000000       0.00000000       0.00000000       0.11927558
Pb       0.00000000       0.00000000       5.58848485       0.00000000       0.00000000      -0.11927558
2
Properties=species:S:1:pos:R:3:forces:R:3 energy=-2.617483049505253 pbc="F F F"
Pb       0.00000000       0.00000000       0.00000000       0.00000000       0.00000000       0.08827042
Pb       0.00000000       0.00000000       5.64727273       0.00000000       0.00000000      -0.08827042
2
Properties=species:S:1:pos:R:3:forces:R:3 energy=-2.613109776933553 pbc="F F F"
Pb       0.00000000       0.00000000       0.00000000       0.00000000       0.00000000       0.06129050
Pb       0.00000000       0.00000000       5.70606061       0.00000000       0.00000000      -0.06129050
2
Properties=species:S:1:pos:R:3:forces:R:3 energy=-2.61016229493845 pbc="F F F"
Pb       0.00000000       0.00000000       0.00000000       0.00000000       0.00000000       0.03995109
Pb       0.00000000       0.00000000       5.76484848       0.00000000       0.00000000      -0.03995109
2
Properties=species:S:1:pos:R:3:forces:R:3 energy=-2.608284106643723 pbc="F F F"
Pb       0.00000000       0.00000000       0.00000000       0.00000000       0.00000000       0.02506371
Pb       0.00000000       0.00000000       5.82363636       0.00000000       0.00000000      -0.02506371
2
Properties=species:S:1:pos:R:3:forces:R:3 energy=-2.6070965113989915 pbc="F F F"
Pb       0.00000000       0.00000000       0.00000000       0.00000000       0.00000000       0.01637414
Pb       0.00000000       0.00000000       5.88242424       0.00000000       0.00000000      -0.01637414
2
Properties=species:S:1:pos:R:3:forces:R:3 energy=-2.6062625674831796 pbc="F F F"
Pb       0.00000000       0.00000000       0.00000000       0.00000000       0.00000000       0.01260245
Pb       0.00000000       0.00000000       5.94121212       0.00000000       0.00000000      -0.01260245
2
Properties=species:S:1:pos:R:3:forces:R:3 energy=-2.6055576449969964 pbc="F F F"
Pb       0.00000000       0.00000000       0.00000000       0.00000000       0.00000000       0.01160836
Pb       0.00000000       0.00000000       6.00000000       0.00000000       0.00000000      -0.01160836
