2
Properties=species:S:1:pos:R:3:forces:R:3 energy=105408407.83995107 pbc="F F F"
Pr       0.00000000       0.00000000       0.00000000       0.00000000       0.00000000 -850870592.00000000
Pr       0.00000000       0.00000000       0.18000000       0.00000000       0.00000000 850870592.00000000
2
Properties=species:S:1:pos:R:3:forces:R:3 energy=60509243.83995107 pbc="F F F"
Pr       0.00000000       0.00000000       0.00000000       0.00000000       0.00000000 -656332352.00000000
Pr       0.00000000       0.00000000       0.23878788       0.00000000       0.00000000 656332352.00000000
2
Properties=species:S:1:pos:R:3:forces:R:3 energy=29208485.83995107 pbc="F F F"
Pr       0.00000000       0.00000000       0.00000000       0.00000000       0.00000000 -409752704.00000000
Pr       0.00000000       0.00000000       0.29757576       0.00000000       0.00000000 409752704.00000000
2
Properties=species:S:1:pos:R:3:forces:R:3 energy=11553015.839951083 pbc="F F F"
Pr       0.00000000       0.00000000       0.00000000       0.00000000       0.00000000 -203697152.00000000
Pr       0.00000000       0.00000000       0.35636364       0.00000000       0.00000000 203697152.00000000
2
Properties=species:S:1:pos:R:3:forces:R:3 energy=3631838.0899510826 pbc="F F F"
Pr       0.00000000       0.00000000       0.00000000       0.00000000       0.00000000 -79164824.00000000
Pr       0.00000000       0.00000000       0.41515152       0.00000000       0.00000000 79164824.00000000
2
Properties=species:S:1:pos:R:3:forces:R:3 energy=867509.2149510826 pbc="F F F"
Pr       0.00000000       0.00000000       0.00000000       0.00000000       0.00000000 -24076412.00000000
Pr       0.00000000       0.00000000       0.47393939       0.00000000       0.00000000 24076412.00000000
2
Properties=species:S:1:pos:R:3:forces:R:3 energy=142926.98057610792 pbc="F F F"
Pr       0.00000000       0.00000000       0.00000000       0.00000000       0.00000000 -4769572.00000000
Pr       0.00000000       0.00000000       0.53272727       0.00000000       0.00000000 4769572.00000000
2
Properties=species:S:1:pos:R:3:forces:R:3 energy=19142.591904258257 pbc="F F F"
Pr       0.00000000       0.00000000       0.00000000       0.00000000       0.00000000 -655227.56250000
Pr       0.00000000       0.00000000       0.59151515       0.00000000       0.00000000  655227.56250000
2
Properties=species:S:1:pos:R:3:forces:R:3 energy=2497.549912121444 pbc="F F F"
Pr       0.00000000       0.00000000       0.00000000       0.00000000       0.00000000  -99441.50000000
Pr       0.00000000       0.00000000       0.65030303       0.00000000       0.00000000   99441.50000000
2
Properties=species:S:1:pos:R:3:forces:R:3 energy=-90.61843039286066 pbc="F F F"
Pr       0.00000000       0.00000000       0.00000000       0.00000000       0.00000000    2840.18334961
Pr       0.00000000       0.00000000       0.70909091       0.00000000       0.00000000   -2840.18334961
2
Properties=species:S:1:pos:R:3:forces:R:3 energy=-49.39271462894074 pbc="F F F"
Pr       0.00000000       0.00000000       0.00000000       0.00000000       0.00000000     -72.26339722
Pr       0.00000000       0.00000000       0.76787879       0.00000000       0.00000000      72.26339722
2
Properties=species:S:1:pos:R:3:forces:R:3 energy=-50.77982230066379 pbc="F F F"
Pr       0.00000000       0.00000000       0.00000000       0.00000000       0.00000000      30.09046364
Pr       0.00000000       0.00000000       0.82666667       0.00000000       0.00000000     -30.09046364
2
Properties=species:S:1:pos:R:3:forces:R:3 energy=-45.7352129774138 pbc="F F F"
Pr       0.00000000       0.00000000       0.00000000       0.00000000       0.00000000     127.99043274
Pr       0.00000000       0.00000000       0.88545455       0.00000000       0.00000000    -127.99043274
2
Properties=species:S:1:pos:R:3:forces:R:3 energy=-37.63166265267104 pbc="F F F"
Pr       0.00000000       0.00000000       0.00000000       0.00000000       0.00000000     144.34985352
Pr       0.00000000       0.00000000       0.94424242       0.00000000       0.00000000    -144.34985352
2
Properties=species:S:1:pos:R:3:forces:R:3 energy=-29.137597827436096 pbc="F F F"
Pr       0.00000000       0.00000000       0.00000000       0.00000000       0.00000000     138.46736145
Pr       0.00000000       0.00000000       1.00303030       0.00000000       0.00000000    -138.46736145
2
Properties=species:S:1:pos:R:3:forces:R:3 energy=-21.10245997934413 pbc="F F F"
Pr       0.00000000       0.00000000       0.00000000       0.00000000       0.00000000     140.69442749
Pr       0.00000000       0.00000000       1.06181818       0.00000000       0.00000000    -140.69442749
2
Properties=species:S:1:pos:R:3:forces:R:3 energy=-12.127031452119164 pbc="F F F"
Pr       0.00000000       0.00000000       0.00000000       0.00000000       0.00000000     162.54539490
Pr       0.00000000       0.00000000       1.12060606       0.00000000       0.00000000    -162.54539490
2
Properties=species:S:1:pos:R:3:forces:R:3 energy=-3.458177480269305 pbc="F F F"
Pr       0.00000000       0.00000000       0.00000000       0.00000000       0.00000000     134.10551453
Pr       0.00000000       0.00000000       1.17939394       0.00000000       0.00000000    -134.10551453
2
Properties=species:S:1:pos:R:3:forces:R:3 energy=5.409479794374682 pbc="F F F"
Pr       0.00000000       0.00000000       0.00000000       0.00000000       0.00000000     151.10266113
Pr       0.00000000       0.00000000       1.23818182       0.00000000       0.00000000    -151.10266113
2
Properties=species:S:1:pos:R:3:forces:R:3 energy=13.838274699244336 pbc="F F F"
Pr       0.00000000       0.00000000       0.00000000       0.00000000       0.00000000     169.29891968
Pr       0.00000000       0.00000000       1.29696970       0.00000000       0.00000000    -169.29891968
2
Properties=species:S:1:pos:R:3:forces:R:3 energy=24.013181001760653 pbc="F F F"
Pr       0.00000000       0.00000000       0.00000000       0.00000000       0.00000000     137.67179871
Pr       0.00000000       0.00000000       1.35575758       0.00000000       0.00000000    -137.67179871
2
Properties=species:S:1:pos:R:3:forces:R:3 energy=29.22471666098593 pbc="F F F"
Pr       0.00000000       0.00000000       0.00000000       0.00000000       0.00000000      44.11013794
Pr       0.00000000       0.00000000       1.41454545       0.00000000       0.00000000     -44.11013794
2
Properties=species:S:1:pos:R:3:forces:R:3 energy=30.04213380512192 pbc="F F F"
Pr       0.00000000       0.00000000       0.00000000       0.00000000       0.00000000      -9.47723770
Pr       0.00000000       0.00000000       1.47333333       0.00000000       0.00000000       9.47723770
2
Properties=species:S:1:pos:R:3:forces:R:3 energy=28.62883510558327 pbc="F F F"
Pr       0.00000000       0.00000000       0.00000000       0.00000000       0.00000000     -34.95983505
Pr       0.00000000       0.00000000       1.53212121       0.00000000       0.00000000      34.95983505
2
Properties=species:S:1:pos:R:3:forces:R:3 energy=26.10145514667837 pbc="F F F"
Pr       0.00000000       0.00000000       0.00000000       0.00000000       0.00000000     -52.26620102
Pr       0.00000000       0.00000000       1.59090909       0.00000000       0.00000000      52.26620102
2
Properties=species:S:1:pos:R:3:forces:R:3 energy=22.54781602824061 pbc="F F F"
Pr       0.00000000       0.00000000       0.00000000       0.00000000       0.00000000     -63.96583176
Pr       0.00000000       0.00000000       1.64969697       0.00000000       0.00000000      63.96583176
2
Properties=species:S:1:pos:R:3:forces:R:3 energy=18.769504104133656 pbc="F F F"
Pr       0.00000000       0.00000000       0.00000000       0.00000000       0.00000000     -63.90042877
Pr       0.00000000       0.00000000       1.70848485       0.00000000       0.00000000      63.90042877
2
Properties=species:S:1:pos:R:3:forces:R:3 energy=15.26268778972254 pbc="F F F"
Pr       0.00000000       0.00000000       0.00000000       0.00000000       0.00000000     -54.63405228
Pr       0.00000000       0.00000000       1.76727273       0.00000000       0.00000000      54.63405228
2
Properties=species:S:1:pos:R:3:forces:R:3 energy=12.382551880815452 pbc="F F F"
Pr       0.00000000       0.00000000       0.00000000       0.00000000       0.00000000     -42.24934387
Pr       0.00000000       0.00000000       1.82606061       0.00000000       0.00000000      42.24934387
2
Properties=species:S:1:pos:R:3:forces:R:3 energy=10.170041721952618 pbc="F F F"
Pr       0.00000000       0.00000000       0.00000000       0.00000000       0.00000000     -34.16248322
Pr       0.00000000       0.00000000       1.88484848       0.00000000       0.00000000      34.16248322
2
Properties=species:S:1:pos:R:3:forces:R:3 energy=8.277196267491446 pbc="F F F"
Pr       0.00000000       0.00000000       0.00000000       0.00000000       0.00000000     -30.64218330
Pr       0.00000000       0.00000000       1.94363636       0.00000000       0.00000000      30.64218330
2
Properties=species:S:1:pos:R:3:forces:R:3 energy=6.542734273863365 pbc="F F F"
Pr       0.00000000       0.00000000       0.00000000       0.00000000       0.00000000     -28.39208984
Pr       0.00000000       0.00000000       2.00242424       0.00000000       0.00000000      28.39208984
2
Properties=species:S:1:pos:R:3:forces:R:3 energy=4.935129606340433 pbc="F F F"
Pr       0.00000000       0.00000000       0.00000000       0.00000000       0.00000000     -26.25452042
Pr       0.00000000       0.00000000       2.06121212       0.00000000       0.00000000      26.25452042
2
Properties=species:S:1:pos:R:3:forces:R:3 energy=3.481539563594311 pbc="F F F"
Pr       0.00000000       0.00000000       0.00000000       0.00000000       0.00000000     -22.98971558
Pr       0.00000000       0.00000000       2.12000000       0.00000000       0.00000000      22.98971558
2
Properties=species:S:1:pos:R:3:forces:R:3 energy=2.22809390450369 pbc="F F F"
Pr       0.00000000       0.00000000       0.00000000       0.00000000       0.00000000     -19.83213043
Pr       0.00000000       0.00000000       2.17878788       0.00000000       0.00000000      19.83213043
2
Properties=species:S:1:pos:R:3:forces:R:3 energy=1.144386222029683 pbc="F F F"
Pr       0.00000000       0.00000000       0.00000000       0.00000000       0.00000000     -16.97935677
Pr       0.00000000       0.00000000       2.23757576       0.00000000       0.00000000      16.97935677
2
Properties=species:S:1:pos:R:3:forces:R:3 energy=0.23029699944414073 pbc="F F F"
Pr       0.00000000       0.00000000       0.00000000       0.00000000       0.00000000     -14.16516495
Pr       0.00000000       0.00000000       2.29636364       0.00000000       0.00000000      14.16516495
2
Properties=species:S:1:pos:R:3:forces:R:3 energy=-0.522892497935678 pbc="F F F"
Pr       0.00000000       0.00000000       0.00000000       0.00000000       0.00000000     -11.47365475
Pr       0.00000000       0.00000000       2.35515152       0.00000000       0.00000000      11.47365475
2
Properties=species:S:1:pos:R:3:forces:R:3 energy=-1.125720577374352 pbc="F F F"
Pr       0.00000000       0.00000000       0.00000000       0.00000000       0.00000000      -9.12148094
Pr       0.00000000       0.00000000       2.41393939       0.00000000       0.00000000       9.12148094
2
Properties=species:S:1:pos:R:3:forces:R:3 energy=-1.6050180294589234 pbc="F F F"
Pr       0.00000000       0.00000000       0.00000000       0.00000000       0.00000000      -7.25266886
Pr       0.00000000       0.00000000       2.47272727       0.00000000       0.00000000       7.25266886
2
Properties=species:S:1:pos:R:3:forces:R:3 energy=-1.983517604868529 pbc="F F F"
Pr       0.00000000       0.00000000       0.00000000       0.00000000       0.00000000      -5.65493155
Pr       0.00000000       0.00000000       2.53151515       0.00000000       0.00000000       5.65493155
2
Properties=species:S:1:pos:R:3:forces:R:3 energy=-2.2759993388152164 pbc="F F F"
Pr       0.00000000       0.00000000       0.00000000       0.00000000       0.00000000      -4.37035561
Pr       0.00000000       0.00000000       2.59030303       0.00000000       0.00000000       4.37035561
2
Properties=species:S:1:pos:R:3:forces:R:3 energy=-2.506337340065531 pbc="F F F"
Pr       0.00000000       0.00000000       0.00000000       0.00000000       0.00000000      -3.52988482
Pr       0.00000000       0.00000000       2.64909091       0.00000000       0.00000000       3.52988482
2
Properties=species:S:1:pos:R:3:forces:R:3 energy=-2.696006272805941 pbc="F F F"
Pr       0.00000000       0.00000000       0.00000000       0.00000000       0.00000000      -2.94403386
Pr       0.00000000       0.00000000       2.70787879       0.00000000       0.00000000       2.94403386
2
Properties=species:S:1:pos:R:3:forces:R:3 energy=-2.853541132686008 pbc="F F F"
Pr       0.00000000       0.00000000       0.00000000       0.00000000       0.00000000      -2.41979742
Pr       0.00000000       0.00000000       2.76666667       0.00000000       0.00000000       2.41979742
2
Properties=species:S:1:pos:R:3:forces:R:3 energy=-2.981347675866327 pbc="F F F"
Pr       0.00000000       0.00000000       0.00000000       0.00000000       0.00000000      -1.93933201
Pr       0.00000000       0.00000000       2.82545455       0.00000000       0.00000000       1.93933201
2
Properties=species:S:1:pos:R:3:forces:R:3 energy=-3.083159873404477 pbc="F F F"
Pr       0.00000000       0.00000000       0.00000000       0.00000000       0.00000000      -1.53906858
Pr       0.00000000       0.00000000       2.88424242       0.00000000       0.00000000       1.53906858
2
Properties=species:S:1:pos:R:3:forces:R:3 energy=-3.1639363155506093 pbc="F F F"
Pr       0.00000000       0.00000000       0.00000000       0.00000000       0.00000000      -1.22097945
Pr       0.00000000       0.00000000       2.94303030       0.00000000       0.00000000       1.22097945
2
Properties=species:S:1:pos:R:3:forces:R:3 energy=-3.227781686574324 pbc="F F F"
Pr       0.00000000       0.00000000       0.00000000       0.00000000       0.00000000      -0.95722944
Pr       0.00000000       0.00000000       3.00181818       0.00000000       0.00000000       0.95722944
2
Properties=species:S:1:pos:R:3:forces:R:3 energy=-3.277000196992288 pbc="F F F"
Pr       0.00000000       0.00000000       0.00000000       0.00000000       0.00000000      -0.72079998
Pr       0.00000000       0.00000000       3.06060606       0.00000000       0.00000000       0.72079998
2
Properties=species:S:1:pos:R:3:forces:R:3 energy=-3.3130299183012553 pbc="F F F"
Pr       0.00000000       0.00000000       0.00000000       0.00000000       0.00000000      -0.51009196
Pr       0.00000000       0.00000000       3.11939394       0.00000000       0.00000000       0.51009196
2
Properties=species:S:1:pos:R:3:forces:R:3 energy=-3.3376387159134144 pbc="F F F"
Pr       0.00000000       0.00000000       0.00000000       0.00000000       0.00000000      -0.33299467
Pr       0.00000000       0.00000000       3.17818182       0.00000000       0.00000000       0.33299467
2
Properties=species:S:1:pos:R:3:forces:R:3 energy=-3.3528472296199574 pbc="F F F"
Pr       0.00000000       0.00000000       0.00000000       0.00000000       0.00000000      -0.18975911
Pr       0.00000000       0.00000000       3.23696970       0.00000000       0.00000000       0.18975911
2
Properties=species:S:1:pos:R:3:forces:R:3 energy=-3.3605431963573027 pbc="F F F"
Pr       0.00000000       0.00000000       0.00000000       0.00000000       0.00000000      -0.07678637
Pr       0.00000000       0.00000000       3.29575758       0.00000000       0.00000000       0.07678637
2
Properties=species:S:1:pos:R:3:forces:R:3 energy=-3.362410228744293 pbc="F F F"
Pr       0.00000000       0.00000000       0.00000000       0.00000000       0.00000000       0.00895053
Pr       0.00000000       0.00000000       3.35454545       0.00000000       0.00000000      -0.00895053
2
Properties=species:S:1:pos:R:3:forces:R:3 energy=-3.3599696753818065 pbc="F F F"
Pr       0.00000000       0.00000000       0.00000000       0.00000000       0.00000000       0.07034965
Pr       0.00000000       0.00000000       3.41333333       0.00000000       0.00000000      -0.07034965
2
Properties=species:S:1:pos:R:3:forces:R:3 energy=-3.354491929141333 pbc="F F F"
Pr       0.00000000       0.00000000       0.00000000       0.00000000       0.00000000       0.11382309
Pr       0.00000000       0.00000000       3.47212121       0.00000000       0.00000000      -0.11382309
2
Properties=species:S:1:pos:R:3:forces:R:3 energy=-3.346739838088705 pbc="F F F"
Pr       0.00000000       0.00000000       0.00000000       0.00000000       0.00000000       0.14944030
Pr       0.00000000       0.00000000       3.53090909       0.00000000       0.00000000      -0.14944030
2
Properties=species:S:1:pos:R:3:forces:R:3 energy=-3.336907771698156 pbc="F F F"
Pr       0.00000000       0.00000000       0.00000000       0.00000000       0.00000000       0.18551271
Pr       0.00000000       0.00000000       3.58969697       0.00000000       0.00000000      -0.18551271
2
Properties=species:S:1:pos:R:3:forces:R:3 energy=-3.324861959451345 pbc="F F F"
Pr       0.00000000       0.00000000       0.00000000       0.00000000       0.00000000       0.22493945
Pr       0.00000000       0.00000000       3.64848485       0.00000000       0.00000000      -0.22493945
2
Properties=species:S:1:pos:R:3:forces:R:3 energy=-3.31041506034146 pbc="F F F"
Pr       0.00000000       0.00000000       0.00000000       0.00000000       0.00000000       0.26665768
Pr       0.00000000       0.00000000       3.70727273       0.00000000       0.00000000      -0.26665768
2
Properties=species:S:1:pos:R:3:forces:R:3 energy=-3.293498929979952 pbc="F F F"
Pr       0.00000000       0.00000000       0.00000000       0.00000000       0.00000000       0.30882645
Pr       0.00000000       0.00000000       3.76606061       0.00000000       0.00000000      -0.30882645
2
Properties=species:S:1:pos:R:3:forces:R:3 energy=-3.274115919849954 pbc="F F F"
Pr       0.00000000       0.00000000       0.00000000       0.00000000       0.00000000       0.35046789
Pr       0.00000000       0.00000000       3.82484848       0.00000000       0.00000000      -0.35046789
2
Properties=species:S:1:pos:R:3:forces:R:3 energy=-3.2523073426973967 pbc="F F F"
Pr       0.00000000       0.00000000       0.00000000       0.00000000       0.00000000       0.39132583
Pr       0.00000000       0.00000000       3.88363636       0.00000000       0.00000000      -0.39132583
2
Properties=species:S:1:pos:R:3:forces:R:3 energy=-3.228126069401606 pbc="F F F"
Pr       0.00000000       0.00000000       0.00000000       0.00000000       0.00000000       0.43114021
Pr       0.00000000       0.00000000       3.94242424       0.00000000       0.00000000      -0.43114021
2
Properties=species:S:1:pos:R:3:forces:R:3 energy=-3.2016506693632953 pbc="F F F"
Pr       0.00000000       0.00000000       0.00000000       0.00000000       0.00000000       0.46927243
Pr       0.00000000       0.00000000       4.00121212       0.00000000       0.00000000      -0.46927243
2
Properties=species:S:1:pos:R:3:forces:R:3 energy=-3.1730025639709742 pbc="F F F"
Pr       0.00000000       0.00000000       0.00000000       0.00000000       0.00000000       0.50480455
Pr       0.00000000       0.00000000       4.06000000       0.00000000       0.00000000      -0.50480455
2
Properties=species:S:1:pos:R:3:forces:R:3 energy=-3.142365277485316 pbc="F F F"
Pr       0.00000000       0.00000000       0.00000000       0.00000000       0.00000000       0.53680426
Pr       0.00000000       0.00000000       4.11878788       0.00000000       0.00000000      -0.53680426
2
Properties=species:S:1:pos:R:3:forces:R:3 energy=-3.1099730182899377 pbc="F F F"
Pr       0.00000000       0.00000000       0.00000000       0.00000000       0.00000000       0.56443018
Pr       0.00000000       0.00000000       4.17757576       0.00000000       0.00000000      -0.56443018
2
Properties=species:S:1:pos:R:3:forces:R:3 energy=-3.0761019817809547 pbc="F F F"
Pr       0.00000000       0.00000000       0.00000000       0.00000000       0.00000000       0.58692819
Pr       0.00000000       0.00000000       4.23636364       0.00000000       0.00000000      -0.58692819
2
Properties=species:S:1:pos:R:3:forces:R:3 energy=-3.041077266841681 pbc="F F F"
Pr       0.00000000       0.00000000       0.00000000       0.00000000       0.00000000       0.60364479
Pr       0.00000000       0.00000000       4.29515152       0.00000000       0.00000000      -0.60364479
2
Properties=species:S:1:pos:R:3:forces:R:3 energy=-3.005249046656005 pbc="F F F"
Pr       0.00000000       0.00000000       0.00000000       0.00000000       0.00000000       0.61415917
Pr       0.00000000       0.00000000       4.35393939       0.00000000       0.00000000      -0.61415917
2
Properties=species:S:1:pos:R:3:forces:R:3 energy=-2.968991513663766 pbc="F F F"
Pr       0.00000000       0.00000000       0.00000000       0.00000000       0.00000000       0.61839455
Pr       0.00000000       0.00000000       4.41272727       0.00000000       0.00000000      -0.61839455
2
Properties=species:S:1:pos:R:3:forces:R:3 energy=-2.9326592132828173 pbc="F F F"
Pr       0.00000000       0.00000000       0.00000000       0.00000000       0.00000000       0.61667794
Pr       0.00000000       0.00000000       4.47151515       0.00000000       0.00000000      -0.61667794
2
Properties=species:S:1:pos:R:3:forces:R:3 energy=-2.896588073611072 pbc="F F F"
Pr       0.00000000       0.00000000       0.00000000       0.00000000       0.00000000       0.60965967
Pr       0.00000000       0.00000000       4.53030303       0.00000000       0.00000000      -0.60965967
2
Properties=species:S:1:pos:R:3:forces:R:3 energy=-2.861065752823676 pbc="F F F"
Pr       0.00000000       0.00000000       0.00000000       0.00000000       0.00000000       0.59817934
Pr       0.00000000       0.00000000       4.58909091       0.00000000       0.00000000      -0.59817934
2
Properties=species:S:1:pos:R:3:forces:R:3 energy=-2.826325153522122 pbc="F F F"
Pr       0.00000000       0.00000000       0.00000000       0.00000000       0.00000000       0.58318162
Pr       0.00000000       0.00000000       4.64787879       0.00000000       0.00000000      -0.58318162
2
Properties=species:S:1:pos:R:3:forces:R:3 energy=-2.7925472710859096 pbc="F F F"
Pr       0.00000000       0.00000000       0.00000000       0.00000000       0.00000000       0.56564546
Pr       0.00000000       0.00000000       4.70666667       0.00000000       0.00000000      -0.56564546
2
Properties=species:S:1:pos:R:3:forces:R:3 energy=-2.7598498129371927 pbc="F F F"
Pr       0.00000000       0.00000000       0.00000000       0.00000000       0.00000000       0.54660720
Pr       0.00000000       0.00000000       4.76545455       0.00000000       0.00000000      -0.54660720
2
Properties=species:S:1:pos:R:3:forces:R:3 energy=-2.728288215571536 pbc="F F F"
Pr       0.00000000       0.00000000       0.00000000       0.00000000       0.00000000       0.52710450
Pr       0.00000000       0.00000000       4.82424242       0.00000000       0.00000000      -0.52710450
2
Properties=species:S:1:pos:R:3:forces:R:3 energy=-2.697864240298053 pbc="F F F"
Pr       0.00000000       0.00000000       0.00000000       0.00000000       0.00000000       0.50808668
Pr       0.00000000       0.00000000       4.88303030       0.00000000       0.00000000      -0.50808668
2
Properties=species:S:1:pos:R:3:forces:R:3 energy=-2.6685269395850133 pbc="F F F"
Pr       0.00000000       0.00000000       0.00000000       0.00000000       0.00000000       0.49024153
Pr       0.00000000       0.00000000       4.94181818       0.00000000       0.00000000      -0.49024153
2
Properties=species:S:1:pos:R:3:forces:R:3 energy=-2.6401945788978267 pbc="F F F"
Pr       0.00000000       0.00000000       0.00000000       0.00000000       0.00000000       0.47377387
Pr       0.00000000       0.00000000       5.00060606       0.00000000       0.00000000      -0.47377387
2
Properties=species:S:1:pos:R:3:forces:R:3 energy=-2.6128006158068513 pbc="F F F"
Pr       0.00000000       0.00000000       0.00000000       0.00000000       0.00000000       0.45826411
Pr       0.00000000       0.00000000       5.05939394       0.00000000       0.00000000      -0.45826411
2
Properties=species:S:1:pos:R:3:forces:R:3 energy=-2.586317199720511 pbc="F F F"
Pr       0.00000000       0.00000000       0.00000000       0.00000000       0.00000000       0.44266915
Pr       0.00000000       0.00000000       5.11818182       0.00000000       0.00000000      -0.44266915
2
Properties=species:S:1:pos:R:3:forces:R:3 energy=-2.5607878629091134 pbc="F F F"
Pr       0.00000000       0.00000000       0.00000000       0.00000000       0.00000000       0.42544952
Pr       0.00000000       0.00000000       5.17696970       0.00000000       0.00000000      -0.42544952
2
Properties=species:S:1:pos:R:3:forces:R:3 energy=-2.536360683694019 pbc="F F F"
Pr       0.00000000       0.00000000       0.00000000       0.00000000       0.00000000       0.40493876
Pr       0.00000000       0.00000000       5.23575758       0.00000000       0.00000000      -0.40493876
2
Properties=species:S:1:pos:R:3:forces:R:3 energy=-2.5132712216802524 pbc="F F F"
Pr       0.00000000       0.00000000       0.00000000       0.00000000       0.00000000       0.37968886
Pr       0.00000000       0.00000000       5.29454545       0.00000000       0.00000000      -0.37968886
2
Properties=species:S:1:pos:R:3:forces:R:3 energy=-2.491823247865204 pbc="F F F"
Pr       0.00000000       0.00000000       0.00000000       0.00000000       0.00000000       0.34887856
Pr       0.00000000       0.00000000       5.35333333       0.00000000       0.00000000      -0.34887856
2
Properties=species:S:1:pos:R:3:forces:R:3 energy=-2.472358170039703 pbc="F F F"
Pr       0.00000000       0.00000000       0.00000000       0.00000000       0.00000000       0.31258452
Pr       0.00000000       0.00000000       5.41212121       0.00000000       0.00000000      -0.31258452
2
Properties=species:S:1:pos:R:3:forces:R:3 energy=-2.4551596400138034 pbc="F F F"
Pr       0.00000000       0.00000000       0.00000000       0.00000000       0.00000000       0.27188432
Pr       0.00000000       0.00000000       5.47090909       0.00000000       0.00000000      -0.27188432
2
Properties=species:S:1:pos:R:3:forces:R:3 energy=-2.440443915503307 pbc="F F F"
Pr       0.00000000       0.00000000       0.00000000       0.00000000       0.00000000       0.22872899
Pr       0.00000000       0.00000000       5.52969697       0.00000000       0.00000000      -0.22872899
2
Properties=species:S:1:pos:R:3:forces:R:3 energy=-2.428266171963565 pbc="F F F"
Pr       0.00000000       0.00000000       0.00000000       0.00000000       0.00000000       0.18569881
Pr       0.00000000       0.00000000       5.58848485       0.00000000       0.00000000      -0.18569881
2
Properties=species:S:1:pos:R:3:forces:R:3 energy=-2.418549226860564 pbc="F F F"
Pr       0.00000000       0.00000000       0.00000000       0.00000000       0.00000000       0.14561230
Pr       0.00000000       0.00000000       5.64727273       0.00000000       0.00000000      -0.14561230
2
Properties=species:S:1:pos:R:3:forces:R:3 energy=-2.411039372877093 pbc="F F F"
Pr       0.00000000       0.00000000       0.00000000       0.00000000       0.00000000       0.11103422
Pr       0.00000000       0.00000000       5.70606061       0.00000000       0.00000000      -0.11103422
2
Properties=species:S:1:pos:R:3:forces:R:3 energy=-2.4053472908736793 pbc="F F F"
Pr       0.00000000       0.00000000       0.00000000       0.00000000       0.00000000       0.08382910
Pr       0.00000000       0.00000000       5.76484848       0.00000000       0.00000000      -0.08382910
2
Properties=species:S:1:pos:R:3:forces:R:3 energy=-2.4010130834757955 pbc="F F F"
Pr       0.00000000       0.00000000       0.00000000       0.00000000       0.00000000       0.06492469
Pr       0.00000000       0.00000000       5.82363636       0.00000000       0.00000000      -0.06492469
2
Properties=species:S:1:pos:R:3:forces:R:3 energy=-2.3975601023157673 pbc="F F F"
Pr       0.00000000       0.00000000       0.00000000       0.00000000       0.00000000       0.05391022
Pr       0.00000000       0.00000000       5.88242424       0.00000000       0.00000000      -0.05391022
2
Properties=species:S:1:pos:R:3:forces:R:3 energy=-2.394555282940483 pbc="F F F"
Pr       0.00000000       0.00000000       0.00000000       0.00000000       0.00000000       0.04913075
Pr       0.00000000       0.00000000       5.94121212       0.00000000       0.00000000      -0.04913075
2
Properties=species:S:1:pos:R:3:forces:R:3 energy=-2.391713871588157 pbc="F F F"
Pr       0.00000000       0.00000000       0.00000000       0.00000000       0.00000000       0.04782233
Pr       0.00000000       0.00000000       6.00000000       0.00000000       0.00000000      -0.04782233
