2
Properties=species:S:1:pos:R:3:forces:R:3 energy=-5337540.0430560885 pbc="F F F"
Pt       0.00000000       0.00000000       0.00000000       0.00000000       0.00000000 23160342.00000000
Pt       0.00000000       0.00000000       0.10000000       0.00000000       0.00000000 -23160342.00000000
2
Properties=species:S:1:pos:R:3:forces:R:3 energy=-3817098.2930560885 pbc="F F F"
Pt       0.00000000       0.00000000       0.00000000       0.00000000       0.00000000 26298598.00000000
Pt       0.00000000       0.00000000       0.15959596       0.00000000       0.00000000 -26298598.00000000
2
Properties=species:S:1:pos:R:3:forces:R:3 energy=-2354473.7930560885 pbc="F F F"
Pt       0.00000000       0.00000000       0.00000000       0.00000000       0.00000000 21925684.00000000
Pt       0.00000000       0.00000000       0.21919192       0.00000000       0.00000000 -21925684.00000000
2
Properties=species:S:1:pos:R:3:forces:R:3 energy=-1260553.293056085 pbc="F F F"
Pt       0.00000000       0.00000000       0.00000000       0.00000000       0.00000000 14648115.00000000
Pt       0.00000000       0.00000000       0.27878788       0.00000000       0.00000000 -14648115.00000000
2
Properties=species:S:1:pos:R:3:forces:R:3 energy=-593162.9805560851 pbc="F F F"
Pt       0.00000000       0.00000000       0.00000000       0.00000000       0.00000000 8123654.00000000
Pt       0.00000000       0.00000000       0.33838384       0.00000000       0.00000000 -8123654.00000000
2
Properties=species:S:1:pos:R:3:forces:R:3 energy=-233779.8555560756 pbc="F F F"
Pt       0.00000000       0.00000000       0.00000000       0.00000000       0.00000000 4059058.00000000
Pt       0.00000000       0.00000000       0.39797980       0.00000000       0.00000000 -4059058.00000000
2
Properties=species:S:1:pos:R:3:forces:R:3 energy=-75370.51180606928 pbc="F F F"
Pt       0.00000000       0.00000000       0.00000000       0.00000000       0.00000000 1653460.75000000
Pt       0.00000000       0.00000000       0.45757576       0.00000000       0.00000000 -1653460.75000000
2
Properties=species:S:1:pos:R:3:forces:R:3 energy=-15092.145595109607 pbc="F F F"
Pt       0.00000000       0.00000000       0.00000000       0.00000000       0.00000000  468383.06250000
Pt       0.00000000       0.00000000       0.51717172       0.00000000       0.00000000 -468383.06250000
2
Properties=species:S:1:pos:R:3:forces:R:3 energy=-1272.2420306216356 pbc="F F F"
Pt       0.00000000       0.00000000       0.00000000       0.00000000       0.00000000   80587.90625000
Pt       0.00000000       0.00000000       0.57676768       0.00000000       0.00000000  -80587.90625000
2
Properties=species:S:1:pos:R:3:forces:R:3 energy=168.85557991535367 pbc="F F F"
Pt       0.00000000       0.00000000       0.00000000       0.00000000       0.00000000   -1325.24584961
Pt       0.00000000       0.00000000       0.63636364       0.00000000       0.00000000    1325.24584961
2
Properties=species:S:1:pos:R:3:forces:R:3 energy=52.8573080745853 pbc="F F F"
Pt       0.00000000       0.00000000       0.00000000       0.00000000       0.00000000    -708.21704102
Pt       0.00000000       0.00000000       0.69595960       0.00000000       0.00000000     708.21704102
2
Properties=species:S:1:pos:R:3:forces:R:3 energy=30.0097473440724 pbc="F F F"
Pt       0.00000000       0.00000000       0.00000000       0.00000000       0.00000000    -193.23521423
Pt       0.00000000       0.00000000       0.75555556       0.00000000       0.00000000     193.23521423
2
Properties=species:S:1:pos:R:3:forces:R:3 energy=21.44277293226302 pbc="F F F"
Pt       0.00000000       0.00000000       0.00000000       0.00000000       0.00000000     -67.82649994
Pt       0.00000000       0.00000000       0.81515152       0.00000000       0.00000000      67.82649994
2
Properties=species:S:1:pos:R:3:forces:R:3 energy=19.46534864013449 pbc="F F F"
Pt       0.00000000       0.00000000       0.00000000       0.00000000       0.00000000      11.70064640
Pt       0.00000000       0.00000000       0.87474747       0.00000000       0.00000000     -11.70064640
2
Properties=species:S:1:pos:R:3:forces:R:3 energy=25.166200543066214 pbc="F F F"
Pt       0.00000000       0.00000000       0.00000000       0.00000000       0.00000000     213.02662659
Pt       0.00000000       0.00000000       0.93434343       0.00000000       0.00000000    -213.02662659
2
Properties=species:S:1:pos:R:3:forces:R:3 energy=41.20499284579607 pbc="F F F"
Pt       0.00000000       0.00000000       0.00000000       0.00000000       0.00000000     256.19421387
Pt       0.00000000       0.00000000       0.99393939       0.00000000       0.00000000    -256.19421387
2
Properties=species:S:1:pos:R:3:forces:R:3 energy=54.08501767958163 pbc="F F F"
Pt       0.00000000       0.00000000       0.00000000       0.00000000       0.00000000     168.97895813
Pt       0.00000000       0.00000000       1.05353535       0.00000000       0.00000000    -168.97895813
2
Properties=species:S:1:pos:R:3:forces:R:3 energy=60.03505394372285 pbc="F F F"
Pt       0.00000000       0.00000000       0.00000000       0.00000000       0.00000000      17.87072563
Pt       0.00000000       0.00000000       1.11313131       0.00000000       0.00000000     -17.87072563
2
Properties=species:S:1:pos:R:3:forces:R:3 energy=56.09039148498739 pbc="F F F"
Pt       0.00000000       0.00000000       0.00000000       0.00000000       0.00000000    -121.67097473
Pt       0.00000000       0.00000000       1.17272727       0.00000000       0.00000000     121.67097473
2
Properties=species:S:1:pos:R:3:forces:R:3 energy=49.08306545677155 pbc="F F F"
Pt       0.00000000       0.00000000       0.00000000       0.00000000       0.00000000    -133.15214539
Pt       0.00000000       0.00000000       1.23232323       0.00000000       0.00000000     133.15214539
2
Properties=species:S:1:pos:R:3:forces:R:3 energy=39.694506780263836 pbc="F F F"
Pt       0.00000000       0.00000000       0.00000000       0.00000000       0.00000000    -168.11386108
Pt       0.00000000       0.00000000       1.29191919       0.00000000       0.00000000     168.11386108
2
Properties=species:S:1:pos:R:3:forces:R:3 energy=29.76610047937592 pbc="F F F"
Pt       0.00000000       0.00000000       0.00000000       0.00000000       0.00000000    -160.05227661
Pt       0.00000000       0.00000000       1.35151515       0.00000000       0.00000000     160.05227661
2
Properties=species:S:1:pos:R:3:forces:R:3 energy=20.9143055799786 pbc="F F F"
Pt       0.00000000       0.00000000       0.00000000       0.00000000       0.00000000    -134.18727112
Pt       0.00000000       0.00000000       1.41111111       0.00000000       0.00000000     134.18727112
2
Properties=species:S:1:pos:R:3:forces:R:3 energy=13.786368623416543 pbc="F F F"
Pt       0.00000000       0.00000000       0.00000000       0.00000000       0.00000000    -104.32786560
Pt       0.00000000       0.00000000       1.47070707       0.00000000       0.00000000     104.32786560
2
Properties=species:S:1:pos:R:3:forces:R:3 energy=8.497356318575928 pbc="F F F"
Pt       0.00000000       0.00000000       0.00000000       0.00000000       0.00000000     -74.49155426
Pt       0.00000000       0.00000000       1.53030303       0.00000000       0.00000000      74.49155426
2
Properties=species:S:1:pos:R:3:forces:R:3 energy=4.841336292191557 pbc="F F F"
Pt       0.00000000       0.00000000       0.00000000       0.00000000       0.00000000     -48.98216629
Pt       0.00000000       0.00000000       1.58989899       0.00000000       0.00000000      48.98216629
2
Properties=species:S:1:pos:R:3:forces:R:3 energy=2.497139879146138 pbc="F F F"
Pt       0.00000000       0.00000000       0.00000000       0.00000000       0.00000000     -31.29614830
Pt       0.00000000       0.00000000       1.64949495       0.00000000       0.00000000      31.29614830
2
Properties=species:S:1:pos:R:3:forces:R:3 energy=0.9722746697554807 pbc="F F F"
Pt       0.00000000       0.00000000       0.00000000       0.00000000       0.00000000     -20.33983803
Pt       0.00000000       0.00000000       1.70909091       0.00000000       0.00000000      20.33983803
2
Properties=species:S:1:pos:R:3:forces:R:3 energy=0.010343695473481192 pbc="F F F"
Pt       0.00000000       0.00000000       0.00000000       0.00000000       0.00000000     -12.97061348
Pt       0.00000000       0.00000000       1.76868687       0.00000000       0.00000000      12.97061348
2
Properties=species:S:1:pos:R:3:forces:R:3 energy=-0.6883325654455724 pbc="F F F"
Pt       0.00000000       0.00000000       0.00000000       0.00000000       0.00000000     -10.91855335
Pt       0.00000000       0.00000000       1.82828283       0.00000000       0.00000000      10.91855335
2
Properties=species:S:1:pos:R:3:forces:R:3 energy=-1.3049883111839615 pbc="F F F"
Pt       0.00000000       0.00000000       0.00000000       0.00000000       0.00000000     -10.07558250
Pt       0.00000000       0.00000000       1.88787879       0.00000000       0.00000000      10.07558250
2
Properties=species:S:1:pos:R:3:forces:R:3 energy=-1.903536902917711 pbc="F F F"
Pt       0.00000000       0.00000000       0.00000000       0.00000000       0.00000000      -9.93510628
Pt       0.00000000       0.00000000       1.94747475       0.00000000       0.00000000       9.93510628
2
Properties=species:S:1:pos:R:3:forces:R:3 energy=-2.4908194298248825 pbc="F F F"
Pt       0.00000000       0.00000000       0.00000000       0.00000000       0.00000000      -9.84123707
Pt       0.00000000       0.00000000       2.00707071       0.00000000       0.00000000       9.84123707
2
Properties=species:S:1:pos:R:3:forces:R:3 energy=-3.075819519645284 pbc="F F F"
Pt       0.00000000       0.00000000       0.00000000       0.00000000       0.00000000      -9.67101955
Pt       0.00000000       0.00000000       2.06666667       0.00000000       0.00000000       9.67101955
2
Properties=species:S:1:pos:R:3:forces:R:3 energy=-3.6210211436622886 pbc="F F F"
Pt       0.00000000       0.00000000       0.00000000       0.00000000       0.00000000      -8.43669891
Pt       0.00000000       0.00000000       2.12626263       0.00000000       0.00000000       8.43669891
2
Properties=species:S:1:pos:R:3:forces:R:3 energy=-4.070839601277035 pbc="F F F"
Pt       0.00000000       0.00000000       0.00000000       0.00000000       0.00000000      -6.66259050
Pt       0.00000000       0.00000000       2.18585859       0.00000000       0.00000000       6.66259050
2
Properties=species:S:1:pos:R:3:forces:R:3 energy=-4.415806160185928 pbc="F F F"
Pt       0.00000000       0.00000000       0.00000000       0.00000000       0.00000000      -4.91118526
Pt       0.00000000       0.00000000       2.24545455       0.00000000       0.00000000       4.91118526
2
Properties=species:S:1:pos:R:3:forces:R:3 energy=-4.657284172253505 pbc="F F F"
Pt       0.00000000       0.00000000       0.00000000       0.00000000       0.00000000      -3.20618868
Pt       0.00000000       0.00000000       2.30505051       0.00000000       0.00000000       3.20618868
2
Properties=species:S:1:pos:R:3:forces:R:3 energy=-4.800905699645716 pbc="F F F"
Pt       0.00000000       0.00000000       0.00000000       0.00000000       0.00000000      -1.66455722
Pt       0.00000000       0.00000000       2.36464646       0.00000000       0.00000000       1.66455722
2
Properties=species:S:1:pos:R:3:forces:R:3 energy=-4.86380983287966 pbc="F F F"
Pt       0.00000000       0.00000000       0.00000000       0.00000000       0.00000000      -0.51251352
Pt       0.00000000       0.00000000       2.42424242       0.00000000       0.00000000       0.51251352
2
Properties=species:S:1:pos:R:3:forces:R:3 energy=-4.868877232072986 pbc="F F F"
Pt       0.00000000       0.00000000       0.00000000       0.00000000       0.00000000       0.29004940
Pt       0.00000000       0.00000000       2.48383838       0.00000000       0.00000000      -0.29004940
2
Properties=species:S:1:pos:R:3:forces:R:3 energy=-4.8341906041947045 pbc="F F F"
Pt       0.00000000       0.00000000       0.00000000       0.00000000       0.00000000       0.84440982
Pt       0.00000000       0.00000000       2.54343434       0.00000000       0.00000000      -0.84440982
2
Properties=species:S:1:pos:R:3:forces:R:3 energy=-4.771379581766423 pbc="F F F"
Pt       0.00000000       0.00000000       0.00000000       0.00000000       0.00000000       1.23567343
Pt       0.00000000       0.00000000       2.60303030       0.00000000       0.00000000      -1.23567343
2
Properties=species:S:1:pos:R:3:forces:R:3 energy=-4.690256939348495 pbc="F F F"
Pt       0.00000000       0.00000000       0.00000000       0.00000000       0.00000000       1.46082377
Pt       0.00000000       0.00000000       2.66262626       0.00000000       0.00000000      -1.46082377
2
Properties=species:S:1:pos:R:3:forces:R:3 energy=-4.599901754229596 pbc="F F F"
Pt       0.00000000       0.00000000       0.00000000       0.00000000       0.00000000       1.55304205
Pt       0.00000000       0.00000000       2.72222222       0.00000000       0.00000000      -1.55304205
2
Properties=species:S:1:pos:R:3:forces:R:3 energy=-4.50689979605333 pbc="F F F"
Pt       0.00000000       0.00000000       0.00000000       0.00000000       0.00000000       1.55725682
Pt       0.00000000       0.00000000       2.78181818       0.00000000       0.00000000      -1.55725682
2
Properties=species:S:1:pos:R:3:forces:R:3 energy=-4.415165738858038 pbc="F F F"
Pt       0.00000000       0.00000000       0.00000000       0.00000000       0.00000000       1.51616132
Pt       0.00000000       0.00000000       2.84141414       0.00000000       0.00000000      -1.51616132
2
Properties=species:S:1:pos:R:3:forces:R:3 energy=-4.326719139467922 pbc="F F F"
Pt       0.00000000       0.00000000       0.00000000       0.00000000       0.00000000       1.44771731
Pt       0.00000000       0.00000000       2.90101010       0.00000000       0.00000000      -1.44771731
2
Properties=species:S:1:pos:R:3:forces:R:3 energy=-4.243056444887329 pbc="F F F"
Pt       0.00000000       0.00000000       0.00000000       0.00000000       0.00000000       1.35745454
Pt       0.00000000       0.00000000       2.96060606       0.00000000       0.00000000      -1.35745454
2
Properties=species:S:1:pos:R:3:forces:R:3 energy=-4.164979362631193 pbc="F F F"
Pt       0.00000000       0.00000000       0.00000000       0.00000000       0.00000000       1.26424086
Pt       0.00000000       0.00000000       3.02020202       0.00000000       0.00000000      -1.26424086
2
Properties=species:S:1:pos:R:3:forces:R:3 energy=-4.092082689046182 pbc="F F F"
Pt       0.00000000       0.00000000       0.00000000       0.00000000       0.00000000       1.18483484
Pt       0.00000000       0.00000000       3.07979798       0.00000000       0.00000000      -1.18483484
2
Properties=species:S:1:pos:R:3:forces:R:3 energy=-4.023459524047053 pbc="F F F"
Pt       0.00000000       0.00000000       0.00000000       0.00000000       0.00000000       1.12027991
Pt       0.00000000       0.00000000       3.13939394       0.00000000       0.00000000      -1.12027991
2
Properties=species:S:1:pos:R:3:forces:R:3 energy=-3.9583004945703233 pbc="F F F"
Pt       0.00000000       0.00000000       0.00000000       0.00000000       0.00000000       1.06851566
Pt       0.00000000       0.00000000       3.19898990       0.00000000       0.00000000      -1.06851566
2
Properties=species:S:1:pos:R:3:forces:R:3 energy=-3.8958872322536524 pbc="F F F"
Pt       0.00000000       0.00000000       0.00000000       0.00000000       0.00000000       1.02735066
Pt       0.00000000       0.00000000       3.25858586       0.00000000       0.00000000      -1.02735066
2
Properties=species:S:1:pos:R:3:forces:R:3 energy=-3.835769310035923 pbc="F F F"
Pt       0.00000000       0.00000000       0.00000000       0.00000000       0.00000000       0.99022734
Pt       0.00000000       0.00000000       3.31818182       0.00000000       0.00000000      -0.99022734
2
Properties=species:S:1:pos:R:3:forces:R:3 energy=-3.7779345332113397 pbc="F F F"
Pt       0.00000000       0.00000000       0.00000000       0.00000000       0.00000000       0.94951278
Pt       0.00000000       0.00000000       3.37777778       0.00000000       0.00000000      -0.94951278
2
Properties=species:S:1:pos:R:3:forces:R:3 energy=-3.7227561657281516 pbc="F F F"
Pt       0.00000000       0.00000000       0.00000000       0.00000000       0.00000000       0.90069366
Pt       0.00000000       0.00000000       3.43737374       0.00000000       0.00000000      -0.90069366
2
Properties=species:S:1:pos:R:3:forces:R:3 energy=-3.6707416528453938 pbc="F F F"
Pt       0.00000000       0.00000000       0.00000000       0.00000000       0.00000000       0.84369963
Pt       0.00000000       0.00000000       3.49696970       0.00000000       0.00000000      -0.84369963
2
Properties=species:S:1:pos:R:3:forces:R:3 energy=-3.6223028426434287 pbc="F F F"
Pt       0.00000000       0.00000000       0.00000000       0.00000000       0.00000000       0.78128850
Pt       0.00000000       0.00000000       3.55656566       0.00000000       0.00000000      -0.78128850
2
Properties=species:S:1:pos:R:3:forces:R:3 energy=-3.577670708200361 pbc="F F F"
Pt       0.00000000       0.00000000       0.00000000       0.00000000       0.00000000       0.71633989
Pt       0.00000000       0.00000000       3.61616162       0.00000000       0.00000000      -0.71633989
2
Properties=species:S:1:pos:R:3:forces:R:3 energy=-3.5369339460592744 pbc="F F F"
Pt       0.00000000       0.00000000       0.00000000       0.00000000       0.00000000       0.65065944
Pt       0.00000000       0.00000000       3.67575758       0.00000000       0.00000000      -0.65065944
2
Properties=species:S:1:pos:R:3:forces:R:3 energy=-3.5001068138175833 pbc="F F F"
Pt       0.00000000       0.00000000       0.00000000       0.00000000       0.00000000       0.58541244
Pt       0.00000000       0.00000000       3.73535354       0.00000000       0.00000000      -0.58541244
2
Properties=species:S:1:pos:R:3:forces:R:3 energy=-3.4671286564576955 pbc="F F F"
Pt       0.00000000       0.00000000       0.00000000       0.00000000       0.00000000       0.52175903
Pt       0.00000000       0.00000000       3.79494949       0.00000000       0.00000000      -0.52175903
2
Properties=species:S:1:pos:R:3:forces:R:3 energy=-3.4378610991770397 pbc="F F F"
Pt       0.00000000       0.00000000       0.00000000       0.00000000       0.00000000       0.46094045
Pt       0.00000000       0.00000000       3.85454545       0.00000000       0.00000000      -0.46094045
2
Properties=species:S:1:pos:R:3:forces:R:3 energy=-3.412108557721513 pbc="F F F"
Pt       0.00000000       0.00000000       0.00000000       0.00000000       0.00000000       0.40401804
Pt       0.00000000       0.00000000       3.91414141       0.00000000       0.00000000      -0.40401804
2
Properties=species:S:1:pos:R:3:forces:R:3 energy=-3.3896158541996892 pbc="F F F"
Pt       0.00000000       0.00000000       0.00000000       0.00000000       0.00000000       0.35166553
Pt       0.00000000       0.00000000       3.97373737       0.00000000       0.00000000      -0.35166553
2
Properties=species:S:1:pos:R:3:forces:R:3 energy=-3.3700973738415585 pbc="F F F"
Pt       0.00000000       0.00000000       0.00000000       0.00000000       0.00000000       0.30417946
Pt       0.00000000       0.00000000       4.03333333       0.00000000       0.00000000      -0.30417946
2
Properties=species:S:1:pos:R:3:forces:R:3 energy=-3.3532613076658615 pbc="F F F"
Pt       0.00000000       0.00000000       0.00000000       0.00000000       0.00000000       0.26161152
Pt       0.00000000       0.00000000       4.09292929       0.00000000       0.00000000      -0.26161152
2
Properties=species:S:1:pos:R:3:forces:R:3 energy=-3.338817749208313 pbc="F F F"
Pt       0.00000000       0.00000000       0.00000000       0.00000000       0.00000000       0.22389320
Pt       0.00000000       0.00000000       4.15252525       0.00000000       0.00000000      -0.22389320
2
Properties=species:S:1:pos:R:3:forces:R:3 energy=-3.3264810438613512 pbc="F F F"
Pt       0.00000000       0.00000000       0.00000000       0.00000000       0.00000000       0.19087097
Pt       0.00000000       0.00000000       4.21212121       0.00000000       0.00000000      -0.19087097
2
Properties=species:S:1:pos:R:3:forces:R:3 energy=-3.3159802095995285 pbc="F F F"
Pt       0.00000000       0.00000000       0.00000000       0.00000000       0.00000000       0.16229095
Pt       0.00000000       0.00000000       4.27171717       0.00000000       0.00000000      -0.16229095
2
Properties=species:S:1:pos:R:3:forces:R:3 energy=-3.30705698528137 pbc="F F F"
Pt       0.00000000       0.00000000       0.00000000       0.00000000       0.00000000       0.13778785
Pt       0.00000000       0.00000000       4.33131313       0.00000000       0.00000000      -0.13778785
2
Properties=species:S:1:pos:R:3:forces:R:3 energy=-3.2994828669063603 pbc="F F F"
Pt       0.00000000       0.00000000       0.00000000       0.00000000       0.00000000       0.11690007
Pt       0.00000000       0.00000000       4.39090909       0.00000000       0.00000000      -0.11690007
2
Properties=species:S:1:pos:R:3:forces:R:3 energy=-3.2930605064481977 pbc="F F F"
Pt       0.00000000       0.00000000       0.00000000       0.00000000       0.00000000       0.09911977
Pt       0.00000000       0.00000000       4.45050505       0.00000000       0.00000000      -0.09911977
2
Properties=species:S:1:pos:R:3:forces:R:3 energy=-3.287617858344274 pbc="F F F"
Pt       0.00000000       0.00000000       0.00000000       0.00000000       0.00000000       0.08395353
Pt       0.00000000       0.00000000       4.51010101       0.00000000       0.00000000      -0.08395353
2
Properties=species:S:1:pos:R:3:forces:R:3 energy=-3.283012364908059 pbc="F F F"
Pt       0.00000000       0.00000000       0.00000000       0.00000000       0.00000000       0.07097310
Pt       0.00000000       0.00000000       4.56969697       0.00000000       0.00000000      -0.07097310
2
Properties=species:S:1:pos:R:3:forces:R:3 energy=-3.2791213942433592 pbc="F F F"
Pt       0.00000000       0.00000000       0.00000000       0.00000000       0.00000000       0.05984319
Pt       0.00000000       0.00000000       4.62929293       0.00000000       0.00000000      -0.05984319
2
Properties=species:S:1:pos:R:3:forces:R:3 energy=-3.2758492439140467 pbc="F F F"
Pt       0.00000000       0.00000000       0.00000000       0.00000000       0.00000000       0.05031760
Pt       0.00000000       0.00000000       4.68888889       0.00000000       0.00000000      -0.05031760
2
Properties=species:S:1:pos:R:3:forces:R:3 energy=-3.2730975659528774 pbc="F F F"
Pt       0.00000000       0.00000000       0.00000000       0.00000000       0.00000000       0.04221735
Pt       0.00000000       0.00000000       4.74848485       0.00000000       0.00000000      -0.04221735
2
Properties=species:S:1:pos:R:3:forces:R:3 energy=-3.2707904950949653 pbc="F F F"
Pt       0.00000000       0.00000000       0.00000000       0.00000000       0.00000000       0.03540935
Pt       0.00000000       0.00000000       4.80808081       0.00000000       0.00000000      -0.03540935
2
Properties=species:S:1:pos:R:3:forces:R:3 energy=-3.268853736050998 pbc="F F F"
Pt       0.00000000       0.00000000       0.00000000       0.00000000       0.00000000       0.02978778
Pt       0.00000000       0.00000000       4.86767677       0.00000000       0.00000000      -0.02978778
2
Properties=species:S:1:pos:R:3:forces:R:3 energy=-3.2672182689146396 pbc="F F F"
Pt       0.00000000       0.00000000       0.00000000       0.00000000       0.00000000       0.02526287
Pt       0.00000000       0.00000000       4.92727273       0.00000000       0.00000000      -0.02526287
2
Properties=species:S:1:pos:R:3:forces:R:3 energy=-3.2658198802449263 pbc="F F F"
Pt       0.00000000       0.00000000       0.00000000       0.00000000       0.00000000       0.02175105
Pt       0.00000000       0.00000000       4.98686869       0.00000000       0.00000000      -0.02175105
2
Properties=species:S:1:pos:R:3:forces:R:3 energy=-3.2646053730367015 pbc="F F F"
Pt       0.00000000       0.00000000       0.00000000       0.00000000       0.00000000       0.01916128
Pt       0.00000000       0.00000000       5.04646465       0.00000000       0.00000000      -0.01916128
2
Properties=species:S:1:pos:R:3:forces:R:3 energy=-3.2635210861988635 pbc="F F F"
Pt       0.00000000       0.00000000       0.00000000       0.00000000       0.00000000       0.01738025
Pt       0.00000000       0.00000000       5.10606061       0.00000000       0.00000000      -0.01738025
2
Properties=species:S:1:pos:R:3:forces:R:3 energy=-3.2625225025735287 pbc="F F F"
Pt       0.00000000       0.00000000       0.00000000       0.00000000       0.00000000       0.01626281
Pt       0.00000000       0.00000000       5.16565657       0.00000000       0.00000000      -0.01626281
2
Properties=species:S:1:pos:R:3:forces:R:3 energy=-3.261572827928023 pbc="F F F"
Pt       0.00000000       0.00000000       0.00000000       0.00000000       0.00000000       0.01563228
Pt       0.00000000       0.00000000       5.22525253       0.00000000       0.00000000      -0.01563228
2
Properties=species:S:1:pos:R:3:forces:R:3 energy=-3.260651570855907 pbc="F F F"
Pt       0.00000000       0.00000000       0.00000000       0.00000000       0.00000000       0.01529304
Pt       0.00000000       0.00000000       5.28484848       0.00000000       0.00000000      -0.01529304
2
Properties=species:S:1:pos:R:3:forces:R:3 energy=-3.259748432592941 pbc="F F F"
Pt       0.00000000       0.00000000       0.00000000       0.00000000       0.00000000       0.01505335
Pt       0.00000000       0.00000000       5.34444444       0.00000000       0.00000000      -0.01505335
2
Properties=species:S:1:pos:R:3:forces:R:3 energy=-3.2588594851922172 pbc="F F F"
Pt       0.00000000       0.00000000       0.00000000       0.00000000       0.00000000       0.01475076
Pt       0.00000000       0.00000000       5.40404040       0.00000000       0.00000000      -0.01475076
2
Properties=species:S:1:pos:R:3:forces:R:3 energy=-3.2579934361395275 pbc="F F F"
Pt       0.00000000       0.00000000       0.00000000       0.00000000       0.00000000       0.01427208
Pt       0.00000000       0.00000000       5.46363636       0.00000000       0.00000000      -0.01427208
2
Properties=species:S:1:pos:R:3:forces:R:3 energy=-3.2571630666673146 pbc="F F F"
Pt       0.00000000       0.00000000       0.00000000       0.00000000       0.00000000       0.01356507
Pt       0.00000000       0.00000000       5.52323232       0.00000000       0.00000000      -0.01356507
2
Properties=species:S:1:pos:R:3:forces:R:3 energy=-3.2563805148602007 pbc="F F F"
Pt       0.00000000       0.00000000       0.00000000       0.00000000       0.00000000       0.01263949
Pt       0.00000000       0.00000000       5.58282828       0.00000000       0.00000000      -0.01263949
2
Properties=species:S:1:pos:R:3:forces:R:3 energy=-3.255659662216645 pbc="F F F"
Pt       0.00000000       0.00000000       0.00000000       0.00000000       0.00000000       0.01155874
Pt       0.00000000       0.00000000       5.64242424       0.00000000       0.00000000      -0.01155874
2
Properties=species:S:1:pos:R:3:forces:R:3 energy=-3.255003800031228 pbc="F F F"
Pt       0.00000000       0.00000000       0.00000000       0.00000000       0.00000000       0.01042040
Pt       0.00000000       0.00000000       5.70202020       0.00000000       0.00000000      -0.01042040
2
Properties=species:S:1:pos:R:3:forces:R:3 energy=-3.25441565960604 pbc="F F F"
Pt       0.00000000       0.00000000       0.00000000       0.00000000       0.00000000       0.00933463
Pt       0.00000000       0.00000000       5.76161616       0.00000000       0.00000000      -0.00933463
2
Properties=species:S:1:pos:R:3:forces:R:3 energy=-3.2538869257929806 pbc="F F F"
Pt       0.00000000       0.00000000       0.00000000       0.00000000       0.00000000       0.00839378
Pt       0.00000000       0.00000000       5.82121212       0.00000000       0.00000000      -0.00839378
2
Properties=species:S:1:pos:R:3:forces:R:3 energy=-3.253412120708231 pbc="F F F"
Pt       0.00000000       0.00000000       0.00000000       0.00000000       0.00000000       0.00765083
Pt       0.00000000       0.00000000       5.88080808       0.00000000       0.00000000      -0.00765083
2
Properties=species:S:1:pos:R:3:forces:R:3 energy=-3.252971426507183 pbc="F F F"
Pt       0.00000000       0.00000000       0.00000000       0.00000000       0.00000000       0.00709868
Pt       0.00000000       0.00000000       5.94040404       0.00000000       0.00000000      -0.00709868
2
Properties=species:S:1:pos:R:3:forces:R:3 energy=-3.252561713853811 pbc="F F F"
Pt       0.00000000       0.00000000       0.00000000       0.00000000       0.00000000       0.00667370
Pt       0.00000000       0.00000000       6.00000000       0.00000000       0.00000000      -0.00667370
