2
Properties=species:S:1:pos:R:3:forces:R:3 energy=78208.71106997276 pbc="F F F"
Rb       0.00000000       0.00000000       0.00000000       0.00000000       0.00000000 -464923.53125000
Rb       0.00000000       0.00000000       0.10000000       0.00000000       0.00000000  464923.53125000
2
Properties=species:S:1:pos:R:3:forces:R:3 energy=49516.832163722764 pbc="F F F"
Rb       0.00000000       0.00000000       0.00000000       0.00000000       0.00000000 -464363.34375000
Rb       0.00000000       0.00000000       0.15959596       0.00000000       0.00000000  464363.34375000
2
Properties=species:S:1:pos:R:3:forces:R:3 energy=25706.959116847764 pbc="F F F"
Rb       0.00000000       0.00000000       0.00000000       0.00000000       0.00000000 -328991.75000000
Rb       0.00000000       0.00000000       0.21919192       0.00000000       0.00000000  328991.75000000
2
Properties=species:S:1:pos:R:3:forces:R:3 energy=10580.012827785262 pbc="F F F"
Rb       0.00000000       0.00000000       0.00000000       0.00000000       0.00000000 -181160.93750000
Rb       0.00000000       0.00000000       0.27878788       0.00000000       0.00000000  181160.93750000
2
Properties=species:S:1:pos:R:3:forces:R:3 energy=3275.496226222762 pbc="F F F"
Rb       0.00000000       0.00000000       0.00000000       0.00000000       0.00000000  -73380.48437500
Rb       0.00000000       0.00000000       0.33838384       0.00000000       0.00000000   73380.48437500
2
Properties=species:S:1:pos:R:3:forces:R:3 energy=741.0354107930743 pbc="F F F"
Rb       0.00000000       0.00000000       0.00000000       0.00000000       0.00000000  -20422.60937500
Rb       0.00000000       0.00000000       0.39797980       0.00000000       0.00000000   20422.60937500
2
Properties=species:S:1:pos:R:3:forces:R:3 energy=72.91571322385752 pbc="F F F"
Rb       0.00000000       0.00000000       0.00000000       0.00000000       0.00000000   -2977.75366211
Rb       0.00000000       0.00000000       0.45757576       0.00000000       0.00000000    2977.75366211
2
Properties=species:S:1:pos:R:3:forces:R:3 energy=-38.59783276613271 pbc="F F F"
Rb       0.00000000       0.00000000       0.00000000       0.00000000       0.00000000   -2938.82177734
Rb       0.00000000       0.00000000       0.51717172       0.00000000       0.00000000    2938.82177734
2
Properties=species:S:1:pos:R:3:forces:R:3 energy=725.3570050361074 pbc="F F F"
Rb       0.00000000       0.00000000       0.00000000       0.00000000       0.00000000   -1501.12915039
Rb       0.00000000       0.00000000       0.57676768       0.00000000       0.00000000    1501.12915039
2
Properties=species:S:1:pos:R:3:forces:R:3 energy=467.1122540627127 pbc="F F F"
Rb       0.00000000       0.00000000       0.00000000       0.00000000       0.00000000   -4529.21240234
Rb       0.00000000       0.00000000       0.63636364       0.00000000       0.00000000    4529.21240234
2
Properties=species:S:1:pos:R:3:forces:R:3 energy=307.5247906885582 pbc="F F F"
Rb       0.00000000       0.00000000       0.00000000       0.00000000       0.00000000   -1179.52331543
Rb       0.00000000       0.00000000       0.69595960       0.00000000       0.00000000    1179.52331543
2
Properties=species:S:1:pos:R:3:forces:R:3 energy=233.63468449688978 pbc="F F F"
Rb       0.00000000       0.00000000       0.00000000       0.00000000       0.00000000    -970.27294922
Rb       0.00000000       0.00000000       0.75555556       0.00000000       0.00000000     970.27294922
2
Properties=species:S:1:pos:R:3:forces:R:3 energy=183.229395813272 pbc="F F F"
Rb       0.00000000       0.00000000       0.00000000       0.00000000       0.00000000    -688.97973633
Rb       0.00000000       0.00000000       0.81515152       0.00000000       0.00000000     688.97973633
2
Properties=species:S:1:pos:R:3:forces:R:3 energy=134.1101789133336 pbc="F F F"
Rb       0.00000000       0.00000000       0.00000000       0.00000000       0.00000000    -706.45227051
Rb       0.00000000       0.00000000       0.87474747       0.00000000       0.00000000     706.45227051
2
Properties=species:S:1:pos:R:3:forces:R:3 energy=101.61653422432073 pbc="F F F"
Rb       0.00000000       0.00000000       0.00000000       0.00000000       0.00000000    -364.13806152
Rb       0.00000000       0.00000000       0.93434343       0.00000000       0.00000000     364.13806152
2
Properties=species:S:1:pos:R:3:forces:R:3 energy=89.15495589161006 pbc="F F F"
Rb       0.00000000       0.00000000       0.00000000       0.00000000       0.00000000    -109.68069458
Rb       0.00000000       0.00000000       0.99393939       0.00000000       0.00000000     109.68069458
2
Properties=species:S:1:pos:R:3:forces:R:3 energy=84.24474628336567 pbc="F F F"
Rb       0.00000000       0.00000000       0.00000000       0.00000000       0.00000000     -66.00942230
Rb       0.00000000       0.00000000       1.05353535       0.00000000       0.00000000      66.00942230
2
Properties=species:S:1:pos:R:3:forces:R:3 energy=78.9266692624876 pbc="F F F"
Rb       0.00000000       0.00000000       0.00000000       0.00000000       0.00000000    -117.00053406
Rb       0.00000000       0.00000000       1.11313131       0.00000000       0.00000000     117.00053406
2
Properties=species:S:1:pos:R:3:forces:R:3 energy=70.71068881823363 pbc="F F F"
Rb       0.00000000       0.00000000       0.00000000       0.00000000       0.00000000    -143.95146179
Rb       0.00000000       0.00000000       1.17272727       0.00000000       0.00000000     143.95146179
2
Properties=species:S:1:pos:R:3:forces:R:3 energy=62.51791701748631 pbc="F F F"
Rb       0.00000000       0.00000000       0.00000000       0.00000000       0.00000000    -131.21760559
Rb       0.00000000       0.00000000       1.23232323       0.00000000       0.00000000     131.21760559
2
Properties=species:S:1:pos:R:3:forces:R:3 energy=54.61654234314378 pbc="F F F"
Rb       0.00000000       0.00000000       0.00000000       0.00000000       0.00000000    -131.26785278
Rb       0.00000000       0.00000000       1.29191919       0.00000000       0.00000000     131.26785278
2
Properties=species:S:1:pos:R:3:forces:R:3 energy=47.02819032192441 pbc="F F F"
Rb       0.00000000       0.00000000       0.00000000       0.00000000       0.00000000    -120.93267059
Rb       0.00000000       0.00000000       1.35151515       0.00000000       0.00000000     120.93267059
2
Properties=species:S:1:pos:R:3:forces:R:3 energy=39.95371621529081 pbc="F F F"
Rb       0.00000000       0.00000000       0.00000000       0.00000000       0.00000000    -116.72763062
Rb       0.00000000       0.00000000       1.41111111       0.00000000       0.00000000     116.72763062
2
Properties=species:S:1:pos:R:3:forces:R:3 energy=33.31491492410386 pbc="F F F"
Rb       0.00000000       0.00000000       0.00000000       0.00000000       0.00000000    -102.82646179
Rb       0.00000000       0.00000000       1.47070707       0.00000000       0.00000000     102.82646179
2
Properties=species:S:1:pos:R:3:forces:R:3 energy=27.899590110937197 pbc="F F F"
Rb       0.00000000       0.00000000       0.00000000       0.00000000       0.00000000     -80.12314606
Rb       0.00000000       0.00000000       1.53030303       0.00000000       0.00000000      80.12314606
2
Properties=species:S:1:pos:R:3:forces:R:3 energy=23.55937485877761 pbc="F F F"
Rb       0.00000000       0.00000000       0.00000000       0.00000000       0.00000000     -67.51197052
Rb       0.00000000       0.00000000       1.58989899       0.00000000       0.00000000      67.51197052
2
Properties=species:S:1:pos:R:3:forces:R:3 energy=19.796971896476908 pbc="F F F"
Rb       0.00000000       0.00000000       0.00000000       0.00000000       0.00000000     -58.11846542
Rb       0.00000000       0.00000000       1.64949495       0.00000000       0.00000000      58.11846542
2
Properties=species:S:1:pos:R:3:forces:R:3 energy=16.605366008434892 pbc="F F F"
Rb       0.00000000       0.00000000       0.00000000       0.00000000       0.00000000     -48.89908981
Rb       0.00000000       0.00000000       1.70909091       0.00000000       0.00000000      48.89908981
2
Properties=species:S:1:pos:R:3:forces:R:3 energy=14.049328867464087 pbc="F F F"
Rb       0.00000000       0.00000000       0.00000000       0.00000000       0.00000000     -37.22897339
Rb       0.00000000       0.00000000       1.76868687       0.00000000       0.00000000      37.22897339
2
Properties=species:S:1:pos:R:3:forces:R:3 energy=12.075946828383852 pbc="F F F"
Rb       0.00000000       0.00000000       0.00000000       0.00000000       0.00000000     -29.33369255
Rb       0.00000000       0.00000000       1.82828283       0.00000000       0.00000000      29.33369255
2
Properties=species:S:1:pos:R:3:forces:R:3 energy=10.49155917886887 pbc="F F F"
Rb       0.00000000       0.00000000       0.00000000       0.00000000       0.00000000     -24.13317680
Rb       0.00000000       0.00000000       1.88787879       0.00000000       0.00000000      24.13317680
2
Properties=species:S:1:pos:R:3:forces:R:3 energy=9.157383446208838 pbc="F F F"
Rb       0.00000000       0.00000000       0.00000000       0.00000000       0.00000000     -21.01331902
Rb       0.00000000       0.00000000       1.94747475       0.00000000       0.00000000      21.01331902
2
Properties=species:S:1:pos:R:3:forces:R:3 energy=7.963997447283758 pbc="F F F"
Rb       0.00000000       0.00000000       0.00000000       0.00000000       0.00000000     -19.12019730
Rb       0.00000000       0.00000000       2.00707071       0.00000000       0.00000000      19.12019730
2
Properties=species:S:1:pos:R:3:forces:R:3 energy=6.862404294753492 pbc="F F F"
Rb       0.00000000       0.00000000       0.00000000       0.00000000       0.00000000     -17.96461487
Rb       0.00000000       0.00000000       2.06666667       0.00000000       0.00000000      17.96461487
2
Properties=species:S:1:pos:R:3:forces:R:3 energy=5.824927917964816 pbc="F F F"
Rb       0.00000000       0.00000000       0.00000000       0.00000000       0.00000000     -16.80362511
Rb       0.00000000       0.00000000       2.12626263       0.00000000       0.00000000      16.80362511
2
Properties=species:S:1:pos:R:3:forces:R:3 energy=4.857075825692753 pbc="F F F"
Rb       0.00000000       0.00000000       0.00000000       0.00000000       0.00000000     -15.69251728
Rb       0.00000000       0.00000000       2.18585859       0.00000000       0.00000000      15.69251728
2
Properties=species:S:1:pos:R:3:forces:R:3 energy=3.964078013821898 pbc="F F F"
Rb       0.00000000       0.00000000       0.00000000       0.00000000       0.00000000     -14.17640972
Rb       0.00000000       0.00000000       2.24545455       0.00000000       0.00000000      14.17640972
2
Properties=species:S:1:pos:R:3:forces:R:3 energy=3.1713804679799327 pbc="F F F"
Rb       0.00000000       0.00000000       0.00000000       0.00000000       0.00000000     -12.42277336
Rb       0.00000000       0.00000000       2.30505051       0.00000000       0.00000000      12.42277336
2
Properties=species:S:1:pos:R:3:forces:R:3 energy=2.4845946648653907 pbc="F F F"
Rb       0.00000000       0.00000000       0.00000000       0.00000000       0.00000000     -10.61832047
Rb       0.00000000       0.00000000       2.36464646       0.00000000       0.00000000      10.61832047
2
Properties=species:S:1:pos:R:3:forces:R:3 energy=1.9046180706147198 pbc="F F F"
Rb       0.00000000       0.00000000       0.00000000       0.00000000       0.00000000      -8.86794281
Rb       0.00000000       0.00000000       2.42424242       0.00000000       0.00000000       8.86794281
2
Properties=species:S:1:pos:R:3:forces:R:3 energy=1.4238113436406132 pbc="F F F"
Rb       0.00000000       0.00000000       0.00000000       0.00000000       0.00000000      -7.30646944
Rb       0.00000000       0.00000000       2.48383838       0.00000000       0.00000000       7.30646944
2
Properties=species:S:1:pos:R:3:forces:R:3 energy=1.0285484581701676 pbc="F F F"
Rb       0.00000000       0.00000000       0.00000000       0.00000000       0.00000000      -6.00882626
Rb       0.00000000       0.00000000       2.54343434       0.00000000       0.00000000       6.00882626
2
Properties=species:S:1:pos:R:3:forces:R:3 energy=0.7009786127927113 pbc="F F F"
Rb       0.00000000       0.00000000       0.00000000       0.00000000       0.00000000      -5.03920984
Rb       0.00000000       0.00000000       2.60303030       0.00000000       0.00000000       5.03920984
2
Properties=species:S:1:pos:R:3:forces:R:3 energy=0.4222229594396864 pbc="F F F"
Rb       0.00000000       0.00000000       0.00000000       0.00000000       0.00000000      -4.35378075
Rb       0.00000000       0.00000000       2.66262626       0.00000000       0.00000000       4.35378075
2
Properties=species:S:1:pos:R:3:forces:R:3 energy=0.17884908881526418 pbc="F F F"
Rb       0.00000000       0.00000000       0.00000000       0.00000000       0.00000000      -3.82968307
Rb       0.00000000       0.00000000       2.72222222       0.00000000       0.00000000       3.82968307
2
Properties=species:S:1:pos:R:3:forces:R:3 energy=-0.03540234383771226 pbc="F F F"
Rb       0.00000000       0.00000000       0.00000000       0.00000000       0.00000000      -3.36733317
Rb       0.00000000       0.00000000       2.78181818       0.00000000       0.00000000       3.36733317
2
Properties=species:S:1:pos:R:3:forces:R:3 energy=-0.22333169544341686 pbc="F F F"
Rb       0.00000000       0.00000000       0.00000000       0.00000000       0.00000000      -2.94674611
Rb       0.00000000       0.00000000       2.84141414       0.00000000       0.00000000       2.94674611
2
Properties=species:S:1:pos:R:3:forces:R:3 energy=-0.3875166368053205 pbc="F F F"
Rb       0.00000000       0.00000000       0.00000000       0.00000000       0.00000000      -2.57048273
Rb       0.00000000       0.00000000       2.90101010       0.00000000       0.00000000       2.57048273
2
Properties=species:S:1:pos:R:3:forces:R:3 energy=-0.5305395880915432 pbc="F F F"
Rb       0.00000000       0.00000000       0.00000000       0.00000000       0.00000000      -2.23598337
Rb       0.00000000       0.00000000       2.96060606       0.00000000       0.00000000       2.23598337
2
Properties=species:S:1:pos:R:3:forces:R:3 energy=-0.6547917720249654 pbc="F F F"
Rb       0.00000000       0.00000000       0.00000000       0.00000000       0.00000000      -1.94002855
Rb       0.00000000       0.00000000       3.02020202       0.00000000       0.00000000       1.94002855
2
Properties=species:S:1:pos:R:3:forces:R:3 energy=-0.7624955967192637 pbc="F F F"
Rb       0.00000000       0.00000000       0.00000000       0.00000000       0.00000000      -1.68031681
Rb       0.00000000       0.00000000       3.07979798       0.00000000       0.00000000       1.68031681
2
Properties=species:S:1:pos:R:3:forces:R:3 energy=-0.8557618840574509 pbc="F F F"
Rb       0.00000000       0.00000000       0.00000000       0.00000000       0.00000000      -1.45536292
Rb       0.00000000       0.00000000       3.13939394       0.00000000       0.00000000       1.45536292
2
Properties=species:S:1:pos:R:3:forces:R:3 energy=-0.9366389997582817 pbc="F F F"
Rb       0.00000000       0.00000000       0.00000000       0.00000000       0.00000000      -1.26445925
Rb       0.00000000       0.00000000       3.19898990       0.00000000       0.00000000       1.26445925
2
Properties=species:S:1:pos:R:3:forces:R:3 energy=-1.007144321460872 pbc="F F F"
Rb       0.00000000       0.00000000       0.00000000       0.00000000       0.00000000      -1.10718668
Rb       0.00000000       0.00000000       3.25858586       0.00000000       0.00000000       1.10718668
2
Properties=species:S:1:pos:R:3:forces:R:3 energy=-1.0692527930489908 pbc="F F F"
Rb       0.00000000       0.00000000       0.00000000       0.00000000       0.00000000      -0.98229492
Rb       0.00000000       0.00000000       3.31818182       0.00000000       0.00000000       0.98229492
2
Properties=species:S:1:pos:R:3:forces:R:3 energy=-1.1247910984801606 pbc="F F F"
Rb       0.00000000       0.00000000       0.00000000       0.00000000       0.00000000      -0.88570440
Rb       0.00000000       0.00000000       3.37777778       0.00000000       0.00000000       0.88570440
2
Properties=species:S:1:pos:R:3:forces:R:3 energy=-1.1752352174855114 pbc="F F F"
Rb       0.00000000       0.00000000       0.00000000       0.00000000       0.00000000      -0.80987793
Rb       0.00000000       0.00000000       3.43737374       0.00000000       0.00000000       0.80987793
2
Properties=species:S:1:pos:R:3:forces:R:3 energy=-1.221559328379253 pbc="F F F"
Rb       0.00000000       0.00000000       0.00000000       0.00000000       0.00000000      -0.74607360
Rb       0.00000000       0.00000000       3.49696970       0.00000000       0.00000000       0.74607360
2
Properties=species:S:1:pos:R:3:forces:R:3 energy=-1.264263204020514 pbc="F F F"
Rb       0.00000000       0.00000000       0.00000000       0.00000000       0.00000000      -0.68757576
Rb       0.00000000       0.00000000       3.55656566       0.00000000       0.00000000       0.68757576
2
Properties=species:S:1:pos:R:3:forces:R:3 energy=-1.303554169538708 pbc="F F F"
Rb       0.00000000       0.00000000       0.00000000       0.00000000       0.00000000      -0.63128179
Rb       0.00000000       0.00000000       3.61616162       0.00000000       0.00000000       0.63128179
2
Properties=species:S:1:pos:R:3:forces:R:3 energy=-1.3395473929469122 pbc="F F F"
Rb       0.00000000       0.00000000       0.00000000       0.00000000       0.00000000      -0.57705986
Rb       0.00000000       0.00000000       3.67575758       0.00000000       0.00000000       0.57705986
2
Properties=species:S:1:pos:R:3:forces:R:3 energy=-1.3724003928182558 pbc="F F F"
Rb       0.00000000       0.00000000       0.00000000       0.00000000       0.00000000      -0.52610999
Rb       0.00000000       0.00000000       3.73535354       0.00000000       0.00000000       0.52610999
2
Properties=species:S:1:pos:R:3:forces:R:3 energy=-1.402342663962262 pbc="F F F"
Rb       0.00000000       0.00000000       0.00000000       0.00000000       0.00000000      -0.47949985
Rb       0.00000000       0.00000000       3.79494949       0.00000000       0.00000000       0.47949985
2
Properties=species:S:1:pos:R:3:forces:R:3 energy=-1.4296430552611985 pbc="F F F"
Rb       0.00000000       0.00000000       0.00000000       0.00000000       0.00000000      -0.43741259
Rb       0.00000000       0.00000000       3.85454545       0.00000000       0.00000000       0.43741259
2
Properties=species:S:1:pos:R:3:forces:R:3 energy=-1.4545559916093314 pbc="F F F"
Rb       0.00000000       0.00000000       0.00000000       0.00000000       0.00000000      -0.39916050
Rb       0.00000000       0.00000000       3.91414141       0.00000000       0.00000000       0.39916050
2
Properties=species:S:1:pos:R:3:forces:R:3 energy=-1.477274872168218 pbc="F F F"
Rb       0.00000000       0.00000000       0.00000000       0.00000000       0.00000000      -0.36368728
Rb       0.00000000       0.00000000       3.97373737       0.00000000       0.00000000       0.36368728
2
Properties=species:S:1:pos:R:3:forces:R:3 energy=-1.4979412934155543 pbc="F F F"
Rb       0.00000000       0.00000000       0.00000000       0.00000000       0.00000000      -0.33010313
Rb       0.00000000       0.00000000       4.03333333       0.00000000       0.00000000       0.33010313
2
Properties=species:S:1:pos:R:3:forces:R:3 energy=-1.516649139442966 pbc="F F F"
Rb       0.00000000       0.00000000       0.00000000       0.00000000       0.00000000      -0.29795876
Rb       0.00000000       0.00000000       4.09292929       0.00000000       0.00000000       0.29795876
2
Properties=species:S:1:pos:R:3:forces:R:3 energy=-1.5334826385658096 pbc="F F F"
Rb       0.00000000       0.00000000       0.00000000       0.00000000       0.00000000      -0.26722768
Rb       0.00000000       0.00000000       4.15252525       0.00000000       0.00000000       0.26722768
2
Properties=species:S:1:pos:R:3:forces:R:3 energy=-1.5485331824244928 pbc="F F F"
Rb       0.00000000       0.00000000       0.00000000       0.00000000       0.00000000      -0.23812188
Rb       0.00000000       0.00000000       4.21212121       0.00000000       0.00000000       0.23812188
2
Properties=species:S:1:pos:R:3:forces:R:3 energy=-1.5619031009241124 pbc="F F F"
Rb       0.00000000       0.00000000       0.00000000       0.00000000       0.00000000      -0.21088885
Rb       0.00000000       0.00000000       4.27171717       0.00000000       0.00000000       0.21088885
2
Properties=species:S:1:pos:R:3:forces:R:3 energy=-1.5737097277818142 pbc="F F F"
Rb       0.00000000       0.00000000       0.00000000       0.00000000       0.00000000      -0.18569012
Rb       0.00000000       0.00000000       4.33131313       0.00000000       0.00000000       0.18569012
2
Properties=species:S:1:pos:R:3:forces:R:3 energy=-1.584076728359299 pbc="F F F"
Rb       0.00000000       0.00000000       0.00000000       0.00000000       0.00000000      -0.16256751
Rb       0.00000000       0.00000000       4.39090909       0.00000000       0.00000000       0.16256751
2
Properties=species:S:1:pos:R:3:forces:R:3 energy=-1.593126773819744 pbc="F F F"
Rb       0.00000000       0.00000000       0.00000000       0.00000000       0.00000000      -0.14150351
Rb       0.00000000       0.00000000       4.45050505       0.00000000       0.00000000       0.14150351
2
Properties=species:S:1:pos:R:3:forces:R:3 energy=-1.6009837287015147 pbc="F F F"
Rb       0.00000000       0.00000000       0.00000000       0.00000000       0.00000000      -0.12254616
Rb       0.00000000       0.00000000       4.51010101       0.00000000       0.00000000       0.12254616
2
Properties=species:S:1:pos:R:3:forces:R:3 energy=-1.6077799856906476 pbc="F F F"
Rb       0.00000000       0.00000000       0.00000000       0.00000000       0.00000000      -0.10596131
Rb       0.00000000       0.00000000       4.56969697       0.00000000       0.00000000       0.10596131
2
Properties=species:S:1:pos:R:3:forces:R:3 energy=-1.6136745474370782 pbc="F F F"
Rb       0.00000000       0.00000000       0.00000000       0.00000000       0.00000000      -0.09240051
Rb       0.00000000       0.00000000       4.62929293       0.00000000       0.00000000       0.09240051
2
Properties=species:S:1:pos:R:3:forces:R:3 energy=-1.6188772594495606 pbc="F F F"
Rb       0.00000000       0.00000000       0.00000000       0.00000000       0.00000000      -0.08302758
Rb       0.00000000       0.00000000       4.68888889       0.00000000       0.00000000       0.08302758
2
Properties=species:S:1:pos:R:3:forces:R:3 energy=-1.6236866708961315 pbc="F F F"
Rb       0.00000000       0.00000000       0.00000000       0.00000000       0.00000000      -0.07953170
Rb       0.00000000       0.00000000       4.74848485       0.00000000       0.00000000       0.07953170
2
Properties=species:S:1:pos:R:3:forces:R:3 energy=-1.6285110249133614 pbc="F F F"
Rb       0.00000000       0.00000000       0.00000000       0.00000000       0.00000000      -0.08380678
Rb       0.00000000       0.00000000       4.80808081       0.00000000       0.00000000       0.08380678
2
Properties=species:S:1:pos:R:3:forces:R:3 energy=-1.6338525553596004 pbc="F F F"
Rb       0.00000000       0.00000000       0.00000000       0.00000000       0.00000000      -0.09688964
Rb       0.00000000       0.00000000       4.86767677       0.00000000       0.00000000       0.09688964
2
Properties=species:S:1:pos:R:3:forces:R:3 energy=-1.6402008337305167 pbc="F F F"
Rb       0.00000000       0.00000000       0.00000000       0.00000000       0.00000000      -0.11698672
Rb       0.00000000       0.00000000       4.92727273       0.00000000       0.00000000       0.11698672
2
Properties=species:S:1:pos:R:3:forces:R:3 energy=-1.6478112054369387 pbc="F F F"
Rb       0.00000000       0.00000000       0.00000000       0.00000000       0.00000000      -0.13768484
Rb       0.00000000       0.00000000       4.98686869       0.00000000       0.00000000       0.13768484
2
Properties=species:S:1:pos:R:3:forces:R:3 energy=-1.6564281458982901 pbc="F F F"
Rb       0.00000000       0.00000000       0.00000000       0.00000000       0.00000000      -0.14914447
Rb       0.00000000       0.00000000       5.04646465       0.00000000       0.00000000       0.14914447
2
Properties=species:S:1:pos:R:3:forces:R:3 energy=-1.665242359668259 pbc="F F F"
Rb       0.00000000       0.00000000       0.00000000       0.00000000       0.00000000      -0.14347479
Rb       0.00000000       0.00000000       5.10606061       0.00000000       0.00000000       0.14347479
2
Properties=species:S:1:pos:R:3:forces:R:3 energy=-1.6731722541692693 pbc="F F F"
Rb       0.00000000       0.00000000       0.00000000       0.00000000       0.00000000      -0.12008271
Rb       0.00000000       0.00000000       5.16565657       0.00000000       0.00000000       0.12008271
2
Properties=species:S:1:pos:R:3:forces:R:3 energy=-1.6793320574101627 pbc="F F F"
Rb       0.00000000       0.00000000       0.00000000       0.00000000       0.00000000      -0.08551094
Rb       0.00000000       0.00000000       5.22525253       0.00000000       0.00000000       0.08551094
2
Properties=species:S:1:pos:R:3:forces:R:3 energy=-1.6833199801775118 pbc="F F F"
Rb       0.00000000       0.00000000       0.00000000       0.00000000       0.00000000      -0.04861591
Rb       0.00000000       0.00000000       5.28484848       0.00000000       0.00000000       0.04861591
2
Properties=species:S:1:pos:R:3:forces:R:3 energy=-1.685216856912737 pbc="F F F"
Rb       0.00000000       0.00000000       0.00000000       0.00000000       0.00000000      -0.01615895
Rb       0.00000000       0.00000000       5.34444444       0.00000000       0.00000000       0.01615895
2
Properties=species:S:1:pos:R:3:forces:R:3 energy=-1.685399369065402 pbc="F F F"
Rb       0.00000000       0.00000000       0.00000000       0.00000000       0.00000000       0.00863232
Rb       0.00000000       0.00000000       5.40404040       0.00000000       0.00000000      -0.00863232
2
Properties=species:S:1:pos:R:3:forces:R:3 energy=-1.6843494616507182 pbc="F F F"
Rb       0.00000000       0.00000000       0.00000000       0.00000000       0.00000000       0.02536367
Rb       0.00000000       0.00000000       5.46363636       0.00000000       0.00000000      -0.02536367
2
Properties=species:S:1:pos:R:3:forces:R:3 energy=-1.6825139968925127 pbc="F F F"
Rb       0.00000000       0.00000000       0.00000000       0.00000000       0.00000000       0.03525427
Rb       0.00000000       0.00000000       5.52323232       0.00000000       0.00000000      -0.03525427
2
Properties=species:S:1:pos:R:3:forces:R:3 energy=-1.6802462455725935 pbc="F F F"
Rb       0.00000000       0.00000000       0.00000000       0.00000000       0.00000000       0.04014609
Rb       0.00000000       0.00000000       5.58282828       0.00000000       0.00000000      -0.04014609
2
Properties=species:S:1:pos:R:3:forces:R:3 energy=-1.6777901753049618 pbc="F F F"
Rb       0.00000000       0.00000000       0.00000000       0.00000000       0.00000000       0.04192527
Rb       0.00000000       0.00000000       5.64242424       0.00000000       0.00000000      -0.04192527
2
Properties=species:S:1:pos:R:3:forces:R:3 energy=-1.6752788990076977 pbc="F F F"
Rb       0.00000000       0.00000000       0.00000000       0.00000000       0.00000000       0.04219086
Rb       0.00000000       0.00000000       5.70202020       0.00000000       0.00000000      -0.04219086
2
Properties=species:S:1:pos:R:3:forces:R:3 energy=-1.6727692970194898 pbc="F F F"
Rb       0.00000000       0.00000000       0.00000000       0.00000000       0.00000000       0.04212486
Rb       0.00000000       0.00000000       5.76161616       0.00000000       0.00000000      -0.04212486
2
Properties=species:S:1:pos:R:3:forces:R:3 energy=-1.6702501564190184 pbc="F F F"
Rb       0.00000000       0.00000000       0.00000000       0.00000000       0.00000000       0.04242878
Rb       0.00000000       0.00000000       5.82121212       0.00000000       0.00000000      -0.04242878
2
Properties=species:S:1:pos:R:3:forces:R:3 energy=-1.6676971800897196 pbc="F F F"
Rb       0.00000000       0.00000000       0.00000000       0.00000000       0.00000000       0.04336801
Rb       0.00000000       0.00000000       5.88080808       0.00000000       0.00000000      -0.04336801
2
Properties=species:S:1:pos:R:3:forces:R:3 energy=-1.6650708580086382 pbc="F F F"
Rb       0.00000000       0.00000000       0.00000000       0.00000000       0.00000000       0.04480741
Rb       0.00000000       0.00000000       5.94040404       0.00000000       0.00000000      -0.04480741
2
Properties=species:S:1:pos:R:3:forces:R:3 energy=-1.6623550133973435 pbc="F F F"
Rb       0.00000000       0.00000000       0.00000000       0.00000000       0.00000000       0.04632730
Rb       0.00000000       0.00000000       6.00000000       0.00000000       0.00000000      -0.04632730
