2
Properties=species:S:1:pos:R:3:forces:R:3 energy=3133317.4540981557 pbc="F F F"
Re       0.00000000       0.00000000       0.00000000       0.00000000       0.00000000 -22996186.00000000
Re       0.00000000       0.00000000       0.18000000       0.00000000       0.00000000 22996186.00000000
2
Properties=species:S:1:pos:R:3:forces:R:3 energy=1845759.5790981557 pbc="F F F"
Re       0.00000000       0.00000000       0.00000000       0.00000000       0.00000000 -19473544.00000000
Re       0.00000000       0.00000000       0.23878788       0.00000000       0.00000000 19473544.00000000
2
Properties=species:S:1:pos:R:3:forces:R:3 energy=888729.6415981557 pbc="F F F"
Re       0.00000000       0.00000000       0.00000000       0.00000000       0.00000000 -12842694.00000000
Re       0.00000000       0.00000000       0.29757576       0.00000000       0.00000000 12842694.00000000
2
Properties=species:S:1:pos:R:3:forces:R:3 energy=366201.5478481557 pbc="F F F"
Re       0.00000000       0.00000000       0.00000000       0.00000000       0.00000000 -5949472.50000000
Re       0.00000000       0.00000000       0.35636364       0.00000000       0.00000000 5949472.50000000
2
Properties=species:S:1:pos:R:3:forces:R:3 energy=131700.39159816204 pbc="F F F"
Re       0.00000000       0.00000000       0.00000000       0.00000000       0.00000000 -2503391.00000000
Re       0.00000000       0.00000000       0.41515152       0.00000000       0.00000000 2503391.00000000
2
Properties=species:S:1:pos:R:3:forces:R:3 energy=44701.762691918375 pbc="F F F"
Re       0.00000000       0.00000000       0.00000000       0.00000000       0.00000000 -749403.87500000
Re       0.00000000       0.00000000       0.47393939       0.00000000       0.00000000  749403.87500000
2
Properties=species:S:1:pos:R:3:forces:R:3 energy=15907.502926306048 pbc="F F F"
Re       0.00000000       0.00000000       0.00000000       0.00000000       0.00000000 -300381.46875000
Re       0.00000000       0.00000000       0.53272727       0.00000000       0.00000000  300381.46875000
2
Properties=species:S:1:pos:R:3:forces:R:3 energy=5294.050289609473 pbc="F F F"
Re       0.00000000       0.00000000       0.00000000       0.00000000       0.00000000  -98749.14062500
Re       0.00000000       0.00000000       0.59151515       0.00000000       0.00000000   98749.14062500
2
Properties=species:S:1:pos:R:3:forces:R:3 energy=1716.2495084006548 pbc="F F F"
Re       0.00000000       0.00000000       0.00000000       0.00000000       0.00000000  -32118.49609375
Re       0.00000000       0.00000000       0.65030303       0.00000000       0.00000000   32118.49609375
2
Properties=species:S:1:pos:R:3:forces:R:3 energy=708.6157804303319 pbc="F F F"
Re       0.00000000       0.00000000       0.00000000       0.00000000       0.00000000   -9419.33398438
Re       0.00000000       0.00000000       0.70909091       0.00000000       0.00000000    9419.33398438
2
Properties=species:S:1:pos:R:3:forces:R:3 energy=332.0073210463747 pbc="F F F"
Re       0.00000000       0.00000000       0.00000000       0.00000000       0.00000000   -4314.33496094
Re       0.00000000       0.00000000       0.76787879       0.00000000       0.00000000    4314.33496094
2
Properties=species:S:1:pos:R:3:forces:R:3 energy=158.4408233830245 pbc="F F F"
Re       0.00000000       0.00000000       0.00000000       0.00000000       0.00000000   -1742.42553711
Re       0.00000000       0.00000000       0.82666667       0.00000000       0.00000000    1742.42553711
2
Properties=species:S:1:pos:R:3:forces:R:3 energy=90.38172628622259 pbc="F F F"
Re       0.00000000       0.00000000       0.00000000       0.00000000       0.00000000    -735.64050293
Re       0.00000000       0.00000000       0.88545455       0.00000000       0.00000000     735.64050293
2
Properties=species:S:1:pos:R:3:forces:R:3 energy=57.30988817658122 pbc="F F F"
Re       0.00000000       0.00000000       0.00000000       0.00000000       0.00000000    -436.41827393
Re       0.00000000       0.00000000       0.94424242       0.00000000       0.00000000     436.41827393
2
Properties=species:S:1:pos:R:3:forces:R:3 energy=40.87376947079439 pbc="F F F"
Re       0.00000000       0.00000000       0.00000000       0.00000000       0.00000000    -248.29898071
Re       0.00000000       0.00000000       1.00303030       0.00000000       0.00000000     248.29898071
2
Properties=species:S:1:pos:R:3:forces:R:3 energy=27.813869687496812 pbc="F F F"
Re       0.00000000       0.00000000       0.00000000       0.00000000       0.00000000    -182.32060242
Re       0.00000000       0.00000000       1.06181818       0.00000000       0.00000000     182.32060242
2
Properties=species:S:1:pos:R:3:forces:R:3 energy=18.224385190618076 pbc="F F F"
Re       0.00000000       0.00000000       0.00000000       0.00000000       0.00000000    -155.31346130
Re       0.00000000       0.00000000       1.12060606       0.00000000       0.00000000     155.31346130
2
Properties=species:S:1:pos:R:3:forces:R:3 energy=9.280179827144021 pbc="F F F"
Re       0.00000000       0.00000000       0.00000000       0.00000000       0.00000000    -146.67529297
Re       0.00000000       0.00000000       1.17939394       0.00000000       0.00000000     146.67529297
2
Properties=species:S:1:pos:R:3:forces:R:3 energy=2.1297426493407077 pbc="F F F"
Re       0.00000000       0.00000000       0.00000000       0.00000000       0.00000000     -96.10097504
Re       0.00000000       0.00000000       1.23818182       0.00000000       0.00000000      96.10097504
2
Properties=species:S:1:pos:R:3:forces:R:3 energy=-2.7373384987897658 pbc="F F F"
Re       0.00000000       0.00000000       0.00000000       0.00000000       0.00000000     -72.18246460
Re       0.00000000       0.00000000       1.29696970       0.00000000       0.00000000      72.18246460
2
Properties=species:S:1:pos:R:3:forces:R:3 energy=-6.243327649844228 pbc="F F F"
Re       0.00000000       0.00000000       0.00000000       0.00000000       0.00000000     -49.03697586
Re       0.00000000       0.00000000       1.35575758       0.00000000       0.00000000      49.03697586
2
Properties=species:S:1:pos:R:3:forces:R:3 energy=-8.713451508379567 pbc="F F F"
Re       0.00000000       0.00000000       0.00000000       0.00000000       0.00000000     -34.89905548
Re       0.00000000       0.00000000       1.41454545       0.00000000       0.00000000      34.89905548
2
Properties=species:S:1:pos:R:3:forces:R:3 energy=-10.354143275564732 pbc="F F F"
Re       0.00000000       0.00000000       0.00000000       0.00000000       0.00000000     -21.36890411
Re       0.00000000       0.00000000       1.47333333       0.00000000       0.00000000      21.36890411
2
Properties=species:S:1:pos:R:3:forces:R:3 energy=-11.274830298948993 pbc="F F F"
Re       0.00000000       0.00000000       0.00000000       0.00000000       0.00000000     -10.68095970
Re       0.00000000       0.00000000       1.53212121       0.00000000       0.00000000      10.68095970
2
Properties=species:S:1:pos:R:3:forces:R:3 energy=-11.71986289150472 pbc="F F F"
Re       0.00000000       0.00000000       0.00000000       0.00000000       0.00000000      -5.20632505
Re       0.00000000       0.00000000       1.59090909       0.00000000       0.00000000       5.20632505
2
Properties=species:S:1:pos:R:3:forces:R:3 energy=-11.929016539823323 pbc="F F F"
Re       0.00000000       0.00000000       0.00000000       0.00000000       0.00000000      -2.09117103
Re       0.00000000       0.00000000       1.64969697       0.00000000       0.00000000       2.09117103
2
Properties=species:S:1:pos:R:3:forces:R:3 energy=-12.001131941566669 pbc="F F F"
Re       0.00000000       0.00000000       0.00000000       0.00000000       0.00000000      -0.61344808
Re       0.00000000       0.00000000       1.70848485       0.00000000       0.00000000       0.61344808
2
Properties=species:S:1:pos:R:3:forces:R:3 energy=-12.019147991258205 pbc="F F F"
Re       0.00000000       0.00000000       0.00000000       0.00000000       0.00000000      -0.19681329
Re       0.00000000       0.00000000       1.76727273       0.00000000       0.00000000       0.19681329
2
Properties=species:S:1:pos:R:3:forces:R:3 energy=-12.075880930868394 pbc="F F F"
Re       0.00000000       0.00000000       0.00000000       0.00000000       0.00000000      -1.91681826
Re       0.00000000       0.00000000       1.82606061       0.00000000       0.00000000       1.91681826
2
Properties=species:S:1:pos:R:3:forces:R:3 energy=-12.202815291419164 pbc="F F F"
Re       0.00000000       0.00000000       0.00000000       0.00000000       0.00000000      -2.43361235
Re       0.00000000       0.00000000       1.88484848       0.00000000       0.00000000       2.43361235
2
Properties=species:S:1:pos:R:3:forces:R:3 energy=-12.362016050371343 pbc="F F F"
Re       0.00000000       0.00000000       0.00000000       0.00000000       0.00000000      -2.73675728
Re       0.00000000       0.00000000       1.94363636       0.00000000       0.00000000       2.73675728
2
Properties=species:S:1:pos:R:3:forces:R:3 energy=-12.506278445487718 pbc="F F F"
Re       0.00000000       0.00000000       0.00000000       0.00000000       0.00000000      -2.13562465
Re       0.00000000       0.00000000       2.00242424       0.00000000       0.00000000       2.13562465
2
Properties=species:S:1:pos:R:3:forces:R:3 energy=-12.611266529871187 pbc="F F F"
Re       0.00000000       0.00000000       0.00000000       0.00000000       0.00000000      -1.37357605
Re       0.00000000       0.00000000       2.06121212       0.00000000       0.00000000       1.37357605
2
Properties=species:S:1:pos:R:3:forces:R:3 energy=-12.658988201185354 pbc="F F F"
Re       0.00000000       0.00000000       0.00000000       0.00000000       0.00000000      -0.17385775
Re       0.00000000       0.00000000       2.12000000       0.00000000       0.00000000       0.17385775
2
Properties=species:S:1:pos:R:3:forces:R:3 energy=-12.627292459267855 pbc="F F F"
Re       0.00000000       0.00000000       0.00000000       0.00000000       0.00000000       1.21054745
Re       0.00000000       0.00000000       2.17878788       0.00000000       0.00000000      -1.21054745
2
Properties=species:S:1:pos:R:3:forces:R:3 energy=-12.523212077867282 pbc="F F F"
Re       0.00000000       0.00000000       0.00000000       0.00000000       0.00000000       2.28881812
Re       0.00000000       0.00000000       2.23757576       0.00000000       0.00000000      -2.28881812
2
Properties=species:S:1:pos:R:3:forces:R:3 energy=-12.366350746779162 pbc="F F F"
Re       0.00000000       0.00000000       0.00000000       0.00000000       0.00000000       2.96487784
Re       0.00000000       0.00000000       2.29636364       0.00000000       0.00000000      -2.96487784
2
Properties=species:S:1:pos:R:3:forces:R:3 energy=-12.179579345005303 pbc="F F F"
Re       0.00000000       0.00000000       0.00000000       0.00000000       0.00000000       3.38686419
Re       0.00000000       0.00000000       2.35515152       0.00000000       0.00000000      -3.38686419
2
Properties=species:S:1:pos:R:3:forces:R:3 energy=-11.968763257514544 pbc="F F F"
Re       0.00000000       0.00000000       0.00000000       0.00000000       0.00000000       3.76498055
Re       0.00000000       0.00000000       2.41393939       0.00000000       0.00000000      -3.76498055
2
Properties=species:S:1:pos:R:3:forces:R:3 energy=-11.740450184821032 pbc="F F F"
Re       0.00000000       0.00000000       0.00000000       0.00000000       0.00000000       3.96390724
Re       0.00000000       0.00000000       2.47272727       0.00000000       0.00000000      -3.96390724
2
Properties=species:S:1:pos:R:3:forces:R:3 energy=-11.506988147462035 pbc="F F F"
Re       0.00000000       0.00000000       0.00000000       0.00000000       0.00000000       3.95311522
Re       0.00000000       0.00000000       2.53151515       0.00000000       0.00000000      -3.95311522
2
Properties=species:S:1:pos:R:3:forces:R:3 energy=-11.27762310239051 pbc="F F F"
Re       0.00000000       0.00000000       0.00000000       0.00000000       0.00000000       3.83519769
Re       0.00000000       0.00000000       2.59030303       0.00000000       0.00000000      -3.83519769
2
Properties=species:S:1:pos:R:3:forces:R:3 energy=-11.05786622051394 pbc="F F F"
Re       0.00000000       0.00000000       0.00000000       0.00000000       0.00000000       3.62810731
Re       0.00000000       0.00000000       2.64909091       0.00000000       0.00000000      -3.62810731
2
Properties=species:S:1:pos:R:3:forces:R:3 energy=-10.85205021172391 pbc="F F F"
Re       0.00000000       0.00000000       0.00000000       0.00000000       0.00000000       3.36906767
Re       0.00000000       0.00000000       2.70787879       0.00000000       0.00000000      -3.36906767
2
Properties=species:S:1:pos:R:3:forces:R:3 energy=-10.661975687005919 pbc="F F F"
Re       0.00000000       0.00000000       0.00000000       0.00000000       0.00000000       3.09866214
Re       0.00000000       0.00000000       2.76666667       0.00000000       0.00000000      -3.09866214
2
Properties=species:S:1:pos:R:3:forces:R:3 energy=-10.4871442568077 pbc="F F F"
Re       0.00000000       0.00000000       0.00000000       0.00000000       0.00000000       2.85672307
Re       0.00000000       0.00000000       2.82545455       0.00000000       0.00000000      -2.85672307
2
Properties=species:S:1:pos:R:3:forces:R:3 energy=-10.325222616683057 pbc="F F F"
Re       0.00000000       0.00000000       0.00000000       0.00000000       0.00000000       2.65791798
Re       0.00000000       0.00000000       2.88424242       0.00000000       0.00000000      -2.65791798
2
Properties=species:S:1:pos:R:3:forces:R:3 energy=-10.174148138525243 pbc="F F F"
Re       0.00000000       0.00000000       0.00000000       0.00000000       0.00000000       2.48468661
Re       0.00000000       0.00000000       2.94303030       0.00000000       0.00000000      -2.48468661
2
Properties=species:S:1:pos:R:3:forces:R:3 energy=-10.03274892530965 pbc="F F F"
Re       0.00000000       0.00000000       0.00000000       0.00000000       0.00000000       2.32911348
Re       0.00000000       0.00000000       3.00181818       0.00000000       0.00000000      -2.32911348
2
Properties=species:S:1:pos:R:3:forces:R:3 energy=-9.899923297460187 pbc="F F F"
Re       0.00000000       0.00000000       0.00000000       0.00000000       0.00000000       2.19184685
Re       0.00000000       0.00000000       3.06060606       0.00000000       0.00000000      -2.19184685
2
Properties=species:S:1:pos:R:3:forces:R:3 energy=-9.775003962099316 pbc="F F F"
Re       0.00000000       0.00000000       0.00000000       0.00000000       0.00000000       2.05660725
Re       0.00000000       0.00000000       3.11939394       0.00000000       0.00000000      -2.05660725
2
Properties=species:S:1:pos:R:3:forces:R:3 energy=-9.658335783430298 pbc="F F F"
Re       0.00000000       0.00000000       0.00000000       0.00000000       0.00000000       1.91105962
Re       0.00000000       0.00000000       3.17818182       0.00000000       0.00000000      -1.91105962
2
Properties=species:S:1:pos:R:3:forces:R:3 energy=-9.550339171400664 pbc="F F F"
Re       0.00000000       0.00000000       0.00000000       0.00000000       0.00000000       1.76393330
Re       0.00000000       0.00000000       3.23696970       0.00000000       0.00000000      -1.76393330
2
Properties=species:S:1:pos:R:3:forces:R:3 energy=-9.450726377668422 pbc="F F F"
Re       0.00000000       0.00000000       0.00000000       0.00000000       0.00000000       1.62733567
Re       0.00000000       0.00000000       3.29575758       0.00000000       0.00000000      -1.62733567
2
Properties=species:S:1:pos:R:3:forces:R:3 energy=-9.358695734657688 pbc="F F F"
Re       0.00000000       0.00000000       0.00000000       0.00000000       0.00000000       1.50620031
Re       0.00000000       0.00000000       3.35454545       0.00000000       0.00000000      -1.50620031
2
Properties=species:S:1:pos:R:3:forces:R:3 energy=-9.273363208292063 pbc="F F F"
Re       0.00000000       0.00000000       0.00000000       0.00000000       0.00000000       1.39883268
Re       0.00000000       0.00000000       3.41333333       0.00000000       0.00000000      -1.39883268
2
Properties=species:S:1:pos:R:3:forces:R:3 energy=-9.19404906019481 pbc="F F F"
Re       0.00000000       0.00000000       0.00000000       0.00000000       0.00000000       1.30063879
Re       0.00000000       0.00000000       3.47212121       0.00000000       0.00000000      -1.30063879
2
Properties=species:S:1:pos:R:3:forces:R:3 energy=-9.120331975714043 pbc="F F F"
Re       0.00000000       0.00000000       0.00000000       0.00000000       0.00000000       1.20794106
Re       0.00000000       0.00000000       3.53090909       0.00000000       0.00000000      -1.20794106
2
Properties=species:S:1:pos:R:3:forces:R:3 energy=-9.051963267920428 pbc="F F F"
Re       0.00000000       0.00000000       0.00000000       0.00000000       0.00000000       1.11849213
Re       0.00000000       0.00000000       3.58969697       0.00000000       0.00000000      -1.11849213
2
Properties=species:S:1:pos:R:3:forces:R:3 energy=-8.988798906969313 pbc="F F F"
Re       0.00000000       0.00000000       0.00000000       0.00000000       0.00000000       1.03046215
Re       0.00000000       0.00000000       3.64848485       0.00000000       0.00000000      -1.03046215
2
Properties=species:S:1:pos:R:3:forces:R:3 energy=-8.93080578067638 pbc="F F F"
Re       0.00000000       0.00000000       0.00000000       0.00000000       0.00000000       0.94246525
Re       0.00000000       0.00000000       3.70727273       0.00000000       0.00000000      -0.94246525
2
Properties=species:S:1:pos:R:3:forces:R:3 energy=-8.877993736551065 pbc="F F F"
Re       0.00000000       0.00000000       0.00000000       0.00000000       0.00000000       0.85421383
Re       0.00000000       0.00000000       3.76606061       0.00000000       0.00000000      -0.85421383
2
Properties=species:S:1:pos:R:3:forces:R:3 energy=-8.830357502697916 pbc="F F F"
Re       0.00000000       0.00000000       0.00000000       0.00000000       0.00000000       0.76663911
Re       0.00000000       0.00000000       3.82484848       0.00000000       0.00000000      -0.76663911
2
Properties=species:S:1:pos:R:3:forces:R:3 energy=-8.787810114348126 pbc="F F F"
Re       0.00000000       0.00000000       0.00000000       0.00000000       0.00000000       0.68129754
Re       0.00000000       0.00000000       3.88363636       0.00000000       0.00000000      -0.68129754
2
Properties=species:S:1:pos:R:3:forces:R:3 energy=-8.750179919788058 pbc="F F F"
Re       0.00000000       0.00000000       0.00000000       0.00000000       0.00000000       0.59965336
Re       0.00000000       0.00000000       3.94242424       0.00000000       0.00000000      -0.59965336
2
Properties=species:S:1:pos:R:3:forces:R:3 energy=-8.71721536773776 pbc="F F F"
Re       0.00000000       0.00000000       0.00000000       0.00000000       0.00000000       0.52269572
Re       0.00000000       0.00000000       4.00121212       0.00000000       0.00000000      -0.52269572
2
Properties=species:S:1:pos:R:3:forces:R:3 energy=-8.68861861403523 pbc="F F F"
Re       0.00000000       0.00000000       0.00000000       0.00000000       0.00000000       0.45101497
Re       0.00000000       0.00000000       4.06000000       0.00000000       0.00000000      -0.45101497
2
Properties=species:S:1:pos:R:3:forces:R:3 energy=-8.66407405583818 pbc="F F F"
Re       0.00000000       0.00000000       0.00000000       0.00000000       0.00000000       0.38507879
Re       0.00000000       0.00000000       4.11878788       0.00000000       0.00000000      -0.38507879
2
Properties=species:S:1:pos:R:3:forces:R:3 energy=-8.643221641414467 pbc="F F F"
Re       0.00000000       0.00000000       0.00000000       0.00000000       0.00000000       0.32536644
Re       0.00000000       0.00000000       4.17757576       0.00000000       0.00000000      -0.32536644
2
Properties=species:S:1:pos:R:3:forces:R:3 energy=-8.625688531463856 pbc="F F F"
Re       0.00000000       0.00000000       0.00000000       0.00000000       0.00000000       0.27228785
Re       0.00000000       0.00000000       4.23636364       0.00000000       0.00000000      -0.27228785
2
Properties=species:S:1:pos:R:3:forces:R:3 energy=-8.61107254452986 pbc="F F F"
Re       0.00000000       0.00000000       0.00000000       0.00000000       0.00000000       0.22600652
Re       0.00000000       0.00000000       4.29515152       0.00000000       0.00000000      -0.22600652
2
Properties=species:S:1:pos:R:3:forces:R:3 energy=-8.598985534845998 pbc="F F F"
Re       0.00000000       0.00000000       0.00000000       0.00000000       0.00000000       0.18633142
Re       0.00000000       0.00000000       4.35393939       0.00000000       0.00000000      -0.18633142
2
Properties=species:S:1:pos:R:3:forces:R:3 energy=-8.589045452494705 pbc="F F F"
Re       0.00000000       0.00000000       0.00000000       0.00000000       0.00000000       0.15274301
Re       0.00000000       0.00000000       4.41272727       0.00000000       0.00000000      -0.15274301
2
Properties=species:S:1:pos:R:3:forces:R:3 energy=-8.580923181154787 pbc="F F F"
Re       0.00000000       0.00000000       0.00000000       0.00000000       0.00000000       0.12454384
Re       0.00000000       0.00000000       4.47151515       0.00000000       0.00000000      -0.12454384
2
Properties=species:S:1:pos:R:3:forces:R:3 energy=-8.574312014187647 pbc="F F F"
Re       0.00000000       0.00000000       0.00000000       0.00000000       0.00000000       0.10102548
Re       0.00000000       0.00000000       4.53030303       0.00000000       0.00000000      -0.10102548
2
Properties=species:S:1:pos:R:3:forces:R:3 energy=-8.568963786555356 pbc="F F F"
Re       0.00000000       0.00000000       0.00000000       0.00000000       0.00000000       0.08158907
Re       0.00000000       0.00000000       4.58909091       0.00000000       0.00000000      -0.08158907
2
Properties=species:S:1:pos:R:3:forces:R:3 energy=-8.564649834362307 pbc="F F F"
Re       0.00000000       0.00000000       0.00000000       0.00000000       0.00000000       0.06578230
Re       0.00000000       0.00000000       4.64787879       0.00000000       0.00000000      -0.06578230
2
Properties=species:S:1:pos:R:3:forces:R:3 energy=-8.561162778658778 pbc="F F F"
Re       0.00000000       0.00000000       0.00000000       0.00000000       0.00000000       0.05326445
Re       0.00000000       0.00000000       4.70666667       0.00000000       0.00000000      -0.05326445
2
Properties=species:S:1:pos:R:3:forces:R:3 energy=-8.558325954478144 pbc="F F F"
Re       0.00000000       0.00000000       0.00000000       0.00000000       0.00000000       0.04374322
Re       0.00000000       0.00000000       4.76545455       0.00000000       0.00000000      -0.04374322
2
Properties=species:S:1:pos:R:3:forces:R:3 energy=-8.555965795463395 pbc="F F F"
Re       0.00000000       0.00000000       0.00000000       0.00000000       0.00000000       0.03692293
Re       0.00000000       0.00000000       4.82424242       0.00000000       0.00000000      -0.03692293
2
Properties=species:S:1:pos:R:3:forces:R:3 energy=-8.55393844171332 pbc="F F F"
Re       0.00000000       0.00000000       0.00000000       0.00000000       0.00000000       0.03249137
Re       0.00000000       0.00000000       4.88303030       0.00000000       0.00000000      -0.03249137
2
Properties=species:S:1:pos:R:3:forces:R:3 energy=-8.552103822681403 pbc="F F F"
Re       0.00000000       0.00000000       0.00000000       0.00000000       0.00000000       0.03013104
Re       0.00000000       0.00000000       4.94181818       0.00000000       0.00000000      -0.03013104
2
Properties=species:S:1:pos:R:3:forces:R:3 energy=-8.550361880960722 pbc="F F F"
Re       0.00000000       0.00000000       0.00000000       0.00000000       0.00000000       0.02952764
Re       0.00000000       0.00000000       5.00060606       0.00000000       0.00000000      -0.02952764
2
Properties=species:S:1:pos:R:3:forces:R:3 energy=-8.548606770574196 pbc="F F F"
Re       0.00000000       0.00000000       0.00000000       0.00000000       0.00000000       0.03036013
Re       0.00000000       0.00000000       5.05939394       0.00000000       0.00000000      -0.03036013
2
Properties=species:S:1:pos:R:3:forces:R:3 energy=-8.546770564434206 pbc="F F F"
Re       0.00000000       0.00000000       0.00000000       0.00000000       0.00000000       0.03227007
Re       0.00000000       0.00000000       5.11818182       0.00000000       0.00000000      -0.03227007
2
Properties=species:S:1:pos:R:3:forces:R:3 energy=-8.544799399813394 pbc="F F F"
Re       0.00000000       0.00000000       0.00000000       0.00000000       0.00000000       0.03482950
Re       0.00000000       0.00000000       5.17696970       0.00000000       0.00000000      -0.03482950
2
Properties=species:S:1:pos:R:3:forces:R:3 energy=-8.542671544303701 pbc="F F F"
Re       0.00000000       0.00000000       0.00000000       0.00000000       0.00000000       0.03753525
Re       0.00000000       0.00000000       5.23575758       0.00000000       0.00000000      -0.03753525
2
Properties=species:S:1:pos:R:3:forces:R:3 energy=-8.54039448094044 pbc="F F F"
Re       0.00000000       0.00000000       0.00000000       0.00000000       0.00000000       0.03984386
Re       0.00000000       0.00000000       5.29454545       0.00000000       0.00000000      -0.03984386
2
Properties=species:S:1:pos:R:3:forces:R:3 energy=-8.538005868212256 pbc="F F F"
Re       0.00000000       0.00000000       0.00000000       0.00000000       0.00000000       0.04124488
Re       0.00000000       0.00000000       5.35333333       0.00000000       0.00000000      -0.04124488
2
Properties=species:S:1:pos:R:3:forces:R:3 energy=-8.535571534510009 pbc="F F F"
Re       0.00000000       0.00000000       0.00000000       0.00000000       0.00000000       0.04135601
Re       0.00000000       0.00000000       5.41212121       0.00000000       0.00000000      -0.04135601
2
Properties=species:S:1:pos:R:3:forces:R:3 energy=-8.533171237952379 pbc="F F F"
Re       0.00000000       0.00000000       0.00000000       0.00000000       0.00000000       0.04000369
Re       0.00000000       0.00000000       5.47090909       0.00000000       0.00000000      -0.04000369
2
Properties=species:S:1:pos:R:3:forces:R:3 energy=-8.530893866336068 pbc="F F F"
Re       0.00000000       0.00000000       0.00000000       0.00000000       0.00000000       0.03726533
Re       0.00000000       0.00000000       5.52969697       0.00000000       0.00000000      -0.03726533
2
Properties=species:S:1:pos:R:3:forces:R:3 energy=-8.52881263368401 pbc="F F F"
Re       0.00000000       0.00000000       0.00000000       0.00000000       0.00000000       0.03345563
Re       0.00000000       0.00000000       5.58848485       0.00000000       0.00000000      -0.03345563
2
Properties=species:S:1:pos:R:3:forces:R:3 energy=-8.52697275217135 pbc="F F F"
Re       0.00000000       0.00000000       0.00000000       0.00000000       0.00000000       0.02906019
Re       0.00000000       0.00000000       5.64727273       0.00000000       0.00000000      -0.02906019
2
Properties=species:S:1:pos:R:3:forces:R:3 energy=-8.52539709398272 pbc="F F F"
Re       0.00000000       0.00000000       0.00000000       0.00000000       0.00000000       0.02463878
Re       0.00000000       0.00000000       5.70606061       0.00000000       0.00000000      -0.02463878
2
Properties=species:S:1:pos:R:3:forces:R:3 energy=-8.524065286505015 pbc="F F F"
Re       0.00000000       0.00000000       0.00000000       0.00000000       0.00000000       0.02069642
Re       0.00000000       0.00000000       5.76484848       0.00000000       0.00000000      -0.02069642
2
Properties=species:S:1:pos:R:3:forces:R:3 energy=-8.522942379577673 pbc="F F F"
Re       0.00000000       0.00000000       0.00000000       0.00000000       0.00000000       0.01760372
Re       0.00000000       0.00000000       5.82363636       0.00000000       0.00000000      -0.01760372
2
Properties=species:S:1:pos:R:3:forces:R:3 energy=-8.521976890626718 pbc="F F F"
Re       0.00000000       0.00000000       0.00000000       0.00000000       0.00000000       0.01549403
Re       0.00000000       0.00000000       5.88242424       0.00000000       0.00000000      -0.01549403
2
Properties=species:S:1:pos:R:3:forces:R:3 energy=-8.521107564332263 pbc="F F F"
Re       0.00000000       0.00000000       0.00000000       0.00000000       0.00000000       0.01424965
Re       0.00000000       0.00000000       5.94121212       0.00000000       0.00000000      -0.01424965
2
Properties=species:S:1:pos:R:3:forces:R:3 energy=-8.520290107187584 pbc="F F F"
Re       0.00000000       0.00000000       0.00000000       0.00000000       0.00000000       0.01352419
Re       0.00000000       0.00000000       6.00000000       0.00000000       0.00000000      -0.01352419
