2
Properties=species:S:1:pos:R:3:forces:R:3 energy=1175437.3179307464 pbc="F F F"
Rh       0.00000000       0.00000000       0.00000000       0.00000000       0.00000000 -11173305.00000000
Rh       0.00000000       0.00000000       0.18000000       0.00000000       0.00000000 11173305.00000000
2
Properties=species:S:1:pos:R:3:forces:R:3 energy=610770.5679307464 pbc="F F F"
Rh       0.00000000       0.00000000       0.00000000       0.00000000       0.00000000 -7800603.50000000
Rh       0.00000000       0.00000000       0.23878788       0.00000000       0.00000000 7800603.50000000
2
Properties=species:S:1:pos:R:3:forces:R:3 energy=261427.81793075267 pbc="F F F"
Rh       0.00000000       0.00000000       0.00000000       0.00000000       0.00000000 -4217125.00000000
Rh       0.00000000       0.00000000       0.29757576       0.00000000       0.00000000 4217125.00000000
2
Properties=species:S:1:pos:R:3:forces:R:3 energy=91012.927305759 pbc="F F F"
Rh       0.00000000       0.00000000       0.00000000       0.00000000       0.00000000 -1794534.87500000
Rh       0.00000000       0.00000000       0.35636364       0.00000000       0.00000000 1794534.87500000
2
Properties=species:S:1:pos:R:3:forces:R:3 energy=25011.024962015337 pbc="F F F"
Rh       0.00000000       0.00000000       0.00000000       0.00000000       0.00000000 -624839.75000000
Rh       0.00000000       0.00000000       0.41515152       0.00000000       0.00000000  624839.75000000
2
Properties=species:S:1:pos:R:3:forces:R:3 energy=4301.669493284343 pbc="F F F"
Rh       0.00000000       0.00000000       0.00000000       0.00000000       0.00000000 -161930.12500000
Rh       0.00000000       0.00000000       0.47393939       0.00000000       0.00000000  161930.12500000
2
Properties=species:S:1:pos:R:3:forces:R:3 energy=134.2075945186461 pbc="F F F"
Rh       0.00000000       0.00000000       0.00000000       0.00000000       0.00000000   -7057.17626953
Rh       0.00000000       0.00000000       0.53272727       0.00000000       0.00000000    7057.17626953
2
Properties=species:S:1:pos:R:3:forces:R:3 energy=69.43962735788142 pbc="F F F"
Rh       0.00000000       0.00000000       0.00000000       0.00000000       0.00000000    -550.59283447
Rh       0.00000000       0.00000000       0.59151515       0.00000000       0.00000000     550.59283447
2
Properties=species:S:1:pos:R:3:forces:R:3 energy=-10.938796231544165 pbc="F F F"
Rh       0.00000000       0.00000000       0.00000000       0.00000000       0.00000000   -1341.31652832
Rh       0.00000000       0.00000000       0.65030303       0.00000000       0.00000000    1341.31652832
2
Properties=species:S:1:pos:R:3:forces:R:3 energy=-33.60373785453714 pbc="F F F"
Rh       0.00000000       0.00000000       0.00000000       0.00000000       0.00000000     121.36414337
Rh       0.00000000       0.00000000       0.70909091       0.00000000       0.00000000    -121.36414337
2
Properties=species:S:1:pos:R:3:forces:R:3 energy=-12.182853468726114 pbc="F F F"
Rh       0.00000000       0.00000000       0.00000000       0.00000000       0.00000000     343.74795532
Rh       0.00000000       0.00000000       0.76787879       0.00000000       0.00000000    -343.74795532
2
Properties=species:S:1:pos:R:3:forces:R:3 energy=2.64657366418315 pbc="F F F"
Rh       0.00000000       0.00000000       0.00000000       0.00000000       0.00000000     147.01054382
Rh       0.00000000       0.00000000       0.82666667       0.00000000       0.00000000    -147.01054382
2
Properties=species:S:1:pos:R:3:forces:R:3 energy=9.03618067220735 pbc="F F F"
Rh       0.00000000       0.00000000       0.00000000       0.00000000       0.00000000      33.22718048
Rh       0.00000000       0.00000000       0.88545455       0.00000000       0.00000000     -33.22718048
2
Properties=species:S:1:pos:R:3:forces:R:3 energy=7.883280711341306 pbc="F F F"
Rh       0.00000000       0.00000000       0.00000000       0.00000000       0.00000000     -46.32126236
Rh       0.00000000       0.00000000       0.94424242       0.00000000       0.00000000      46.32126236
2
Properties=species:S:1:pos:R:3:forces:R:3 energy=7.218334215278769 pbc="F F F"
Rh       0.00000000       0.00000000       0.00000000       0.00000000       0.00000000      21.96834755
Rh       0.00000000       0.00000000       1.00303030       0.00000000       0.00000000     -21.96834755
2
Properties=species:S:1:pos:R:3:forces:R:3 energy=7.8900313056777405 pbc="F F F"
Rh       0.00000000       0.00000000       0.00000000       0.00000000       0.00000000     -11.02556419
Rh       0.00000000       0.00000000       1.06181818       0.00000000       0.00000000      11.02556419
2
Properties=species:S:1:pos:R:3:forces:R:3 energy=7.035455112154821 pbc="F F F"
Rh       0.00000000       0.00000000       0.00000000       0.00000000       0.00000000     -20.05321121
Rh       0.00000000       0.00000000       1.12060606       0.00000000       0.00000000      20.05321121
2
Properties=species:S:1:pos:R:3:forces:R:3 energy=6.278804662325826 pbc="F F F"
Rh       0.00000000       0.00000000       0.00000000       0.00000000       0.00000000     -12.72950268
Rh       0.00000000       0.00000000       1.17939394       0.00000000       0.00000000      12.72950268
2
Properties=species:S:1:pos:R:3:forces:R:3 energy=5.095776671966923 pbc="F F F"
Rh       0.00000000       0.00000000       0.00000000       0.00000000       0.00000000     -38.17966461
Rh       0.00000000       0.00000000       1.23818182       0.00000000       0.00000000      38.17966461
2
Properties=species:S:1:pos:R:3:forces:R:3 energy=2.67234350687869 pbc="F F F"
Rh       0.00000000       0.00000000       0.00000000       0.00000000       0.00000000     -34.28793716
Rh       0.00000000       0.00000000       1.29696970       0.00000000       0.00000000      34.28793716
2
Properties=species:S:1:pos:R:3:forces:R:3 energy=1.1051077906751838 pbc="F F F"
Rh       0.00000000       0.00000000       0.00000000       0.00000000       0.00000000     -21.39680862
Rh       0.00000000       0.00000000       1.35575758       0.00000000       0.00000000      21.39680862
2
Properties=species:S:1:pos:R:3:forces:R:3 energy=-0.08857052131450216 pbc="F F F"
Rh       0.00000000       0.00000000       0.00000000       0.00000000       0.00000000     -19.99321175
Rh       0.00000000       0.00000000       1.41454545       0.00000000       0.00000000      19.99321175
2
Properties=species:S:1:pos:R:3:forces:R:3 energy=-1.1822326325007286 pbc="F F F"
Rh       0.00000000       0.00000000       0.00000000       0.00000000       0.00000000     -16.06806755
Rh       0.00000000       0.00000000       1.47333333       0.00000000       0.00000000      16.06806755
2
Properties=species:S:1:pos:R:3:forces:R:3 energy=-1.9914138284712009 pbc="F F F"
Rh       0.00000000       0.00000000       0.00000000       0.00000000       0.00000000     -12.52149963
Rh       0.00000000       0.00000000       1.53212121       0.00000000       0.00000000      12.52149963
2
Properties=species:S:1:pos:R:3:forces:R:3 energy=-2.679753795714603 pbc="F F F"
Rh       0.00000000       0.00000000       0.00000000       0.00000000       0.00000000     -11.14768982
Rh       0.00000000       0.00000000       1.59090909       0.00000000       0.00000000      11.14768982
2
Properties=species:S:1:pos:R:3:forces:R:3 energy=-3.3455283874326054 pbc="F F F"
Rh       0.00000000       0.00000000       0.00000000       0.00000000       0.00000000     -10.80500031
Rh       0.00000000       0.00000000       1.64969697       0.00000000       0.00000000      10.80500031
2
Properties=species:S:1:pos:R:3:forces:R:3 energy=-3.923532710831176 pbc="F F F"
Rh       0.00000000       0.00000000       0.00000000       0.00000000       0.00000000      -8.75967216
Rh       0.00000000       0.00000000       1.70848485       0.00000000       0.00000000       8.75967216
2
Properties=species:S:1:pos:R:3:forces:R:3 energy=-4.380892614199964 pbc="F F F"
Rh       0.00000000       0.00000000       0.00000000       0.00000000       0.00000000      -7.15724134
Rh       0.00000000       0.00000000       1.76727273       0.00000000       0.00000000       7.15724134
2
Properties=species:S:1:pos:R:3:forces:R:3 energy=-4.835197335180661 pbc="F F F"
Rh       0.00000000       0.00000000       0.00000000       0.00000000       0.00000000      -8.50920391
Rh       0.00000000       0.00000000       1.82606061       0.00000000       0.00000000       8.50920391
2
Properties=species:S:1:pos:R:3:forces:R:3 energy=-5.312705453115121 pbc="F F F"
Rh       0.00000000       0.00000000       0.00000000       0.00000000       0.00000000      -7.57272482
Rh       0.00000000       0.00000000       1.88484848       0.00000000       0.00000000       7.57272482
2
Properties=species:S:1:pos:R:3:forces:R:3 energy=-5.723451704907842 pbc="F F F"
Rh       0.00000000       0.00000000       0.00000000       0.00000000       0.00000000      -6.34102535
Rh       0.00000000       0.00000000       1.94363636       0.00000000       0.00000000       6.34102535
2
Properties=species:S:1:pos:R:3:forces:R:3 energy=-6.058902322040721 pbc="F F F"
Rh       0.00000000       0.00000000       0.00000000       0.00000000       0.00000000      -5.09540606
Rh       0.00000000       0.00000000       2.00242424       0.00000000       0.00000000       5.09540606
2
Properties=species:S:1:pos:R:3:forces:R:3 energy=-6.31581825113373 pbc="F F F"
Rh       0.00000000       0.00000000       0.00000000       0.00000000       0.00000000      -3.58050704
Rh       0.00000000       0.00000000       2.06121212       0.00000000       0.00000000       3.58050704
2
Properties=species:S:1:pos:R:3:forces:R:3 energy=-6.484599471179149 pbc="F F F"
Rh       0.00000000       0.00000000       0.00000000       0.00000000       0.00000000      -2.20360303
Rh       0.00000000       0.00000000       2.12000000       0.00000000       0.00000000       2.20360303
2
Properties=species:S:1:pos:R:3:forces:R:3 energy=-6.57750427294543 pbc="F F F"
Rh       0.00000000       0.00000000       0.00000000       0.00000000       0.00000000      -1.01288807
Rh       0.00000000       0.00000000       2.17878788       0.00000000       0.00000000       1.01288807
2
Properties=species:S:1:pos:R:3:forces:R:3 energy=-6.609270665600806 pbc="F F F"
Rh       0.00000000       0.00000000       0.00000000       0.00000000       0.00000000      -0.09193446
Rh       0.00000000       0.00000000       2.23757576       0.00000000       0.00000000       0.09193446
2
Properties=species:S:1:pos:R:3:forces:R:3 energy=-6.59351948171654 pbc="F F F"
Rh       0.00000000       0.00000000       0.00000000       0.00000000       0.00000000       0.57366228
Rh       0.00000000       0.00000000       2.29636364       0.00000000       0.00000000      -0.57366228
2
Properties=species:S:1:pos:R:3:forces:R:3 energy=-6.545180047316649 pbc="F F F"
Rh       0.00000000       0.00000000       0.00000000       0.00000000       0.00000000       1.06708336
Rh       0.00000000       0.00000000       2.35515152       0.00000000       0.00000000      -1.06708336
2
Properties=species:S:1:pos:R:3:forces:R:3 energy=-6.468310023037987 pbc="F F F"
Rh       0.00000000       0.00000000       0.00000000       0.00000000       0.00000000       1.53752875
Rh       0.00000000       0.00000000       2.41393939       0.00000000       0.00000000      -1.53752875
2
Properties=species:S:1:pos:R:3:forces:R:3 energy=-6.367489036050984 pbc="F F F"
Rh       0.00000000       0.00000000       0.00000000       0.00000000       0.00000000       1.85435498
Rh       0.00000000       0.00000000       2.47272727       0.00000000       0.00000000      -1.85435498
2
Properties=species:S:1:pos:R:3:forces:R:3 energy=-6.253364867827004 pbc="F F F"
Rh       0.00000000       0.00000000       0.00000000       0.00000000       0.00000000       2.02204919
Rh       0.00000000       0.00000000       2.53151515       0.00000000       0.00000000      -2.02204919
2
Properties=species:S:1:pos:R:3:forces:R:3 energy=-6.13005345421476 pbc="F F F"
Rh       0.00000000       0.00000000       0.00000000       0.00000000       0.00000000       2.16181064
Rh       0.00000000       0.00000000       2.59030303       0.00000000       0.00000000      -2.16181064
2
Properties=species:S:1:pos:R:3:forces:R:3 energy=-6.001426304972353 pbc="F F F"
Rh       0.00000000       0.00000000       0.00000000       0.00000000       0.00000000       2.19425774
Rh       0.00000000       0.00000000       2.64909091       0.00000000       0.00000000      -2.19425774
2
Properties=species:S:1:pos:R:3:forces:R:3 energy=-5.873771814611772 pbc="F F F"
Rh       0.00000000       0.00000000       0.00000000       0.00000000       0.00000000       2.13974237
Rh       0.00000000       0.00000000       2.70787879       0.00000000       0.00000000      -2.13974237
2
Properties=species:S:1:pos:R:3:forces:R:3 energy=-5.75044738205758 pbc="F F F"
Rh       0.00000000       0.00000000       0.00000000       0.00000000       0.00000000       2.05313611
Rh       0.00000000       0.00000000       2.76666667       0.00000000       0.00000000      -2.05313611
2
Properties=species:S:1:pos:R:3:forces:R:3 energy=-5.632568978426498 pbc="F F F"
Rh       0.00000000       0.00000000       0.00000000       0.00000000       0.00000000       1.95559990
Rh       0.00000000       0.00000000       2.82545455       0.00000000       0.00000000      -1.95559990
2
Properties=species:S:1:pos:R:3:forces:R:3 energy=-5.52080791809185 pbc="F F F"
Rh       0.00000000       0.00000000       0.00000000       0.00000000       0.00000000       1.84335113
Rh       0.00000000       0.00000000       2.88424242       0.00000000       0.00000000      -1.84335113
2
Properties=species:S:1:pos:R:3:forces:R:3 energy=-5.416178813379491 pbc="F F F"
Rh       0.00000000       0.00000000       0.00000000       0.00000000       0.00000000       1.71456456
Rh       0.00000000       0.00000000       2.94303030       0.00000000       0.00000000      -1.71456456
2
Properties=species:S:1:pos:R:3:forces:R:3 energy=-5.319148364253214 pbc="F F F"
Rh       0.00000000       0.00000000       0.00000000       0.00000000       0.00000000       1.58916271
Rh       0.00000000       0.00000000       3.00181818       0.00000000       0.00000000      -1.58916271
2
Properties=species:S:1:pos:R:3:forces:R:3 energy=-5.228882197304402 pbc="F F F"
Rh       0.00000000       0.00000000       0.00000000       0.00000000       0.00000000       1.48577499
Rh       0.00000000       0.00000000       3.06060606       0.00000000       0.00000000      -1.48577499
2
Properties=species:S:1:pos:R:3:forces:R:3 energy=-5.144085825990354 pbc="F F F"
Rh       0.00000000       0.00000000       0.00000000       0.00000000       0.00000000       1.40122807
Rh       0.00000000       0.00000000       3.11939394       0.00000000       0.00000000      -1.40122807
2
Properties=species:S:1:pos:R:3:forces:R:3 energy=-5.063939473036868 pbc="F F F"
Rh       0.00000000       0.00000000       0.00000000       0.00000000       0.00000000       1.32686293
Rh       0.00000000       0.00000000       3.17818182       0.00000000       0.00000000      -1.32686293
2
Properties=species:S:1:pos:R:3:forces:R:3 energy=-4.987907419928851 pbc="F F F"
Rh       0.00000000       0.00000000       0.00000000       0.00000000       0.00000000       1.26119852
Rh       0.00000000       0.00000000       3.23696970       0.00000000       0.00000000      -1.26119852
2
Properties=species:S:1:pos:R:3:forces:R:3 energy=-4.915499132934905 pbc="F F F"
Rh       0.00000000       0.00000000       0.00000000       0.00000000       0.00000000       1.20335841
Rh       0.00000000       0.00000000       3.29575758       0.00000000       0.00000000      -1.20335841
2
Properties=species:S:1:pos:R:3:forces:R:3 energy=-4.846317275637254 pbc="F F F"
Rh       0.00000000       0.00000000       0.00000000       0.00000000       0.00000000       1.15086615
Rh       0.00000000       0.00000000       3.35454545       0.00000000       0.00000000      -1.15086615
2
Properties=species:S:1:pos:R:3:forces:R:3 energy=-4.780128473908454 pbc="F F F"
Rh       0.00000000       0.00000000       0.00000000       0.00000000       0.00000000       1.10126066
Rh       0.00000000       0.00000000       3.41333333       0.00000000       0.00000000      -1.10126066
2
Properties=species:S:1:pos:R:3:forces:R:3 energy=-4.7168160503481005 pbc="F F F"
Rh       0.00000000       0.00000000       0.00000000       0.00000000       0.00000000       1.05272353
Rh       0.00000000       0.00000000       3.47212121       0.00000000       0.00000000      -1.05272353
2
Properties=species:S:1:pos:R:3:forces:R:3 energy=-4.656354477816899 pbc="F F F"
Rh       0.00000000       0.00000000       0.00000000       0.00000000       0.00000000       1.00412035
Rh       0.00000000       0.00000000       3.53090909       0.00000000       0.00000000      -1.00412035
2
Properties=species:S:1:pos:R:3:forces:R:3 energy=-4.598777965205027 pbc="F F F"
Rh       0.00000000       0.00000000       0.00000000       0.00000000       0.00000000       0.95433915
Rh       0.00000000       0.00000000       3.58969697       0.00000000       0.00000000      -0.95433915
2
Properties=species:S:1:pos:R:3:forces:R:3 energy=-4.544200712675972 pbc="F F F"
Rh       0.00000000       0.00000000       0.00000000       0.00000000       0.00000000       0.90190434
Rh       0.00000000       0.00000000       3.64848485       0.00000000       0.00000000      -0.90190434
2
Properties=species:S:1:pos:R:3:forces:R:3 energy=-4.4928159643278525 pbc="F F F"
Rh       0.00000000       0.00000000       0.00000000       0.00000000       0.00000000       0.84549606
Rh       0.00000000       0.00000000       3.70727273       0.00000000       0.00000000      -0.84549606
2
Properties=species:S:1:pos:R:3:forces:R:3 energy=-4.444877010734833 pbc="F F F"
Rh       0.00000000       0.00000000       0.00000000       0.00000000       0.00000000       0.78464788
Rh       0.00000000       0.00000000       3.76606061       0.00000000       0.00000000      -0.78464788
2
Properties=species:S:1:pos:R:3:forces:R:3 energy=-4.400637215171136 pbc="F F F"
Rh       0.00000000       0.00000000       0.00000000       0.00000000       0.00000000       0.71990776
Rh       0.00000000       0.00000000       3.82484848       0.00000000       0.00000000      -0.71990776
2
Properties=species:S:1:pos:R:3:forces:R:3 energy=-4.360287090113091 pbc="F F F"
Rh       0.00000000       0.00000000       0.00000000       0.00000000       0.00000000       0.65248394
Rh       0.00000000       0.00000000       3.88363636       0.00000000       0.00000000      -0.65248394
2
Properties=species:S:1:pos:R:3:forces:R:3 energy=-4.323945707834648 pbc="F F F"
Rh       0.00000000       0.00000000       0.00000000       0.00000000       0.00000000       0.58381861
Rh       0.00000000       0.00000000       3.94242424       0.00000000       0.00000000      -0.58381861
2
Properties=species:S:1:pos:R:3:forces:R:3 energy=-4.291639713236769 pbc="F F F"
Rh       0.00000000       0.00000000       0.00000000       0.00000000       0.00000000       0.51536345
Rh       0.00000000       0.00000000       4.00121212       0.00000000       0.00000000      -0.51536345
2
Properties=species:S:1:pos:R:3:forces:R:3 energy=-4.263317552934441 pbc="F F F"
Rh       0.00000000       0.00000000       0.00000000       0.00000000       0.00000000       0.44860455
Rh       0.00000000       0.00000000       4.06000000       0.00000000       0.00000000      -0.44860455
2
Properties=species:S:1:pos:R:3:forces:R:3 energy=-4.238829429089104 pbc="F F F"
Rh       0.00000000       0.00000000       0.00000000       0.00000000       0.00000000       0.38510448
Rh       0.00000000       0.00000000       4.11878788       0.00000000       0.00000000      -0.38510448
2
Properties=species:S:1:pos:R:3:forces:R:3 energy=-4.2179452671651925 pbc="F F F"
Rh       0.00000000       0.00000000       0.00000000       0.00000000       0.00000000       0.32635099
Rh       0.00000000       0.00000000       4.17757576       0.00000000       0.00000000      -0.32635099
2
Properties=species:S:1:pos:R:3:forces:R:3 energy=-4.200343081769015 pbc="F F F"
Rh       0.00000000       0.00000000       0.00000000       0.00000000       0.00000000       0.27349675
Rh       0.00000000       0.00000000       4.23636364       0.00000000       0.00000000      -0.27349675
2
Properties=species:S:1:pos:R:3:forces:R:3 energy=-4.1856603800271746 pbc="F F F"
Rh       0.00000000       0.00000000       0.00000000       0.00000000       0.00000000       0.22714776
Rh       0.00000000       0.00000000       4.29515152       0.00000000       0.00000000      -0.22714776
2
Properties=species:S:1:pos:R:3:forces:R:3 energy=-4.173507392649756 pbc="F F F"
Rh       0.00000000       0.00000000       0.00000000       0.00000000       0.00000000       0.18733183
Rh       0.00000000       0.00000000       4.35393939       0.00000000       0.00000000      -0.18733183
2
Properties=species:S:1:pos:R:3:forces:R:3 energy=-4.163515343853093 pbc="F F F"
Rh       0.00000000       0.00000000       0.00000000       0.00000000       0.00000000       0.15361264
Rh       0.00000000       0.00000000       4.41272727       0.00000000       0.00000000      -0.15361264
2
Properties=species:S:1:pos:R:3:forces:R:3 energy=-4.155342097377935 pbc="F F F"
Rh       0.00000000       0.00000000       0.00000000       0.00000000       0.00000000       0.12528683
Rh       0.00000000       0.00000000       4.47151515       0.00000000       0.00000000      -0.12528683
2
Properties=species:S:1:pos:R:3:forces:R:3 energy=-4.14869393260762 pbc="F F F"
Rh       0.00000000       0.00000000       0.00000000       0.00000000       0.00000000       0.10156737
Rh       0.00000000       0.00000000       4.53030303       0.00000000       0.00000000      -0.10156737
2
Properties=species:S:1:pos:R:3:forces:R:3 energy=-4.143324388153137 pbc="F F F"
Rh       0.00000000       0.00000000       0.00000000       0.00000000       0.00000000       0.08172358
Rh       0.00000000       0.00000000       4.58909091       0.00000000       0.00000000      -0.08172358
2
Properties=species:S:1:pos:R:3:forces:R:3 energy=-4.139020698168614 pbc="F F F"
Rh       0.00000000       0.00000000       0.00000000       0.00000000       0.00000000       0.06515677
Rh       0.00000000       0.00000000       4.64787879       0.00000000       0.00000000      -0.06515677
2
Properties=species:S:1:pos:R:3:forces:R:3 energy=-4.135606653374267 pbc="F F F"
Rh       0.00000000       0.00000000       0.00000000       0.00000000       0.00000000       0.05141666
Rh       0.00000000       0.00000000       4.70666667       0.00000000       0.00000000      -0.05141666
2
Properties=species:S:1:pos:R:3:forces:R:3 energy=-4.132926198523692 pbc="F F F"
Rh       0.00000000       0.00000000       0.00000000       0.00000000       0.00000000       0.04018516
Rh       0.00000000       0.00000000       4.76545455       0.00000000       0.00000000      -0.04018516
2
Properties=species:S:1:pos:R:3:forces:R:3 energy=-4.130837694518858 pbc="F F F"
Rh       0.00000000       0.00000000       0.00000000       0.00000000       0.00000000       0.03124255
Rh       0.00000000       0.00000000       4.82424242       0.00000000       0.00000000      -0.03124255
2
Properties=species:S:1:pos:R:3:forces:R:3 energy=-4.1292119888867145 pbc="F F F"
Rh       0.00000000       0.00000000       0.00000000       0.00000000       0.00000000       0.02443611
Rh       0.00000000       0.00000000       4.88303030       0.00000000       0.00000000      -0.02443611
2
Properties=species:S:1:pos:R:3:forces:R:3 energy=-4.127923737675685 pbc="F F F"
Rh       0.00000000       0.00000000       0.00000000       0.00000000       0.00000000       0.01964643
Rh       0.00000000       0.00000000       4.94181818       0.00000000       0.00000000      -0.01964643
2
Properties=species:S:1:pos:R:3:forces:R:3 energy=-4.126862931910835 pbc="F F F"
Rh       0.00000000       0.00000000       0.00000000       0.00000000       0.00000000       0.01675160
Rh       0.00000000       0.00000000       5.00060606       0.00000000       0.00000000      -0.01675160
2
Properties=species:S:1:pos:R:3:forces:R:3 energy=-4.125922591694604 pbc="F F F"
Rh       0.00000000       0.00000000       0.00000000       0.00000000       0.00000000       0.01558441
Rh       0.00000000       0.00000000       5.05939394       0.00000000       0.00000000      -0.01558441
2
Properties=species:S:1:pos:R:3:forces:R:3 energy=-4.125003439543721 pbc="F F F"
Rh       0.00000000       0.00000000       0.00000000       0.00000000       0.00000000       0.01589520
Rh       0.00000000       0.00000000       5.11818182       0.00000000       0.00000000      -0.01589520
2
Properties=species:S:1:pos:R:3:forces:R:3 energy=-4.124030283914981 pbc="F F F"
Rh       0.00000000       0.00000000       0.00000000       0.00000000       0.00000000       0.01733029
Rh       0.00000000       0.00000000       5.17696970       0.00000000       0.00000000      -0.01733029
2
Properties=species:S:1:pos:R:3:forces:R:3 energy=-4.1229520603869325 pbc="F F F"
Rh       0.00000000       0.00000000       0.00000000       0.00000000       0.00000000       0.01944363
Rh       0.00000000       0.00000000       5.23575758       0.00000000       0.00000000      -0.01944363
2
Properties=species:S:1:pos:R:3:forces:R:3 energy=-4.121740947677647 pbc="F F F"
Rh       0.00000000       0.00000000       0.00000000       0.00000000       0.00000000       0.02173932
Rh       0.00000000       0.00000000       5.29454545       0.00000000       0.00000000      -0.02173932
2
Properties=species:S:1:pos:R:3:forces:R:3 energy=-4.120399157406536 pbc="F F F"
Rh       0.00000000       0.00000000       0.00000000       0.00000000       0.00000000       0.02374248
Rh       0.00000000       0.00000000       5.35333333       0.00000000       0.00000000      -0.02374248
2
Properties=species:S:1:pos:R:3:forces:R:3 energy=-4.1189627456237865 pbc="F F F"
Rh       0.00000000       0.00000000       0.00000000       0.00000000       0.00000000       0.02507092
Rh       0.00000000       0.00000000       5.41212121       0.00000000       0.00000000      -0.02507092
2
Properties=species:S:1:pos:R:3:forces:R:3 energy=-4.1174722009620215 pbc="F F F"
Rh       0.00000000       0.00000000       0.00000000       0.00000000       0.00000000       0.02549623
Rh       0.00000000       0.00000000       5.47090909       0.00000000       0.00000000      -0.02549623
2
Properties=species:S:1:pos:R:3:forces:R:3 energy=-4.115983914070672 pbc="F F F"
Rh       0.00000000       0.00000000       0.00000000       0.00000000       0.00000000       0.02497016
Rh       0.00000000       0.00000000       5.52969697       0.00000000       0.00000000      -0.02497016
2
Properties=species:S:1:pos:R:3:forces:R:3 energy=-4.114553071666905 pbc="F F F"
Rh       0.00000000       0.00000000       0.00000000       0.00000000       0.00000000       0.02361453
Rh       0.00000000       0.00000000       5.58848485       0.00000000       0.00000000      -0.02361453
2
Properties=species:S:1:pos:R:3:forces:R:3 energy=-4.113219462294648 pbc="F F F"
Rh       0.00000000       0.00000000       0.00000000       0.00000000       0.00000000       0.02167973
Rh       0.00000000       0.00000000       5.64727273       0.00000000       0.00000000      -0.02167973
2
Properties=species:S:1:pos:R:3:forces:R:3 energy=-4.112009348827181 pbc="F F F"
Rh       0.00000000       0.00000000       0.00000000       0.00000000       0.00000000       0.01948167
Rh       0.00000000       0.00000000       5.70606061       0.00000000       0.00000000      -0.01948167
2
Properties=species:S:1:pos:R:3:forces:R:3 energy=-4.11092697409731 pbc="F F F"
Rh       0.00000000       0.00000000       0.00000000       0.00000000       0.00000000       0.01732964
Rh       0.00000000       0.00000000       5.76484848       0.00000000       0.00000000      -0.01732964
2
Properties=species:S:1:pos:R:3:forces:R:3 energy=-4.109964181587816 pbc="F F F"
Rh       0.00000000       0.00000000       0.00000000       0.00000000       0.00000000       0.01546573
Rh       0.00000000       0.00000000       5.82363636       0.00000000       0.00000000      -0.01546573
2
Properties=species:S:1:pos:R:3:forces:R:3 energy=-4.109101307333239 pbc="F F F"
Rh       0.00000000       0.00000000       0.00000000       0.00000000       0.00000000       0.01401316
Rh       0.00000000       0.00000000       5.88242424       0.00000000       0.00000000      -0.01401316
2
Properties=species:S:1:pos:R:3:forces:R:3 energy=-4.108308220709306 pbc="F F F"
Rh       0.00000000       0.00000000       0.00000000       0.00000000       0.00000000       0.01295917
Rh       0.00000000       0.00000000       5.94121212       0.00000000       0.00000000      -0.01295917
2
Properties=species:S:1:pos:R:3:forces:R:3 energy=-4.107569135804268 pbc="F F F"
Rh       0.00000000       0.00000000       0.00000000       0.00000000       0.00000000       0.01216704
Rh       0.00000000       0.00000000       6.00000000       0.00000000       0.00000000      -0.01216704
