2
Properties=species:S:1:pos:R:3:forces:R:3 energy=5965200.447423874 pbc="F F F"
Ru       0.00000000       0.00000000       0.00000000       0.00000000       0.00000000 -49389584.00000000
Ru       0.00000000       0.00000000       0.18000000       0.00000000       0.00000000 49389584.00000000
2
Properties=species:S:1:pos:R:3:forces:R:3 energy=3417340.1974238744 pbc="F F F"
Ru       0.00000000       0.00000000       0.00000000       0.00000000       0.00000000 -36275008.00000000
Ru       0.00000000       0.00000000       0.23878788       0.00000000       0.00000000 36275008.00000000
2
Properties=species:S:1:pos:R:3:forces:R:3 energy=1721849.9474238777 pbc="F F F"
Ru       0.00000000       0.00000000       0.00000000       0.00000000       0.00000000 -21831826.00000000
Ru       0.00000000       0.00000000       0.29757576       0.00000000       0.00000000 21831826.00000000
2
Properties=species:S:1:pos:R:3:forces:R:3 energy=774500.1349238807 pbc="F F F"
Ru       0.00000000       0.00000000       0.00000000       0.00000000       0.00000000 -10968837.00000000
Ru       0.00000000       0.00000000       0.35636364       0.00000000       0.00000000 10968837.00000000
2
Properties=species:S:1:pos:R:3:forces:R:3 energy=330750.97867389023 pbc="F F F"
Ru       0.00000000       0.00000000       0.00000000       0.00000000       0.00000000 -4964933.50000000
Ru       0.00000000       0.00000000       0.41515152       0.00000000       0.00000000 4964933.50000000
2
Properties=species:S:1:pos:R:3:forces:R:3 energy=139534.33804890607 pbc="F F F"
Ru       0.00000000       0.00000000       0.00000000       0.00000000       0.00000000 -1987529.25000000
Ru       0.00000000       0.00000000       0.47393939       0.00000000       0.00000000 1987529.25000000
2
Properties=species:S:1:pos:R:3:forces:R:3 energy=72213.85367393457 pbc="F F F"
Ru       0.00000000       0.00000000       0.00000000       0.00000000       0.00000000 -557208.56250000
Ru       0.00000000       0.00000000       0.53272727       0.00000000       0.00000000  557208.56250000
2
Properties=species:S:1:pos:R:3:forces:R:3 energy=44087.4903927416 pbc="F F F"
Ru       0.00000000       0.00000000       0.00000000       0.00000000       0.00000000 -462974.68750000
Ru       0.00000000       0.00000000       0.59151515       0.00000000       0.00000000  462974.68750000
2
Properties=species:S:1:pos:R:3:forces:R:3 energy=20479.929845948962 pbc="F F F"
Ru       0.00000000       0.00000000       0.00000000       0.00000000       0.00000000 -338538.87500000
Ru       0.00000000       0.00000000       0.65030303       0.00000000       0.00000000  338538.87500000
2
Properties=species:S:1:pos:R:3:forces:R:3 energy=7942.364904682097 pbc="F F F"
Ru       0.00000000       0.00000000       0.00000000       0.00000000       0.00000000 -132032.59375000
Ru       0.00000000       0.00000000       0.70909091       0.00000000       0.00000000  132032.59375000
2
Properties=species:S:1:pos:R:3:forces:R:3 energy=2734.8478150474234 pbc="F F F"
Ru       0.00000000       0.00000000       0.00000000       0.00000000       0.00000000  -50216.12109375
Ru       0.00000000       0.00000000       0.76787879       0.00000000       0.00000000   50216.12109375
2
Properties=species:S:1:pos:R:3:forces:R:3 energy=1011.2475956249718 pbc="F F F"
Ru       0.00000000       0.00000000       0.00000000       0.00000000       0.00000000  -16235.33593750
Ru       0.00000000       0.00000000       0.82666667       0.00000000       0.00000000   16235.33593750
2
Properties=species:S:1:pos:R:3:forces:R:3 energy=343.85285119542004 pbc="F F F"
Ru       0.00000000       0.00000000       0.00000000       0.00000000       0.00000000   -5931.51757812
Ru       0.00000000       0.00000000       0.88545455       0.00000000       0.00000000    5931.51757812
2
Properties=species:S:1:pos:R:3:forces:R:3 energy=188.08423609365693 pbc="F F F"
Ru       0.00000000       0.00000000       0.00000000       0.00000000       0.00000000   -1266.16052246
Ru       0.00000000       0.00000000       0.94424242       0.00000000       0.00000000    1266.16052246
2
Properties=species:S:1:pos:R:3:forces:R:3 energy=130.89484485912516 pbc="F F F"
Ru       0.00000000       0.00000000       0.00000000       0.00000000       0.00000000    -784.52160645
Ru       0.00000000       0.00000000       1.00303030       0.00000000       0.00000000     784.52160645
2
Properties=species:S:1:pos:R:3:forces:R:3 energy=89.68687634034944 pbc="F F F"
Ru       0.00000000       0.00000000       0.00000000       0.00000000       0.00000000    -650.32513428
Ru       0.00000000       0.00000000       1.06181818       0.00000000       0.00000000     650.32513428
2
Properties=species:S:1:pos:R:3:forces:R:3 energy=56.26007427837253 pbc="F F F"
Ru       0.00000000       0.00000000       0.00000000       0.00000000       0.00000000    -484.64459229
Ru       0.00000000       0.00000000       1.12060606       0.00000000       0.00000000     484.64459229
2
Properties=species:S:1:pos:R:3:forces:R:3 energy=32.78452086051425 pbc="F F F"
Ru       0.00000000       0.00000000       0.00000000       0.00000000       0.00000000    -307.71282959
Ru       0.00000000       0.00000000       1.17939394       0.00000000       0.00000000     307.71282959
2
Properties=species:S:1:pos:R:3:forces:R:3 energy=18.161898097672797 pbc="F F F"
Ru       0.00000000       0.00000000       0.00000000       0.00000000       0.00000000    -206.85359192
Ru       0.00000000       0.00000000       1.23818182       0.00000000       0.00000000     206.85359192
2
Properties=species:S:1:pos:R:3:forces:R:3 energy=8.53947060665534 pbc="F F F"
Ru       0.00000000       0.00000000       0.00000000       0.00000000       0.00000000    -124.13370514
Ru       0.00000000       0.00000000       1.29696970       0.00000000       0.00000000     124.13370514
2
Properties=species:S:1:pos:R:3:forces:R:3 energy=2.605236354342685 pbc="F F F"
Ru       0.00000000       0.00000000       0.00000000       0.00000000       0.00000000     -80.09806824
Ru       0.00000000       0.00000000       1.35575758       0.00000000       0.00000000      80.09806824
2
Properties=species:S:1:pos:R:3:forces:R:3 energy=-1.2569476926515528 pbc="F F F"
Ru       0.00000000       0.00000000       0.00000000       0.00000000       0.00000000     -52.65509796
Ru       0.00000000       0.00000000       1.41454545       0.00000000       0.00000000      52.65509796
2
Properties=species:S:1:pos:R:3:forces:R:3 energy=-3.7202352088450565 pbc="F F F"
Ru       0.00000000       0.00000000       0.00000000       0.00000000       0.00000000     -31.56707764
Ru       0.00000000       0.00000000       1.47333333       0.00000000       0.00000000      31.56707764
2
Properties=species:S:1:pos:R:3:forces:R:3 energy=-5.122956235014494 pbc="F F F"
Ru       0.00000000       0.00000000       0.00000000       0.00000000       0.00000000     -17.77399063
Ru       0.00000000       0.00000000       1.53212121       0.00000000       0.00000000      17.77399063
2
Properties=species:S:1:pos:R:3:forces:R:3 energy=-5.899506279323793 pbc="F F F"
Ru       0.00000000       0.00000000       0.00000000       0.00000000       0.00000000      -9.65334606
Ru       0.00000000       0.00000000       1.59090909       0.00000000       0.00000000       9.65334606
2
Properties=species:S:1:pos:R:3:forces:R:3 energy=-6.382042188510904 pbc="F F F"
Ru       0.00000000       0.00000000       0.00000000       0.00000000       0.00000000      -6.88103056
Ru       0.00000000       0.00000000       1.64969697       0.00000000       0.00000000       6.88103056
2
Properties=species:S:1:pos:R:3:forces:R:3 energy=-6.745034601135845 pbc="F F F"
Ru       0.00000000       0.00000000       0.00000000       0.00000000       0.00000000      -5.64029884
Ru       0.00000000       0.00000000       1.70848485       0.00000000       0.00000000       5.64029884
2
Properties=species:S:1:pos:R:3:forces:R:3 energy=-7.049659601835538 pbc="F F F"
Ru       0.00000000       0.00000000       0.00000000       0.00000000       0.00000000      -4.92189121
Ru       0.00000000       0.00000000       1.76727273       0.00000000       0.00000000       4.92189121
2
Properties=species:S:1:pos:R:3:forces:R:3 energy=-7.3584209134404075 pbc="F F F"
Ru       0.00000000       0.00000000       0.00000000       0.00000000       0.00000000      -5.58369923
Ru       0.00000000       0.00000000       1.82606061       0.00000000       0.00000000       5.58369923
2
Properties=species:S:1:pos:R:3:forces:R:3 energy=-7.671948211257231 pbc="F F F"
Ru       0.00000000       0.00000000       0.00000000       0.00000000       0.00000000      -5.00814676
Ru       0.00000000       0.00000000       1.88484848       0.00000000       0.00000000       5.00814676
2
Properties=species:S:1:pos:R:3:forces:R:3 energy=-7.946414858057752 pbc="F F F"
Ru       0.00000000       0.00000000       0.00000000       0.00000000       0.00000000      -4.28285170
Ru       0.00000000       0.00000000       1.94363636       0.00000000       0.00000000       4.28285170
2
Properties=species:S:1:pos:R:3:forces:R:3 energy=-8.174885323580472 pbc="F F F"
Ru       0.00000000       0.00000000       0.00000000       0.00000000       0.00000000      -3.50295782
Ru       0.00000000       0.00000000       2.00242424       0.00000000       0.00000000       3.50295782
2
Properties=species:S:1:pos:R:3:forces:R:3 energy=-8.351789799053906 pbc="F F F"
Ru       0.00000000       0.00000000       0.00000000       0.00000000       0.00000000      -2.42065811
Ru       0.00000000       0.00000000       2.06121212       0.00000000       0.00000000       2.42065811
2
Properties=species:S:1:pos:R:3:forces:R:3 energy=-8.458591530273598 pbc="F F F"
Ru       0.00000000       0.00000000       0.00000000       0.00000000       0.00000000      -1.23065114
Ru       0.00000000       0.00000000       2.12000000       0.00000000       0.00000000       1.23065114
2
Properties=species:S:1:pos:R:3:forces:R:3 energy=-8.4973137242163 pbc="F F F"
Ru       0.00000000       0.00000000       0.00000000       0.00000000       0.00000000      -0.12505409
Ru       0.00000000       0.00000000       2.17878788       0.00000000       0.00000000       0.12505409
2
Properties=species:S:1:pos:R:3:forces:R:3 energy=-8.478205974897646 pbc="F F F"
Ru       0.00000000       0.00000000       0.00000000       0.00000000       0.00000000       0.75186759
Ru       0.00000000       0.00000000       2.23757576       0.00000000       0.00000000      -0.75186759
2
Properties=species:S:1:pos:R:3:forces:R:3 energy=-8.412832408258268 pbc="F F F"
Ru       0.00000000       0.00000000       0.00000000       0.00000000       0.00000000       1.42229903
Ru       0.00000000       0.00000000       2.29636364       0.00000000       0.00000000      -1.42229903
2
Properties=species:S:1:pos:R:3:forces:R:3 energy=-8.31587595682376 pbc="F F F"
Ru       0.00000000       0.00000000       0.00000000       0.00000000       0.00000000       1.85691440
Ru       0.00000000       0.00000000       2.35515152       0.00000000       0.00000000      -1.85691440
2
Properties=species:S:1:pos:R:3:forces:R:3 energy=-8.194716361094333 pbc="F F F"
Ru       0.00000000       0.00000000       0.00000000       0.00000000       0.00000000       2.26954985
Ru       0.00000000       0.00000000       2.41393939       0.00000000       0.00000000      -2.26954985
2
Properties=species:S:1:pos:R:3:forces:R:3 energy=-8.049405184553487 pbc="F F F"
Ru       0.00000000       0.00000000       0.00000000       0.00000000       0.00000000       2.65944171
Ru       0.00000000       0.00000000       2.47272727       0.00000000       0.00000000      -2.65944171
2
Properties=species:S:1:pos:R:3:forces:R:3 energy=-7.884455319911335 pbc="F F F"
Ru       0.00000000       0.00000000       0.00000000       0.00000000       0.00000000       2.92926431
Ru       0.00000000       0.00000000       2.53151515       0.00000000       0.00000000      -2.92926431
2
Properties=species:S:1:pos:R:3:forces:R:3 energy=-7.708328706355956 pbc="F F F"
Ru       0.00000000       0.00000000       0.00000000       0.00000000       0.00000000       3.02686214
Ru       0.00000000       0.00000000       2.59030303       0.00000000       0.00000000      -3.02686214
2
Properties=species:S:1:pos:R:3:forces:R:3 energy=-7.533042010835708 pbc="F F F"
Ru       0.00000000       0.00000000       0.00000000       0.00000000       0.00000000       2.90294456
Ru       0.00000000       0.00000000       2.64909091       0.00000000       0.00000000      -2.90294456
2
Properties=species:S:1:pos:R:3:forces:R:3 energy=-7.369578233752591 pbc="F F F"
Ru       0.00000000       0.00000000       0.00000000       0.00000000       0.00000000       2.64844418
Ru       0.00000000       0.00000000       2.70787879       0.00000000       0.00000000      -2.64844418
2
Properties=species:S:1:pos:R:3:forces:R:3 energy=-7.221893151977132 pbc="F F F"
Ru       0.00000000       0.00000000       0.00000000       0.00000000       0.00000000       2.37799191
Ru       0.00000000       0.00000000       2.76666667       0.00000000       0.00000000      -2.37799191
2
Properties=species:S:1:pos:R:3:forces:R:3 energy=-7.089683200382146 pbc="F F F"
Ru       0.00000000       0.00000000       0.00000000       0.00000000       0.00000000       2.12217593
Ru       0.00000000       0.00000000       2.82545455       0.00000000       0.00000000      -2.12217593
2
Properties=species:S:1:pos:R:3:forces:R:3 energy=-6.9721199702940275 pbc="F F F"
Ru       0.00000000       0.00000000       0.00000000       0.00000000       0.00000000       1.87982738
Ru       0.00000000       0.00000000       2.88424242       0.00000000       0.00000000      -1.87982738
2
Properties=species:S:1:pos:R:3:forces:R:3 energy=-6.8682395526540745 pbc="F F F"
Ru       0.00000000       0.00000000       0.00000000       0.00000000       0.00000000       1.65939844
Ru       0.00000000       0.00000000       2.94303030       0.00000000       0.00000000      -1.65939844
2
Properties=species:S:1:pos:R:3:forces:R:3 energy=-6.7761911850821726 pbc="F F F"
Ru       0.00000000       0.00000000       0.00000000       0.00000000       0.00000000       1.48066258
Ru       0.00000000       0.00000000       3.00181818       0.00000000       0.00000000      -1.48066258
2
Properties=species:S:1:pos:R:3:forces:R:3 energy=-6.6931149684346645 pbc="F F F"
Ru       0.00000000       0.00000000       0.00000000       0.00000000       0.00000000       1.35385382
Ru       0.00000000       0.00000000       3.06060606       0.00000000       0.00000000      -1.35385382
2
Properties=species:S:1:pos:R:3:forces:R:3 energy=-6.616228922170792 pbc="F F F"
Ru       0.00000000       0.00000000       0.00000000       0.00000000       0.00000000       1.26679027
Ru       0.00000000       0.00000000       3.11939394       0.00000000       0.00000000      -1.26679027
2
Properties=species:S:1:pos:R:3:forces:R:3 energy=-6.543738548139968 pbc="F F F"
Ru       0.00000000       0.00000000       0.00000000       0.00000000       0.00000000       1.20215476
Ru       0.00000000       0.00000000       3.17818182       0.00000000       0.00000000      -1.20215476
2
Properties=species:S:1:pos:R:3:forces:R:3 energy=-6.474616269626346 pbc="F F F"
Ru       0.00000000       0.00000000       0.00000000       0.00000000       0.00000000       1.15135908
Ru       0.00000000       0.00000000       3.23696970       0.00000000       0.00000000      -1.15135908
2
Properties=species:S:1:pos:R:3:forces:R:3 energy=-6.408199330657206 pbc="F F F"
Ru       0.00000000       0.00000000       0.00000000       0.00000000       0.00000000       1.10910535
Ru       0.00000000       0.00000000       3.29575758       0.00000000       0.00000000      -1.10910535
2
Properties=species:S:1:pos:R:3:forces:R:3 energy=-6.34414999779571 pbc="F F F"
Ru       0.00000000       0.00000000       0.00000000       0.00000000       0.00000000       1.07011759
Ru       0.00000000       0.00000000       3.35454545       0.00000000       0.00000000      -1.07011759
2
Properties=species:S:1:pos:R:3:forces:R:3 energy=-6.282395507009515 pbc="F F F"
Ru       0.00000000       0.00000000       0.00000000       0.00000000       0.00000000       1.03049529
Ru       0.00000000       0.00000000       3.41333333       0.00000000       0.00000000      -1.03049529
2
Properties=species:S:1:pos:R:3:forces:R:3 energy=-6.2230407057723305 pbc="F F F"
Ru       0.00000000       0.00000000       0.00000000       0.00000000       0.00000000       0.98826879
Ru       0.00000000       0.00000000       3.47212121       0.00000000       0.00000000      -0.98826879
2
Properties=species:S:1:pos:R:3:forces:R:3 energy=-6.166263199574256 pbc="F F F"
Ru       0.00000000       0.00000000       0.00000000       0.00000000       0.00000000       0.94264376
Ru       0.00000000       0.00000000       3.53090909       0.00000000       0.00000000      -0.94264376
2
Properties=species:S:1:pos:R:3:forces:R:3 energy=-6.112292554820512 pbc="F F F"
Ru       0.00000000       0.00000000       0.00000000       0.00000000       0.00000000       0.89263922
Ru       0.00000000       0.00000000       3.58969697       0.00000000       0.00000000      -0.89263922
2
Properties=species:S:1:pos:R:3:forces:R:3 energy=-6.061428456657318 pbc="F F F"
Ru       0.00000000       0.00000000       0.00000000       0.00000000       0.00000000       0.83665156
Ru       0.00000000       0.00000000       3.64848485       0.00000000       0.00000000      -0.83665156
2
Properties=species:S:1:pos:R:3:forces:R:3 energy=-6.014065624881358 pbc="F F F"
Ru       0.00000000       0.00000000       0.00000000       0.00000000       0.00000000       0.77343524
Ru       0.00000000       0.00000000       3.70727273       0.00000000       0.00000000      -0.77343524
2
Properties=species:S:1:pos:R:3:forces:R:3 energy=-5.970627050401987 pbc="F F F"
Ru       0.00000000       0.00000000       0.00000000       0.00000000       0.00000000       0.70336574
Ru       0.00000000       0.00000000       3.76606061       0.00000000       0.00000000      -0.70336574
2
Properties=species:S:1:pos:R:3:forces:R:3 energy=-5.931453508404704 pbc="F F F"
Ru       0.00000000       0.00000000       0.00000000       0.00000000       0.00000000       0.62879699
Ru       0.00000000       0.00000000       3.82484848       0.00000000       0.00000000      -0.62879699
2
Properties=species:S:1:pos:R:3:forces:R:3 energy=-5.89671196126727 pbc="F F F"
Ru       0.00000000       0.00000000       0.00000000       0.00000000       0.00000000       0.55330914
Ru       0.00000000       0.00000000       3.88363636       0.00000000       0.00000000      -0.55330914
2
Properties=species:S:1:pos:R:3:forces:R:3 energy=-5.866345134198172 pbc="F F F"
Ru       0.00000000       0.00000000       0.00000000       0.00000000       0.00000000       0.48050249
Ru       0.00000000       0.00000000       3.94242424       0.00000000       0.00000000      -0.48050249
2
Properties=species:S:1:pos:R:3:forces:R:3 energy=-5.840112415526284 pbc="F F F"
Ru       0.00000000       0.00000000       0.00000000       0.00000000       0.00000000       0.41306466
Ru       0.00000000       0.00000000       4.00121212       0.00000000       0.00000000      -0.41306466
2
Properties=species:S:1:pos:R:3:forces:R:3 energy=-5.8176471848658 pbc="F F F"
Ru       0.00000000       0.00000000       0.00000000       0.00000000       0.00000000       0.35252568
Ru       0.00000000       0.00000000       4.06000000       0.00000000       0.00000000      -0.35252568
2
Properties=species:S:1:pos:R:3:forces:R:3 energy=-5.798514825690605 pbc="F F F"
Ru       0.00000000       0.00000000       0.00000000       0.00000000       0.00000000       0.29951015
Ru       0.00000000       0.00000000       4.11878788       0.00000000       0.00000000      -0.29951015
2
Properties=species:S:1:pos:R:3:forces:R:3 energy=-5.782279568067622 pbc="F F F"
Ru       0.00000000       0.00000000       0.00000000       0.00000000       0.00000000       0.25409007
Ru       0.00000000       0.00000000       4.17757576       0.00000000       0.00000000      -0.25409007
2
Properties=species:S:1:pos:R:3:forces:R:3 energy=-5.768497559510828 pbc="F F F"
Ru       0.00000000       0.00000000       0.00000000       0.00000000       0.00000000       0.21600163
Ru       0.00000000       0.00000000       4.23636364       0.00000000       0.00000000      -0.21600163
2
Properties=species:S:1:pos:R:3:forces:R:3 energy=-5.7567502245753905 pbc="F F F"
Ru       0.00000000       0.00000000       0.00000000       0.00000000       0.00000000       0.18472122
Ru       0.00000000       0.00000000       4.29515152       0.00000000       0.00000000      -0.18472122
2
Properties=species:S:1:pos:R:3:forces:R:3 energy=-5.746661402484969 pbc="F F F"
Ru       0.00000000       0.00000000       0.00000000       0.00000000       0.00000000       0.15949997
Ru       0.00000000       0.00000000       4.35393939       0.00000000       0.00000000      -0.15949997
2
Properties=species:S:1:pos:R:3:forces:R:3 energy=-5.737894162990901 pbc="F F F"
Ru       0.00000000       0.00000000       0.00000000       0.00000000       0.00000000       0.13943249
Ru       0.00000000       0.00000000       4.41272727       0.00000000       0.00000000      -0.13943249
2
Properties=species:S:1:pos:R:3:forces:R:3 energy=-5.730182249114247 pbc="F F F"
Ru       0.00000000       0.00000000       0.00000000       0.00000000       0.00000000       0.12356316
Ru       0.00000000       0.00000000       4.47151515       0.00000000       0.00000000      -0.12356316
2
Properties=species:S:1:pos:R:3:forces:R:3 energy=-5.7233023192203065 pbc="F F F"
Ru       0.00000000       0.00000000       0.00000000       0.00000000       0.00000000       0.11100204
Ru       0.00000000       0.00000000       4.53030303       0.00000000       0.00000000      -0.11100204
2
Properties=species:S:1:pos:R:3:forces:R:3 energy=-5.717082276661695 pbc="F F F"
Ru       0.00000000       0.00000000       0.00000000       0.00000000       0.00000000       0.10100565
Ru       0.00000000       0.00000000       4.58909091       0.00000000       0.00000000      -0.10100565
2
Properties=species:S:1:pos:R:3:forces:R:3 energy=-5.711386920314082 pbc="F F F"
Ru       0.00000000       0.00000000       0.00000000       0.00000000       0.00000000       0.09301336
Ru       0.00000000       0.00000000       4.64787879       0.00000000       0.00000000      -0.09301336
2
Properties=species:S:1:pos:R:3:forces:R:3 energy=-5.706114034844267 pbc="F F F"
Ru       0.00000000       0.00000000       0.00000000       0.00000000       0.00000000       0.08663100
Ru       0.00000000       0.00000000       4.70666667       0.00000000       0.00000000      -0.08663100
2
Properties=species:S:1:pos:R:3:forces:R:3 energy=-5.701178007184405 pbc="F F F"
Ru       0.00000000       0.00000000       0.00000000       0.00000000       0.00000000       0.08158787
Ru       0.00000000       0.00000000       4.76545455       0.00000000       0.00000000      -0.08158787
2
Properties=species:S:1:pos:R:3:forces:R:3 energy=-5.69649554675983 pbc="F F F"
Ru       0.00000000       0.00000000       0.00000000       0.00000000       0.00000000       0.07769307
Ru       0.00000000       0.00000000       4.82424242       0.00000000       0.00000000      -0.07769307
2
Properties=species:S:1:pos:R:3:forces:R:3 energy=-5.692022755242339 pbc="F F F"
Ru       0.00000000       0.00000000       0.00000000       0.00000000       0.00000000       0.07480159
Ru       0.00000000       0.00000000       4.88303030       0.00000000       0.00000000      -0.07480159
2
Properties=species:S:1:pos:R:3:forces:R:3 energy=-5.687686458831585 pbc="F F F"
Ru       0.00000000       0.00000000       0.00000000       0.00000000       0.00000000       0.07279257
Ru       0.00000000       0.00000000       4.94181818       0.00000000       0.00000000      -0.07279257
2
Properties=species:S:1:pos:R:3:forces:R:3 energy=-5.68344807592388 pbc="F F F"
Ru       0.00000000       0.00000000       0.00000000       0.00000000       0.00000000       0.07153722
Ru       0.00000000       0.00000000       5.00060606       0.00000000       0.00000000      -0.07153722
2
Properties=species:S:1:pos:R:3:forces:R:3 energy=-5.67926555567073 pbc="F F F"
Ru       0.00000000       0.00000000       0.00000000       0.00000000       0.00000000       0.07086720
Ru       0.00000000       0.00000000       5.05939394       0.00000000       0.00000000      -0.07086720
2
Properties=species:S:1:pos:R:3:forces:R:3 energy=-5.675108551236708 pbc="F F F"
Ru       0.00000000       0.00000000       0.00000000       0.00000000       0.00000000       0.07053781
Ru       0.00000000       0.00000000       5.11818182       0.00000000       0.00000000      -0.07053781
2
Properties=species:S:1:pos:R:3:forces:R:3 energy=-5.670970917351958 pbc="F F F"
Ru       0.00000000       0.00000000       0.00000000       0.00000000       0.00000000       0.07020900
Ru       0.00000000       0.00000000       5.17696970       0.00000000       0.00000000      -0.07020900
2
Properties=species:S:1:pos:R:3:forces:R:3 energy=-5.666862163673305 pbc="F F F"
Ru       0.00000000       0.00000000       0.00000000       0.00000000       0.00000000       0.06945785
Ru       0.00000000       0.00000000       5.23575758       0.00000000       0.00000000      -0.06945785
2
Properties=species:S:1:pos:R:3:forces:R:3 energy=-5.662821810584159 pbc="F F F"
Ru       0.00000000       0.00000000       0.00000000       0.00000000       0.00000000       0.06784364
Ru       0.00000000       0.00000000       5.29454545       0.00000000       0.00000000      -0.06784364
2
Properties=species:S:1:pos:R:3:forces:R:3 energy=-5.65890896371738 pbc="F F F"
Ru       0.00000000       0.00000000       0.00000000       0.00000000       0.00000000       0.06498070
Ru       0.00000000       0.00000000       5.35333333       0.00000000       0.00000000      -0.06498070
2
Properties=species:S:1:pos:R:3:forces:R:3 energy=-5.655209956021105 pbc="F F F"
Ru       0.00000000       0.00000000       0.00000000       0.00000000       0.00000000       0.06065477
Ru       0.00000000       0.00000000       5.41212121       0.00000000       0.00000000      -0.06065477
2
Properties=species:S:1:pos:R:3:forces:R:3 energy=-5.651806995299636 pbc="F F F"
Ru       0.00000000       0.00000000       0.00000000       0.00000000       0.00000000       0.05487929
Ru       0.00000000       0.00000000       5.47090909       0.00000000       0.00000000      -0.05487929
2
Properties=species:S:1:pos:R:3:forces:R:3 energy=-5.648780074729892 pbc="F F F"
Ru       0.00000000       0.00000000       0.00000000       0.00000000       0.00000000       0.04792431
Ru       0.00000000       0.00000000       5.52969697       0.00000000       0.00000000      -0.04792431
2
Properties=species:S:1:pos:R:3:forces:R:3 energy=-5.646187970651082 pbc="F F F"
Ru       0.00000000       0.00000000       0.00000000       0.00000000       0.00000000       0.04028692
Ru       0.00000000       0.00000000       5.58848485       0.00000000       0.00000000      -0.04028692
2
Properties=species:S:1:pos:R:3:forces:R:3 energy=-5.644044475150612 pbc="F F F"
Ru       0.00000000       0.00000000       0.00000000       0.00000000       0.00000000       0.03260849
Ru       0.00000000       0.00000000       5.64727273       0.00000000       0.00000000      -0.03260849
2
Properties=species:S:1:pos:R:3:forces:R:3 energy=-5.642341265240752 pbc="F F F"
Ru       0.00000000       0.00000000       0.00000000       0.00000000       0.00000000       0.02554796
Ru       0.00000000       0.00000000       5.70606061       0.00000000       0.00000000      -0.02554796
2
Properties=species:S:1:pos:R:3:forces:R:3 energy=-5.641019371032737 pbc="F F F"
Ru       0.00000000       0.00000000       0.00000000       0.00000000       0.00000000       0.01965428
Ru       0.00000000       0.00000000       5.76484848       0.00000000       0.00000000      -0.01965428
2
Properties=species:S:1:pos:R:3:forces:R:3 energy=-5.639996896440341 pbc="F F F"
Ru       0.00000000       0.00000000       0.00000000       0.00000000       0.00000000       0.01527916
Ru       0.00000000       0.00000000       5.82363636       0.00000000       0.00000000      -0.01527916
2
Properties=species:S:1:pos:R:3:forces:R:3 energy=-5.6391899524975075 pbc="F F F"
Ru       0.00000000       0.00000000       0.00000000       0.00000000       0.00000000       0.01246616
Ru       0.00000000       0.00000000       5.88242424       0.00000000       0.00000000      -0.01246616
2
Properties=species:S:1:pos:R:3:forces:R:3 energy=-5.6385060616256455 pbc="F F F"
Ru       0.00000000       0.00000000       0.00000000       0.00000000       0.00000000       0.01095400
Ru       0.00000000       0.00000000       5.94121212       0.00000000       0.00000000      -0.01095400
2
Properties=species:S:1:pos:R:3:forces:R:3 energy=-5.637888041699335 pbc="F F F"
Ru       0.00000000       0.00000000       0.00000000       0.00000000       0.00000000       0.01020642
Ru       0.00000000       0.00000000       6.00000000       0.00000000       0.00000000      -0.01020642
