2
Properties=species:S:1:pos:R:3:forces:R:3 energy=3893490.964436267 pbc="F F F"
S        0.00000000       0.00000000       0.00000000       0.00000000       0.00000000 -34278180.00000000
S        0.00000000       0.00000000       0.18000000       0.00000000       0.00000000 34278180.00000000
2
Properties=species:S:1:pos:R:3:forces:R:3 energy=2132452.714436267 pbc="F F F"
S        0.00000000       0.00000000       0.00000000       0.00000000       0.00000000 -24817954.00000000
S        0.00000000       0.00000000       0.23878788       0.00000000       0.00000000 24817954.00000000
2
Properties=species:S:1:pos:R:3:forces:R:3 energy=998112.7769362704 pbc="F F F"
S        0.00000000       0.00000000       0.00000000       0.00000000       0.00000000 -14067945.00000000
S        0.00000000       0.00000000       0.29757576       0.00000000       0.00000000 14067945.00000000
2
Properties=species:S:1:pos:R:3:forces:R:3 energy=412260.1519362799 pbc="F F F"
S        0.00000000       0.00000000       0.00000000       0.00000000       0.00000000 -6586898.50000000
S        0.00000000       0.00000000       0.35636364       0.00000000       0.00000000 6586898.50000000
2
Properties=species:S:1:pos:R:3:forces:R:3 energy=152426.05818629576 pbc="F F F"
S        0.00000000       0.00000000       0.00000000       0.00000000       0.00000000 -2685957.25000000
S        0.00000000       0.00000000       0.41515152       0.00000000       0.00000000 2685957.25000000
2
Properties=species:S:1:pos:R:3:forces:R:3 energy=50161.319905080614 pbc="F F F"
S        0.00000000       0.00000000       0.00000000       0.00000000       0.00000000 -1096268.87500000
S        0.00000000       0.00000000       0.47393939       0.00000000       0.00000000 1096268.87500000
2
Properties=species:S:1:pos:R:3:forces:R:3 energy=12392.729084834638 pbc="F F F"
S        0.00000000       0.00000000       0.00000000       0.00000000       0.00000000 -316840.90625000
S        0.00000000       0.00000000       0.53272727       0.00000000       0.00000000  316840.90625000
2
Properties=species:S:1:pos:R:3:forces:R:3 energy=2415.8050126830553 pbc="F F F"
S        0.00000000       0.00000000       0.00000000       0.00000000       0.00000000  -72198.83593750
S        0.00000000       0.00000000       0.59151515       0.00000000       0.00000000   72198.83593750
2
Properties=species:S:1:pos:R:3:forces:R:3 energy=391.9167072058943 pbc="F F F"
S        0.00000000       0.00000000       0.00000000       0.00000000       0.00000000  -12858.03808594
S        0.00000000       0.00000000       0.65030303       0.00000000       0.00000000   12858.03808594
2
Properties=species:S:1:pos:R:3:forces:R:3 energy=101.21580265747816 pbc="F F F"
S        0.00000000       0.00000000       0.00000000       0.00000000       0.00000000    -712.62927246
S        0.00000000       0.00000000       0.70909091       0.00000000       0.00000000     712.62927246
2
Properties=species:S:1:pos:R:3:forces:R:3 energy=75.49461933362126 pbc="F F F"
S        0.00000000       0.00000000       0.00000000       0.00000000       0.00000000    -263.01712036
S        0.00000000       0.00000000       0.76787879       0.00000000       0.00000000     263.01712036
2
Properties=species:S:1:pos:R:3:forces:R:3 energy=61.52020135872719 pbc="F F F"
S        0.00000000       0.00000000       0.00000000       0.00000000       0.00000000    -198.06350708
S        0.00000000       0.00000000       0.82666667       0.00000000       0.00000000     198.06350708
2
Properties=species:S:1:pos:R:3:forces:R:3 energy=49.91377988792525 pbc="F F F"
S        0.00000000       0.00000000       0.00000000       0.00000000       0.00000000    -182.98912048
S        0.00000000       0.00000000       0.88545455       0.00000000       0.00000000     182.98912048
2
Properties=species:S:1:pos:R:3:forces:R:3 energy=40.09786707069346 pbc="F F F"
S        0.00000000       0.00000000       0.00000000       0.00000000       0.00000000    -149.40005493
S        0.00000000       0.00000000       0.94424242       0.00000000       0.00000000     149.40005493
2
Properties=species:S:1:pos:R:3:forces:R:3 energy=32.556105602366245 pbc="F F F"
S        0.00000000       0.00000000       0.00000000       0.00000000       0.00000000    -100.70970154
S        0.00000000       0.00000000       1.00303030       0.00000000       0.00000000     100.70970154
2
Properties=species:S:1:pos:R:3:forces:R:3 energy=29.023614488294573 pbc="F F F"
S        0.00000000       0.00000000       0.00000000       0.00000000       0.00000000       2.60075569
S        0.00000000       0.00000000       1.06181818       0.00000000       0.00000000      -2.60075569
2
Properties=species:S:1:pos:R:3:forces:R:3 energy=28.571938549925456 pbc="F F F"
S        0.00000000       0.00000000       0.00000000       0.00000000       0.00000000     -34.05359268
S        0.00000000       0.00000000       1.12060606       0.00000000       0.00000000      34.05359268
2
Properties=species:S:1:pos:R:3:forces:R:3 energy=24.810929823989895 pbc="F F F"
S        0.00000000       0.00000000       0.00000000       0.00000000       0.00000000     -89.57405853
S        0.00000000       0.00000000       1.17939394       0.00000000       0.00000000      89.57405853
2
Properties=species:S:1:pos:R:3:forces:R:3 energy=18.487187751797894 pbc="F F F"
S        0.00000000       0.00000000       0.00000000       0.00000000       0.00000000    -119.41597748
S        0.00000000       0.00000000       1.23818182       0.00000000       0.00000000     119.41597748
2
Properties=species:S:1:pos:R:3:forces:R:3 energy=11.459744295699533 pbc="F F F"
S        0.00000000       0.00000000       0.00000000       0.00000000       0.00000000    -114.21856689
S        0.00000000       0.00000000       1.29696970       0.00000000       0.00000000     114.21856689
2
Properties=species:S:1:pos:R:3:forces:R:3 energy=5.755872012742412 pbc="F F F"
S        0.00000000       0.00000000       0.00000000       0.00000000       0.00000000     -80.98726654
S        0.00000000       0.00000000       1.35575758       0.00000000       0.00000000      80.98726654
2
Properties=species:S:1:pos:R:3:forces:R:3 energy=1.7441511570706072 pbc="F F F"
S        0.00000000       0.00000000       0.00000000       0.00000000       0.00000000     -56.11569595
S        0.00000000       0.00000000       1.41454545       0.00000000       0.00000000      56.11569595
2
Properties=species:S:1:pos:R:3:forces:R:3 energy=-1.0070136364635534 pbc="F F F"
S        0.00000000       0.00000000       0.00000000       0.00000000       0.00000000     -39.08708191
S        0.00000000       0.00000000       1.47333333       0.00000000       0.00000000      39.08708191
2
Properties=species:S:1:pos:R:3:forces:R:3 energy=-2.963982906845929 pbc="F F F"
S        0.00000000       0.00000000       0.00000000       0.00000000       0.00000000     -27.99065971
S        0.00000000       0.00000000       1.53212121       0.00000000       0.00000000      27.99065971
2
Properties=species:S:1:pos:R:3:forces:R:3 energy=-4.3438852953608675 pbc="F F F"
S        0.00000000       0.00000000       0.00000000       0.00000000       0.00000000     -19.33061409
S        0.00000000       0.00000000       1.59090909       0.00000000       0.00000000      19.33061409
2
Properties=species:S:1:pos:R:3:forces:R:3 energy=-5.293637963078169 pbc="F F F"
S        0.00000000       0.00000000       0.00000000       0.00000000       0.00000000     -13.43709850
S        0.00000000       0.00000000       1.64969697       0.00000000       0.00000000      13.43709850
2
Properties=species:S:1:pos:R:3:forces:R:3 energy=-5.951194413307821 pbc="F F F"
S        0.00000000       0.00000000       0.00000000       0.00000000       0.00000000      -9.09417915
S        0.00000000       0.00000000       1.70848485       0.00000000       0.00000000       9.09417915
2
Properties=species:S:1:pos:R:3:forces:R:3 energy=-6.3956348840860855 pbc="F F F"
S        0.00000000       0.00000000       0.00000000       0.00000000       0.00000000      -6.26929140
S        0.00000000       0.00000000       1.76727273       0.00000000       0.00000000       6.26929140
2
Properties=species:S:1:pos:R:3:forces:R:3 energy=-6.683631503503475 pbc="F F F"
S        0.00000000       0.00000000       0.00000000       0.00000000       0.00000000      -3.38007045
S        0.00000000       0.00000000       1.82606061       0.00000000       0.00000000       3.38007045
2
Properties=species:S:1:pos:R:3:forces:R:3 energy=-6.7943388141623196 pbc="F F F"
S        0.00000000       0.00000000       0.00000000       0.00000000       0.00000000      -0.51226133
S        0.00000000       0.00000000       1.88484848       0.00000000       0.00000000       0.51226133
2
Properties=species:S:1:pos:R:3:forces:R:3 energy=-6.7695877028822915 pbc="F F F"
S        0.00000000       0.00000000       0.00000000       0.00000000       0.00000000       1.10996437
S        0.00000000       0.00000000       1.94363636       0.00000000       0.00000000      -1.10996437
2
Properties=species:S:1:pos:R:3:forces:R:3 energy=-6.685908900462747 pbc="F F F"
S        0.00000000       0.00000000       0.00000000       0.00000000       0.00000000       1.62976396
S        0.00000000       0.00000000       2.00242424       0.00000000       0.00000000      -1.62976396
2
Properties=species:S:1:pos:R:3:forces:R:3 energy=-6.583878573601196 pbc="F F F"
S        0.00000000       0.00000000       0.00000000       0.00000000       0.00000000       1.83447909
S        0.00000000       0.00000000       2.06121212       0.00000000       0.00000000      -1.83447909
2
Properties=species:S:1:pos:R:3:forces:R:3 energy=-6.4628455799751245 pbc="F F F"
S        0.00000000       0.00000000       0.00000000       0.00000000       0.00000000       2.40722489
S        0.00000000       0.00000000       2.12000000       0.00000000       0.00000000      -2.40722489
2
Properties=species:S:1:pos:R:3:forces:R:3 energy=-6.288450062322325 pbc="F F F"
S        0.00000000       0.00000000       0.00000000       0.00000000       0.00000000       3.55582309
S        0.00000000       0.00000000       2.17878788       0.00000000       0.00000000      -3.55582309
2
Properties=species:S:1:pos:R:3:forces:R:3 energy=-6.049297733978148 pbc="F F F"
S        0.00000000       0.00000000       0.00000000       0.00000000       0.00000000       4.51313543
S        0.00000000       0.00000000       2.23757576       0.00000000       0.00000000      -4.51313543
2
Properties=species:S:1:pos:R:3:forces:R:3 energy=-5.765845940555239 pbc="F F F"
S        0.00000000       0.00000000       0.00000000       0.00000000       0.00000000       5.06289625
S        0.00000000       0.00000000       2.29636364       0.00000000       0.00000000      -5.06289625
2
Properties=species:S:1:pos:R:3:forces:R:3 energy=-5.46165074993909 pbc="F F F"
S        0.00000000       0.00000000       0.00000000       0.00000000       0.00000000       5.23147106
S        0.00000000       0.00000000       2.35515152       0.00000000       0.00000000      -5.23147106
2
Properties=species:S:1:pos:R:3:forces:R:3 energy=-5.1542062165660525 pbc="F F F"
S        0.00000000       0.00000000       0.00000000       0.00000000       0.00000000       5.21984243
S        0.00000000       0.00000000       2.41393939       0.00000000       0.00000000      -5.21984243
2
Properties=species:S:1:pos:R:3:forces:R:3 energy=-4.8485638327530385 pbc="F F F"
S        0.00000000       0.00000000       0.00000000       0.00000000       0.00000000       5.16605568
S        0.00000000       0.00000000       2.47272727       0.00000000       0.00000000      -5.16605568
2
Properties=species:S:1:pos:R:3:forces:R:3 energy=-4.549500316428852 pbc="F F F"
S        0.00000000       0.00000000       0.00000000       0.00000000       0.00000000       4.97737122
S        0.00000000       0.00000000       2.53151515       0.00000000       0.00000000      -4.97737122
2
Properties=species:S:1:pos:R:3:forces:R:3 energy=-4.2671257688196995 pbc="F F F"
S        0.00000000       0.00000000       0.00000000       0.00000000       0.00000000       4.60034752
S        0.00000000       0.00000000       2.59030303       0.00000000       0.00000000      -4.60034752
2
Properties=species:S:1:pos:R:3:forces:R:3 energy=-4.011063869733086 pbc="F F F"
S        0.00000000       0.00000000       0.00000000       0.00000000       0.00000000       4.09924507
S        0.00000000       0.00000000       2.64909091       0.00000000       0.00000000      -4.09924507
2
Properties=species:S:1:pos:R:3:forces:R:3 energy=-3.7855122638049683 pbc="F F F"
S        0.00000000       0.00000000       0.00000000       0.00000000       0.00000000       3.57854176
S        0.00000000       0.00000000       2.70787879       0.00000000       0.00000000      -3.57854176
2
Properties=species:S:1:pos:R:3:forces:R:3 energy=-3.5892561969788415 pbc="F F F"
S        0.00000000       0.00000000       0.00000000       0.00000000       0.00000000       3.10983706
S        0.00000000       0.00000000       2.76666667       0.00000000       0.00000000      -3.10983706
2
Properties=species:S:1:pos:R:3:forces:R:3 energy=-3.418469018321306 pbc="F F F"
S        0.00000000       0.00000000       0.00000000       0.00000000       0.00000000       2.71163630
S        0.00000000       0.00000000       2.82545455       0.00000000       0.00000000      -2.71163630
2
Properties=species:S:1:pos:R:3:forces:R:3 energy=-3.269309718766649 pbc="F F F"
S        0.00000000       0.00000000       0.00000000       0.00000000       0.00000000       2.37083435
S        0.00000000       0.00000000       2.88424242       0.00000000       0.00000000      -2.37083435
2
Properties=species:S:1:pos:R:3:forces:R:3 energy=-3.138897444995019 pbc="F F F"
S        0.00000000       0.00000000       0.00000000       0.00000000       0.00000000       2.07221627
S        0.00000000       0.00000000       2.94303030       0.00000000       0.00000000      -2.07221627
2
Properties=species:S:1:pos:R:3:forces:R:3 energy=-3.0249315306433315 pbc="F F F"
S        0.00000000       0.00000000       0.00000000       0.00000000       0.00000000       1.81130278
S        0.00000000       0.00000000       3.00181818       0.00000000       0.00000000      -1.81130278
2
Properties=species:S:1:pos:R:3:forces:R:3 energy=-2.925233326287577 pbc="F F F"
S        0.00000000       0.00000000       0.00000000       0.00000000       0.00000000       1.58568084
S        0.00000000       0.00000000       3.06060606       0.00000000       0.00000000      -1.58568084
2
Properties=species:S:1:pos:R:3:forces:R:3 energy=-2.8380093738764445 pbc="F F F"
S        0.00000000       0.00000000       0.00000000       0.00000000       0.00000000       1.38494909
S        0.00000000       0.00000000       3.11939394       0.00000000       0.00000000      -1.38494909
2
Properties=species:S:1:pos:R:3:forces:R:3 energy=-2.762047684418776 pbc="F F F"
S        0.00000000       0.00000000       0.00000000       0.00000000       0.00000000       1.20249856
S        0.00000000       0.00000000       3.17818182       0.00000000       0.00000000      -1.20249856
2
Properties=species:S:1:pos:R:3:forces:R:3 energy=-2.6962017144873425 pbc="F F F"
S        0.00000000       0.00000000       0.00000000       0.00000000       0.00000000       1.04148197
S        0.00000000       0.00000000       3.23696970       0.00000000       0.00000000      -1.04148197
2
Properties=species:S:1:pos:R:3:forces:R:3 energy=-2.6391552489899714 pbc="F F F"
S        0.00000000       0.00000000       0.00000000       0.00000000       0.00000000       0.90266436
S        0.00000000       0.00000000       3.29575758       0.00000000       0.00000000      -0.90266436
2
Properties=species:S:1:pos:R:3:forces:R:3 energy=-2.5897341116229993 pbc="F F F"
S        0.00000000       0.00000000       0.00000000       0.00000000       0.00000000       0.78096861
S        0.00000000       0.00000000       3.35454545       0.00000000       0.00000000      -0.78096861
2
Properties=species:S:1:pos:R:3:forces:R:3 energy=-2.547104576646418 pbc="F F F"
S        0.00000000       0.00000000       0.00000000       0.00000000       0.00000000       0.67100114
S        0.00000000       0.00000000       3.41333333       0.00000000       0.00000000      -0.67100114
2
Properties=species:S:1:pos:R:3:forces:R:3 energy=-2.510653806302228 pbc="F F F"
S        0.00000000       0.00000000       0.00000000       0.00000000       0.00000000       0.57072353
S        0.00000000       0.00000000       3.47212121       0.00000000       0.00000000      -0.57072353
2
Properties=species:S:1:pos:R:3:forces:R:3 energy=-2.479793328964906 pbc="F F F"
S        0.00000000       0.00000000       0.00000000       0.00000000       0.00000000       0.48104119
S        0.00000000       0.00000000       3.53090909       0.00000000       0.00000000      -0.48104119
2
Properties=species:S:1:pos:R:3:forces:R:3 energy=-2.453863622608519 pbc="F F F"
S        0.00000000       0.00000000       0.00000000       0.00000000       0.00000000       0.40314102
S        0.00000000       0.00000000       3.58969697       0.00000000       0.00000000      -0.40314102
2
Properties=species:S:1:pos:R:3:forces:R:3 energy=-2.4321693136413263 pbc="F F F"
S        0.00000000       0.00000000       0.00000000       0.00000000       0.00000000       0.33666673
S        0.00000000       0.00000000       3.64848485       0.00000000       0.00000000      -0.33666673
2
Properties=species:S:1:pos:R:3:forces:R:3 energy=-2.414086368647795 pbc="F F F"
S        0.00000000       0.00000000       0.00000000       0.00000000       0.00000000       0.27997538
S        0.00000000       0.00000000       3.70727273       0.00000000       0.00000000      -0.27997538
2
Properties=species:S:1:pos:R:3:forces:R:3 energy=-2.399094877359188 pbc="F F F"
S        0.00000000       0.00000000       0.00000000       0.00000000       0.00000000       0.23124258
S        0.00000000       0.00000000       3.76606061       0.00000000       0.00000000      -0.23124258
2
Properties=species:S:1:pos:R:3:forces:R:3 energy=-2.38676791592044 pbc="F F F"
S        0.00000000       0.00000000       0.00000000       0.00000000       0.00000000       0.18911992
S        0.00000000       0.00000000       3.82484848       0.00000000       0.00000000      -0.18911992
2
Properties=species:S:1:pos:R:3:forces:R:3 energy=-2.376747568815895 pbc="F F F"
S        0.00000000       0.00000000       0.00000000       0.00000000       0.00000000       0.15272400
S        0.00000000       0.00000000       3.88363636       0.00000000       0.00000000      -0.15272400
2
Properties=species:S:1:pos:R:3:forces:R:3 energy=-2.3687138806010473 pbc="F F F"
S        0.00000000       0.00000000       0.00000000       0.00000000       0.00000000       0.12136813
S        0.00000000       0.00000000       3.94242424       0.00000000       0.00000000      -0.12136813
2
Properties=species:S:1:pos:R:3:forces:R:3 energy=-2.3623918041353837 pbc="F F F"
S        0.00000000       0.00000000       0.00000000       0.00000000       0.00000000       0.09436194
S        0.00000000       0.00000000       4.00121212       0.00000000       0.00000000      -0.09436194
2
Properties=species:S:1:pos:R:3:forces:R:3 energy=-2.3575473462873435 pbc="F F F"
S        0.00000000       0.00000000       0.00000000       0.00000000       0.00000000       0.07101636
S        0.00000000       0.00000000       4.06000000       0.00000000       0.00000000      -0.07101636
2
Properties=species:S:1:pos:R:3:forces:R:3 energy=-2.353980817770282 pbc="F F F"
S        0.00000000       0.00000000       0.00000000       0.00000000       0.00000000       0.05076846
S        0.00000000       0.00000000       4.11878788       0.00000000       0.00000000      -0.05076846
2
Properties=species:S:1:pos:R:3:forces:R:3 energy=-2.3515243966876147 pbc="F F F"
S        0.00000000       0.00000000       0.00000000       0.00000000       0.00000000       0.03328060
S        0.00000000       0.00000000       4.17757576       0.00000000       0.00000000      -0.03328060
2
Properties=species:S:1:pos:R:3:forces:R:3 energy=-2.3500173124097454 pbc="F F F"
S        0.00000000       0.00000000       0.00000000       0.00000000       0.00000000       0.01843338
S        0.00000000       0.00000000       4.23636364       0.00000000       0.00000000      -0.01843338
2
Properties=species:S:1:pos:R:3:forces:R:3 energy=-2.3493048792284634 pbc="F F F"
S        0.00000000       0.00000000       0.00000000       0.00000000       0.00000000       0.00620212
S        0.00000000       0.00000000       4.29515152       0.00000000       0.00000000      -0.00620212
2
Properties=species:S:1:pos:R:3:forces:R:3 energy=-2.3492381066348917 pbc="F F F"
S        0.00000000       0.00000000       0.00000000       0.00000000       0.00000000      -0.00348974
S        0.00000000       0.00000000       4.35393939       0.00000000       0.00000000       0.00348974
2
Properties=species:S:1:pos:R:3:forces:R:3 energy=-2.3496693285895125 pbc="F F F"
S        0.00000000       0.00000000       0.00000000       0.00000000       0.00000000      -0.01085779
S        0.00000000       0.00000000       4.41272727       0.00000000       0.00000000       0.01085779
2
Properties=species:S:1:pos:R:3:forces:R:3 energy=-2.3504756960477575 pbc="F F F"
S        0.00000000       0.00000000       0.00000000       0.00000000       0.00000000      -0.01623093
S        0.00000000       0.00000000       4.47151515       0.00000000       0.00000000       0.01623093
2
Properties=species:S:1:pos:R:3:forces:R:3 energy=-2.3515444449013048 pbc="F F F"
S        0.00000000       0.00000000       0.00000000       0.00000000       0.00000000      -0.01996186
S        0.00000000       0.00000000       4.53030303       0.00000000       0.00000000       0.01996186
2
Properties=species:S:1:pos:R:3:forces:R:3 energy=-2.3527957889134044 pbc="F F F"
S        0.00000000       0.00000000       0.00000000       0.00000000       0.00000000      -0.02233445
S        0.00000000       0.00000000       4.58909091       0.00000000       0.00000000       0.02233445
2
Properties=species:S:1:pos:R:3:forces:R:3 energy=-2.3541486793103314 pbc="F F F"
S        0.00000000       0.00000000       0.00000000       0.00000000       0.00000000      -0.02351566
S        0.00000000       0.00000000       4.64787879       0.00000000       0.00000000       0.02351566
2
Properties=species:S:1:pos:R:3:forces:R:3 energy=-2.3555375487268533 pbc="F F F"
S        0.00000000       0.00000000       0.00000000       0.00000000       0.00000000      -0.02356284
S        0.00000000       0.00000000       4.70666667       0.00000000       0.00000000       0.02356284
2
Properties=species:S:1:pos:R:3:forces:R:3 energy=-2.3568994762007365 pbc="F F F"
S        0.00000000       0.00000000       0.00000000       0.00000000       0.00000000      -0.02246905
S        0.00000000       0.00000000       4.76545455       0.00000000       0.00000000       0.02246905
2
Properties=species:S:1:pos:R:3:forces:R:3 energy=-2.3581594551140412 pbc="F F F"
S        0.00000000       0.00000000       0.00000000       0.00000000       0.00000000      -0.02021491
S        0.00000000       0.00000000       4.82424242       0.00000000       0.00000000       0.02021491
2
Properties=species:S:1:pos:R:3:forces:R:3 energy=-2.359253331269913 pbc="F F F"
S        0.00000000       0.00000000       0.00000000       0.00000000       0.00000000      -0.01681812
S        0.00000000       0.00000000       4.88303030       0.00000000       0.00000000       0.01681812
2
Properties=species:S:1:pos:R:3:forces:R:3 energy=-2.360114473626908 pbc="F F F"
S        0.00000000       0.00000000       0.00000000       0.00000000       0.00000000      -0.01236420
S        0.00000000       0.00000000       4.94181818       0.00000000       0.00000000       0.01236420
2
Properties=species:S:1:pos:R:3:forces:R:3 energy=-2.360689067142146 pbc="F F F"
S        0.00000000       0.00000000       0.00000000       0.00000000       0.00000000      -0.00703342
S        0.00000000       0.00000000       5.00060606       0.00000000       0.00000000       0.00703342
2
Properties=species:S:1:pos:R:3:forces:R:3 energy=-2.3609313958768334 pbc="F F F"
S        0.00000000       0.00000000       0.00000000       0.00000000       0.00000000      -0.00110615
S        0.00000000       0.00000000       5.05939394       0.00000000       0.00000000       0.00110615
2
Properties=species:S:1:pos:R:3:forces:R:3 energy=-2.360812410226006 pbc="F F F"
S        0.00000000       0.00000000       0.00000000       0.00000000       0.00000000       0.00503886
S        0.00000000       0.00000000       5.11818182       0.00000000       0.00000000      -0.00503886
2
Properties=species:S:1:pos:R:3:forces:R:3 energy=-2.3603407497271296 pbc="F F F"
S        0.00000000       0.00000000       0.00000000       0.00000000       0.00000000       0.01094808
S        0.00000000       0.00000000       5.17696970       0.00000000       0.00000000      -0.01094808
2
Properties=species:S:1:pos:R:3:forces:R:3 energy=-2.3595393827910813 pbc="F F F"
S        0.00000000       0.00000000       0.00000000       0.00000000       0.00000000       0.01613719
S        0.00000000       0.00000000       5.23575758       0.00000000       0.00000000      -0.01613719
2
Properties=species:S:1:pos:R:3:forces:R:3 energy=-2.3584680370555198 pbc="F F F"
S        0.00000000       0.00000000       0.00000000       0.00000000       0.00000000       0.02015338
S        0.00000000       0.00000000       5.29454545       0.00000000       0.00000000      -0.02015338
2
Properties=species:S:1:pos:R:3:forces:R:3 energy=-2.3572017448805873 pbc="F F F"
S        0.00000000       0.00000000       0.00000000       0.00000000       0.00000000       0.02265129
S        0.00000000       0.00000000       5.35333333       0.00000000       0.00000000      -0.02265129
2
Properties=species:S:1:pos:R:3:forces:R:3 energy=-2.355838948788643 pbc="F F F"
S        0.00000000       0.00000000       0.00000000       0.00000000       0.00000000       0.02345429
S        0.00000000       0.00000000       5.41212121       0.00000000       0.00000000      -0.02345429
2
Properties=species:S:1:pos:R:3:forces:R:3 energy=-2.3544762484977904 pbc="F F F"
S        0.00000000       0.00000000       0.00000000       0.00000000       0.00000000       0.02260160
S        0.00000000       0.00000000       5.47090909       0.00000000       0.00000000      -0.02260160
2
Properties=species:S:1:pos:R:3:forces:R:3 energy=-2.3532060020849075 pbc="F F F"
S        0.00000000       0.00000000       0.00000000       0.00000000       0.00000000       0.02034447
S        0.00000000       0.00000000       5.52969697       0.00000000       0.00000000      -0.02034447
2
Properties=species:S:1:pos:R:3:forces:R:3 energy=-2.3521044135702143 pbc="F F F"
S        0.00000000       0.00000000       0.00000000       0.00000000       0.00000000       0.01710841
S        0.00000000       0.00000000       5.58848485       0.00000000       0.00000000      -0.01710841
2
Properties=species:S:1:pos:R:3:forces:R:3 energy=-2.351205316575027 pbc="F F F"
S        0.00000000       0.00000000       0.00000000       0.00000000       0.00000000       0.01341912
S        0.00000000       0.00000000       5.64727273       0.00000000       0.00000000      -0.01341912
2
Properties=species:S:1:pos:R:3:forces:R:3 energy=-2.3505244732179373 pbc="F F F"
S        0.00000000       0.00000000       0.00000000       0.00000000       0.00000000       0.00980585
S        0.00000000       0.00000000       5.70606061       0.00000000       0.00000000      -0.00980585
2
Properties=species:S:1:pos:R:3:forces:R:3 energy=-2.3500424172825967 pbc="F F F"
S        0.00000000       0.00000000       0.00000000       0.00000000       0.00000000       0.00670861
S        0.00000000       0.00000000       5.76484848       0.00000000       0.00000000      -0.00670861
2
Properties=species:S:1:pos:R:3:forces:R:3 energy=-2.349719240525373 pbc="F F F"
S        0.00000000       0.00000000       0.00000000       0.00000000       0.00000000       0.00441379
S        0.00000000       0.00000000       5.82363636       0.00000000       0.00000000      -0.00441379
2
Properties=species:S:1:pos:R:3:forces:R:3 energy=-2.349505543298925 pbc="F F F"
S        0.00000000       0.00000000       0.00000000       0.00000000       0.00000000       0.00300001
S        0.00000000       0.00000000       5.88242424       0.00000000       0.00000000      -0.00300001
2
Properties=species:S:1:pos:R:3:forces:R:3 energy=-2.3493515011898305 pbc="F F F"
S        0.00000000       0.00000000       0.00000000       0.00000000       0.00000000       0.00233527
S        0.00000000       0.00000000       5.94121212       0.00000000       0.00000000      -0.00233527
2
Properties=species:S:1:pos:R:3:forces:R:3 energy=-2.3492221214317803 pbc="F F F"
S        0.00000000       0.00000000       0.00000000       0.00000000       0.00000000       0.00211222
S        0.00000000       0.00000000       6.00000000       0.00000000       0.00000000      -0.00211222
