2
Properties=species:S:1:pos:R:3:forces:R:3 energy=-16062.746107726729 pbc="F F F"
Sc       0.00000000       0.00000000       0.00000000       0.00000000       0.00000000 -110179.66406250
Sc       0.00000000       0.00000000       0.18000000       0.00000000       0.00000000  110179.66406250
2
Properties=species:S:1:pos:R:3:forces:R:3 energy=-18684.70606866423 pbc="F F F"
Sc       0.00000000       0.00000000       0.00000000       0.00000000       0.00000000  -31252.57031250
Sc       0.00000000       0.00000000       0.23878788       0.00000000       0.00000000   31252.57031250
2
Properties=species:S:1:pos:R:3:forces:R:3 energy=-16023.496107720393 pbc="F F F"
Sc       0.00000000       0.00000000       0.00000000       0.00000000       0.00000000   74284.15625000
Sc       0.00000000       0.00000000       0.29757576       0.00000000       0.00000000  -74284.15625000
2
Properties=species:S:1:pos:R:3:forces:R:3 energy=-10666.287123345393 pbc="F F F"
Sc       0.00000000       0.00000000       0.00000000       0.00000000       0.00000000   67790.91406250
Sc       0.00000000       0.00000000       0.35636364       0.00000000       0.00000000  -67790.91406250
2
Properties=species:S:1:pos:R:3:forces:R:3 energy=-5528.201674123477 pbc="F F F"
Sc       0.00000000       0.00000000       0.00000000       0.00000000       0.00000000   84115.11718750
Sc       0.00000000       0.00000000       0.41515152       0.00000000       0.00000000  -84115.11718750
2
Properties=species:S:1:pos:R:3:forces:R:3 energy=-2228.569838176473 pbc="F F F"
Sc       0.00000000       0.00000000       0.00000000       0.00000000       0.00000000   36990.29296875
Sc       0.00000000       0.00000000       0.47393939       0.00000000       0.00000000  -36990.29296875
2
Properties=species:S:1:pos:R:3:forces:R:3 energy=-758.0316911848097 pbc="F F F"
Sc       0.00000000       0.00000000       0.00000000       0.00000000       0.00000000   16016.08496094
Sc       0.00000000       0.00000000       0.53272727       0.00000000       0.00000000  -16016.08496094
2
Properties=species:S:1:pos:R:3:forces:R:3 energy=-150.0148759707524 pbc="F F F"
Sc       0.00000000       0.00000000       0.00000000       0.00000000       0.00000000    5462.69091797
Sc       0.00000000       0.00000000       0.59151515       0.00000000       0.00000000   -5462.69091797
2
Properties=species:S:1:pos:R:3:forces:R:3 energy=7.152992690961711 pbc="F F F"
Sc       0.00000000       0.00000000       0.00000000       0.00000000       0.00000000     794.14062500
Sc       0.00000000       0.00000000       0.65030303       0.00000000       0.00000000    -794.14062500
2
Properties=species:S:1:pos:R:3:forces:R:3 energy=18.243600416452527 pbc="F F F"
Sc       0.00000000       0.00000000       0.00000000       0.00000000       0.00000000      60.53300476
Sc       0.00000000       0.00000000       0.70909091       0.00000000       0.00000000     -60.53300476
2
Properties=species:S:1:pos:R:3:forces:R:3 energy=21.61179893160516 pbc="F F F"
Sc       0.00000000       0.00000000       0.00000000       0.00000000       0.00000000      89.02069855
Sc       0.00000000       0.00000000       0.76787879       0.00000000       0.00000000     -89.02069855
2
Properties=species:S:1:pos:R:3:forces:R:3 energy=26.912908422968044 pbc="F F F"
Sc       0.00000000       0.00000000       0.00000000       0.00000000       0.00000000      51.41324234
Sc       0.00000000       0.00000000       0.82666667       0.00000000       0.00000000     -51.41324234
2
Properties=species:S:1:pos:R:3:forces:R:3 energy=26.440611011104608 pbc="F F F"
Sc       0.00000000       0.00000000       0.00000000       0.00000000       0.00000000     -17.08320045
Sc       0.00000000       0.00000000       0.88545455       0.00000000       0.00000000      17.08320045
2
Properties=species:S:1:pos:R:3:forces:R:3 energy=25.694818980152494 pbc="F F F"
Sc       0.00000000       0.00000000       0.00000000       0.00000000       0.00000000      -8.86983109
Sc       0.00000000       0.00000000       0.94424242       0.00000000       0.00000000       8.86983109
2
Properties=species:S:1:pos:R:3:forces:R:3 energy=25.3274107155557 pbc="F F F"
Sc       0.00000000       0.00000000       0.00000000       0.00000000       0.00000000     -21.93252563
Sc       0.00000000       0.00000000       1.00303030       0.00000000       0.00000000      21.93252563
2
Properties=species:S:1:pos:R:3:forces:R:3 energy=25.202892032653818 pbc="F F F"
Sc       0.00000000       0.00000000       0.00000000       0.00000000       0.00000000      17.31979370
Sc       0.00000000       0.00000000       1.06181818       0.00000000       0.00000000     -17.31979370
2
Properties=species:S:1:pos:R:3:forces:R:3 energy=24.993954314675563 pbc="F F F"
Sc       0.00000000       0.00000000       0.00000000       0.00000000       0.00000000     -24.93253136
Sc       0.00000000       0.00000000       1.12060606       0.00000000       0.00000000      24.93253136
2
Properties=species:S:1:pos:R:3:forces:R:3 energy=22.507589195790167 pbc="F F F"
Sc       0.00000000       0.00000000       0.00000000       0.00000000       0.00000000     -54.56733704
Sc       0.00000000       0.00000000       1.17939394       0.00000000       0.00000000      54.56733704
2
Properties=species:S:1:pos:R:3:forces:R:3 energy=18.94966832772097 pbc="F F F"
Sc       0.00000000       0.00000000       0.00000000       0.00000000       0.00000000     -57.21945572
Sc       0.00000000       0.00000000       1.23818182       0.00000000       0.00000000      57.21945572
2
Properties=species:S:1:pos:R:3:forces:R:3 energy=15.530462661812894 pbc="F F F"
Sc       0.00000000       0.00000000       0.00000000       0.00000000       0.00000000     -56.98032761
Sc       0.00000000       0.00000000       1.29696970       0.00000000       0.00000000      56.98032761
2
Properties=species:S:1:pos:R:3:forces:R:3 energy=12.542460391245129 pbc="F F F"
Sc       0.00000000       0.00000000       0.00000000       0.00000000       0.00000000     -45.47341156
Sc       0.00000000       0.00000000       1.35575758       0.00000000       0.00000000      45.47341156
2
Properties=species:S:1:pos:R:3:forces:R:3 energy=9.963884470708493 pbc="F F F"
Sc       0.00000000       0.00000000       0.00000000       0.00000000       0.00000000     -42.78391266
Sc       0.00000000       0.00000000       1.41454545       0.00000000       0.00000000      42.78391266
2
Properties=species:S:1:pos:R:3:forces:R:3 energy=7.582231587352688 pbc="F F F"
Sc       0.00000000       0.00000000       0.00000000       0.00000000       0.00000000     -37.03433609
Sc       0.00000000       0.00000000       1.47333333       0.00000000       0.00000000      37.03433609
2
Properties=species:S:1:pos:R:3:forces:R:3 energy=5.621937677332839 pbc="F F F"
Sc       0.00000000       0.00000000       0.00000000       0.00000000       0.00000000     -30.31455231
Sc       0.00000000       0.00000000       1.53212121       0.00000000       0.00000000      30.31455231
2
Properties=species:S:1:pos:R:3:forces:R:3 energy=3.964255203697521 pbc="F F F"
Sc       0.00000000       0.00000000       0.00000000       0.00000000       0.00000000     -26.68543243
Sc       0.00000000       0.00000000       1.59090909       0.00000000       0.00000000      26.68543243
2
Properties=species:S:1:pos:R:3:forces:R:3 energy=2.4659806053253908 pbc="F F F"
Sc       0.00000000       0.00000000       0.00000000       0.00000000       0.00000000     -23.76131248
Sc       0.00000000       0.00000000       1.64969697       0.00000000       0.00000000      23.76131248
2
Properties=species:S:1:pos:R:3:forces:R:3 energy=1.1301296189846521 pbc="F F F"
Sc       0.00000000       0.00000000       0.00000000       0.00000000       0.00000000     -21.96417809
Sc       0.00000000       0.00000000       1.70848485       0.00000000       0.00000000      21.96417809
2
Properties=species:S:1:pos:R:3:forces:R:3 energy=-0.07519224275761167 pbc="F F F"
Sc       0.00000000       0.00000000       0.00000000       0.00000000       0.00000000     -18.91424179
Sc       0.00000000       0.00000000       1.76727273       0.00000000       0.00000000      18.91424179
2
Properties=species:S:1:pos:R:3:forces:R:3 energy=-1.1400302232758261 pbc="F F F"
Sc       0.00000000       0.00000000       0.00000000       0.00000000       0.00000000     -17.49184608
Sc       0.00000000       0.00000000       1.82606061       0.00000000       0.00000000      17.49184608
2
Properties=species:S:1:pos:R:3:forces:R:3 energy=-2.0971123150198037 pbc="F F F"
Sc       0.00000000       0.00000000       0.00000000       0.00000000       0.00000000     -15.06189060
Sc       0.00000000       0.00000000       1.88484848       0.00000000       0.00000000      15.06189060
2
Properties=species:S:1:pos:R:3:forces:R:3 energy=-2.9096006867439477 pbc="F F F"
Sc       0.00000000       0.00000000       0.00000000       0.00000000       0.00000000     -12.41150475
Sc       0.00000000       0.00000000       1.94363636       0.00000000       0.00000000      12.41150475
2
Properties=species:S:1:pos:R:3:forces:R:3 energy=-3.5551686536149663 pbc="F F F"
Sc       0.00000000       0.00000000       0.00000000       0.00000000       0.00000000      -9.65899467
Sc       0.00000000       0.00000000       2.00242424       0.00000000       0.00000000       9.65899467
2
Properties=species:S:1:pos:R:3:forces:R:3 energy=-4.057247933398339 pbc="F F F"
Sc       0.00000000       0.00000000       0.00000000       0.00000000       0.00000000      -7.50166941
Sc       0.00000000       0.00000000       2.06121212       0.00000000       0.00000000       7.50166941
2
Properties=species:S:1:pos:R:3:forces:R:3 energy=-4.44159949667887 pbc="F F F"
Sc       0.00000000       0.00000000       0.00000000       0.00000000       0.00000000      -5.57576180
Sc       0.00000000       0.00000000       2.12000000       0.00000000       0.00000000       5.57576180
2
Properties=species:S:1:pos:R:3:forces:R:3 energy=-4.720685696334266 pbc="F F F"
Sc       0.00000000       0.00000000       0.00000000       0.00000000       0.00000000      -4.05881166
Sc       0.00000000       0.00000000       2.17878788       0.00000000       0.00000000       4.05881166
2
Properties=species:S:1:pos:R:3:forces:R:3 energy=-4.929266848812413 pbc="F F F"
Sc       0.00000000       0.00000000       0.00000000       0.00000000       0.00000000      -3.06802607
Sc       0.00000000       0.00000000       2.23757576       0.00000000       0.00000000       3.06802607
2
Properties=species:S:1:pos:R:3:forces:R:3 energy=-5.086928829166856 pbc="F F F"
Sc       0.00000000       0.00000000       0.00000000       0.00000000       0.00000000      -2.34044647
Sc       0.00000000       0.00000000       2.29636364       0.00000000       0.00000000       2.34044647
2
Properties=species:S:1:pos:R:3:forces:R:3 energy=-5.206871388798899 pbc="F F F"
Sc       0.00000000       0.00000000       0.00000000       0.00000000       0.00000000      -1.76095533
Sc       0.00000000       0.00000000       2.35515152       0.00000000       0.00000000       1.76095533
2
Properties=species:S:1:pos:R:3:forces:R:3 energy=-5.297809902261908 pbc="F F F"
Sc       0.00000000       0.00000000       0.00000000       0.00000000       0.00000000      -1.36142683
Sc       0.00000000       0.00000000       2.41393939       0.00000000       0.00000000       1.36142683
2
Properties=species:S:1:pos:R:3:forces:R:3 energy=-5.370082814473297 pbc="F F F"
Sc       0.00000000       0.00000000       0.00000000       0.00000000       0.00000000      -1.13006914
Sc       0.00000000       0.00000000       2.47272727       0.00000000       0.00000000       1.13006914
2
Properties=species:S:1:pos:R:3:forces:R:3 energy=-5.4330698126094505 pbc="F F F"
Sc       0.00000000       0.00000000       0.00000000       0.00000000       0.00000000      -1.00960910
Sc       0.00000000       0.00000000       2.53151515       0.00000000       0.00000000       1.00960910
2
Properties=species:S:1:pos:R:3:forces:R:3 energy=-5.4875949192182745 pbc="F F F"
Sc       0.00000000       0.00000000       0.00000000       0.00000000       0.00000000      -0.84238952
Sc       0.00000000       0.00000000       2.59030303       0.00000000       0.00000000       0.84238952
2
Properties=species:S:1:pos:R:3:forces:R:3 energy=-5.532694673534125 pbc="F F F"
Sc       0.00000000       0.00000000       0.00000000       0.00000000       0.00000000      -0.69815576
Sc       0.00000000       0.00000000       2.64909091       0.00000000       0.00000000       0.69815576
2
Properties=species:S:1:pos:R:3:forces:R:3 energy=-5.569763584397995 pbc="F F F"
Sc       0.00000000       0.00000000       0.00000000       0.00000000       0.00000000      -0.55787581
Sc       0.00000000       0.00000000       2.70787879       0.00000000       0.00000000       0.55787581
2
Properties=species:S:1:pos:R:3:forces:R:3 energy=-5.597511811154304 pbc="F F F"
Sc       0.00000000       0.00000000       0.00000000       0.00000000       0.00000000      -0.38150752
Sc       0.00000000       0.00000000       2.76666667       0.00000000       0.00000000       0.38150752
2
Properties=species:S:1:pos:R:3:forces:R:3 energy=-5.61459194049315 pbc="F F F"
Sc       0.00000000       0.00000000       0.00000000       0.00000000       0.00000000      -0.20342436
Sc       0.00000000       0.00000000       2.82545455       0.00000000       0.00000000       0.20342436
2
Properties=species:S:1:pos:R:3:forces:R:3 energy=-5.622153063706452 pbc="F F F"
Sc       0.00000000       0.00000000       0.00000000       0.00000000       0.00000000      -0.06091454
Sc       0.00000000       0.00000000       2.88424242       0.00000000       0.00000000       0.06091454
2
Properties=species:S:1:pos:R:3:forces:R:3 energy=-5.622550378612364 pbc="F F F"
Sc       0.00000000       0.00000000       0.00000000       0.00000000       0.00000000       0.04155964
Sc       0.00000000       0.00000000       2.94303030       0.00000000       0.00000000      -0.04155964
2
Properties=species:S:1:pos:R:3:forces:R:3 energy=-5.617810839194862 pbc="F F F"
Sc       0.00000000       0.00000000       0.00000000       0.00000000       0.00000000       0.11594516
Sc       0.00000000       0.00000000       3.00181818       0.00000000       0.00000000      -0.11594516
2
Properties=species:S:1:pos:R:3:forces:R:3 energy=-5.609317935356198 pbc="F F F"
Sc       0.00000000       0.00000000       0.00000000       0.00000000       0.00000000       0.16944362
Sc       0.00000000       0.00000000       3.06060606       0.00000000       0.00000000      -0.16944362
2
Properties=species:S:1:pos:R:3:forces:R:3 energy=-5.598332097716625 pbc="F F F"
Sc       0.00000000       0.00000000       0.00000000       0.00000000       0.00000000       0.20098640
Sc       0.00000000       0.00000000       3.11939394       0.00000000       0.00000000      -0.20098640
2
Properties=species:S:1:pos:R:3:forces:R:3 energy=-5.58584057077761 pbc="F F F"
Sc       0.00000000       0.00000000       0.00000000       0.00000000       0.00000000       0.22541592
Sc       0.00000000       0.00000000       3.17818182       0.00000000       0.00000000      -0.22541592
2
Properties=species:S:1:pos:R:3:forces:R:3 energy=-5.5713585690089955 pbc="F F F"
Sc       0.00000000       0.00000000       0.00000000       0.00000000       0.00000000       0.27274844
Sc       0.00000000       0.00000000       3.23696970       0.00000000       0.00000000      -0.27274844
2
Properties=species:S:1:pos:R:3:forces:R:3 energy=-5.553232655509849 pbc="F F F"
Sc       0.00000000       0.00000000       0.00000000       0.00000000       0.00000000       0.34626257
Sc       0.00000000       0.00000000       3.29575758       0.00000000       0.00000000      -0.34626257
2
Properties=species:S:1:pos:R:3:forces:R:3 energy=-5.530701624360057 pbc="F F F"
Sc       0.00000000       0.00000000       0.00000000       0.00000000       0.00000000       0.41739744
Sc       0.00000000       0.00000000       3.35454545       0.00000000       0.00000000      -0.41739744
2
Properties=species:S:1:pos:R:3:forces:R:3 energy=-5.504608698999575 pbc="F F F"
Sc       0.00000000       0.00000000       0.00000000       0.00000000       0.00000000       0.46633643
Sc       0.00000000       0.00000000       3.41333333       0.00000000       0.00000000      -0.46633643
2
Properties=species:S:1:pos:R:3:forces:R:3 energy=-5.476260139681625 pbc="F F F"
Sc       0.00000000       0.00000000       0.00000000       0.00000000       0.00000000       0.49581587
Sc       0.00000000       0.00000000       3.47212121       0.00000000       0.00000000      -0.49581587
2
Properties=species:S:1:pos:R:3:forces:R:3 energy=-5.4464745518706 pbc="F F F"
Sc       0.00000000       0.00000000       0.00000000       0.00000000       0.00000000       0.51689589
Sc       0.00000000       0.00000000       3.53090909       0.00000000       0.00000000      -0.51689589
2
Properties=species:S:1:pos:R:3:forces:R:3 energy=-5.415489914309388 pbc="F F F"
Sc       0.00000000       0.00000000       0.00000000       0.00000000       0.00000000       0.53745097
Sc       0.00000000       0.00000000       3.58969697       0.00000000       0.00000000      -0.53745097
2
Properties=species:S:1:pos:R:3:forces:R:3 energy=-5.383247758895399 pbc="F F F"
Sc       0.00000000       0.00000000       0.00000000       0.00000000       0.00000000       0.55973279
Sc       0.00000000       0.00000000       3.64848485       0.00000000       0.00000000      -0.55973279
2
Properties=species:S:1:pos:R:3:forces:R:3 energy=-5.349667315274074 pbc="F F F"
Sc       0.00000000       0.00000000       0.00000000       0.00000000       0.00000000       0.58257097
Sc       0.00000000       0.00000000       3.70727273       0.00000000       0.00000000      -0.58257097
2
Properties=species:S:1:pos:R:3:forces:R:3 energy=-5.314780110890229 pbc="F F F"
Sc       0.00000000       0.00000000       0.00000000       0.00000000       0.00000000       0.60389918
Sc       0.00000000       0.00000000       3.76606061       0.00000000       0.00000000      -0.60389918
2
Properties=species:S:1:pos:R:3:forces:R:3 energy=-5.278730836864098 pbc="F F F"
Sc       0.00000000       0.00000000       0.00000000       0.00000000       0.00000000       0.62186503
Sc       0.00000000       0.00000000       3.82484848       0.00000000       0.00000000      -0.62186503
2
Properties=species:S:1:pos:R:3:forces:R:3 energy=-5.24175899817793 pbc="F F F"
Sc       0.00000000       0.00000000       0.00000000       0.00000000       0.00000000       0.63499880
Sc       0.00000000       0.00000000       3.88363636       0.00000000       0.00000000      -0.63499880
2
Properties=species:S:1:pos:R:3:forces:R:3 energy=-5.204186768696246 pbc="F F F"
Sc       0.00000000       0.00000000       0.00000000       0.00000000       0.00000000       0.64227581
Sc       0.00000000       0.00000000       3.94242424       0.00000000       0.00000000      -0.64227581
2
Properties=species:S:1:pos:R:3:forces:R:3 energy=-5.166365160596254 pbc="F F F"
Sc       0.00000000       0.00000000       0.00000000       0.00000000       0.00000000       0.64330369
Sc       0.00000000       0.00000000       4.00121212       0.00000000       0.00000000      -0.64330369
2
Properties=species:S:1:pos:R:3:forces:R:3 energy=-5.128663011099866 pbc="F F F"
Sc       0.00000000       0.00000000       0.00000000       0.00000000       0.00000000       0.63844556
Sc       0.00000000       0.00000000       4.06000000       0.00000000       0.00000000      -0.63844556
2
Properties=species:S:1:pos:R:3:forces:R:3 energy=-5.091395811696044 pbc="F F F"
Sc       0.00000000       0.00000000       0.00000000       0.00000000       0.00000000       0.62866694
Sc       0.00000000       0.00000000       4.11878788       0.00000000       0.00000000      -0.62866694
2
Properties=species:S:1:pos:R:3:forces:R:3 energy=-5.054823838806036 pbc="F F F"
Sc       0.00000000       0.00000000       0.00000000       0.00000000       0.00000000       0.61508560
Sc       0.00000000       0.00000000       4.17757576       0.00000000       0.00000000      -0.61508560
2
Properties=species:S:1:pos:R:3:forces:R:3 energy=-5.019134109999094 pbc="F F F"
Sc       0.00000000       0.00000000       0.00000000       0.00000000       0.00000000       0.59855211
Sc       0.00000000       0.00000000       4.23636364       0.00000000       0.00000000      -0.59855211
2
Properties=species:S:1:pos:R:3:forces:R:3 energy=-4.984494730757223 pbc="F F F"
Sc       0.00000000       0.00000000       0.00000000       0.00000000       0.00000000       0.57947397
Sc       0.00000000       0.00000000       4.29515152       0.00000000       0.00000000      -0.57947397
2
Properties=species:S:1:pos:R:3:forces:R:3 energy=-4.951053050482989 pbc="F F F"
Sc       0.00000000       0.00000000       0.00000000       0.00000000       0.00000000       0.55792385
Sc       0.00000000       0.00000000       4.35393939       0.00000000       0.00000000      -0.55792385
2
Properties=species:S:1:pos:R:3:forces:R:3 energy=-4.918946865836834 pbc="F F F"
Sc       0.00000000       0.00000000       0.00000000       0.00000000       0.00000000       0.53388780
Sc       0.00000000       0.00000000       4.41272727       0.00000000       0.00000000      -0.53388780
2
Properties=species:S:1:pos:R:3:forces:R:3 energy=-4.888326481959237 pbc="F F F"
Sc       0.00000000       0.00000000       0.00000000       0.00000000       0.00000000       0.50748229
Sc       0.00000000       0.00000000       4.47151515       0.00000000       0.00000000      -0.50748229
2
Properties=species:S:1:pos:R:3:forces:R:3 energy=-4.85931911607444 pbc="F F F"
Sc       0.00000000       0.00000000       0.00000000       0.00000000       0.00000000       0.47905177
Sc       0.00000000       0.00000000       4.53030303       0.00000000       0.00000000      -0.47905177
2
Properties=species:S:1:pos:R:3:forces:R:3 energy=-4.832030709804413 pbc="F F F"
Sc       0.00000000       0.00000000       0.00000000       0.00000000       0.00000000       0.44915035
Sc       0.00000000       0.00000000       4.58909091       0.00000000       0.00000000      -0.44915035
2
Properties=species:S:1:pos:R:3:forces:R:3 energy=-4.806522983964464 pbc="F F F"
Sc       0.00000000       0.00000000       0.00000000       0.00000000       0.00000000       0.41850212
Sc       0.00000000       0.00000000       4.64787879       0.00000000       0.00000000      -0.41850212
2
Properties=species:S:1:pos:R:3:forces:R:3 energy=-4.782824534194597 pbc="F F F"
Sc       0.00000000       0.00000000       0.00000000       0.00000000       0.00000000       0.38790983
Sc       0.00000000       0.00000000       4.70666667       0.00000000       0.00000000      -0.38790983
2
Properties=species:S:1:pos:R:3:forces:R:3 energy=-4.760897300302978 pbc="F F F"
Sc       0.00000000       0.00000000       0.00000000       0.00000000       0.00000000       0.35822171
Sc       0.00000000       0.00000000       4.76545455       0.00000000       0.00000000      -0.35822171
2
Properties=species:S:1:pos:R:3:forces:R:3 energy=-4.740671788859197 pbc="F F F"
Sc       0.00000000       0.00000000       0.00000000       0.00000000       0.00000000       0.33025008
Sc       0.00000000       0.00000000       4.82424242       0.00000000       0.00000000      -0.33025008
2
Properties=species:S:1:pos:R:3:forces:R:3 energy=-4.722021941872894 pbc="F F F"
Sc       0.00000000       0.00000000       0.00000000       0.00000000       0.00000000       0.30471337
Sc       0.00000000       0.00000000       4.88303030       0.00000000       0.00000000      -0.30471337
2
Properties=species:S:1:pos:R:3:forces:R:3 energy=-4.704785971908901 pbc="F F F"
Sc       0.00000000       0.00000000       0.00000000       0.00000000       0.00000000       0.28209999
Sc       0.00000000       0.00000000       4.94181818       0.00000000       0.00000000      -0.28209999
2
Properties=species:S:1:pos:R:3:forces:R:3 energy=-4.688791965573968 pbc="F F F"
Sc       0.00000000       0.00000000       0.00000000       0.00000000       0.00000000       0.26260009
Sc       0.00000000       0.00000000       5.00060606       0.00000000       0.00000000      -0.26260009
2
Properties=species:S:1:pos:R:3:forces:R:3 energy=-4.673855919147325 pbc="F F F"
Sc       0.00000000       0.00000000       0.00000000       0.00000000       0.00000000       0.24598853
Sc       0.00000000       0.00000000       5.05939394       0.00000000       0.00000000      -0.24598853
2
Properties=species:S:1:pos:R:3:forces:R:3 energy=-4.6598244131704485 pbc="F F F"
Sc       0.00000000       0.00000000       0.00000000       0.00000000       0.00000000       0.23164275
Sc       0.00000000       0.00000000       5.11818182       0.00000000       0.00000000      -0.23164275
2
Properties=species:S:1:pos:R:3:forces:R:3 energy=-4.646593673262091 pbc="F F F"
Sc       0.00000000       0.00000000       0.00000000       0.00000000       0.00000000       0.21860132
Sc       0.00000000       0.00000000       5.17696970       0.00000000       0.00000000      -0.21860132
2
Properties=species:S:1:pos:R:3:forces:R:3 energy=-4.634120035193187 pbc="F F F"
Sc       0.00000000       0.00000000       0.00000000       0.00000000       0.00000000       0.20574431
Sc       0.00000000       0.00000000       5.23575758       0.00000000       0.00000000      -0.20574431
2
Properties=species:S:1:pos:R:3:forces:R:3 energy=-4.622421744529536 pbc="F F F"
Sc       0.00000000       0.00000000       0.00000000       0.00000000       0.00000000       0.19199987
Sc       0.00000000       0.00000000       5.29454545       0.00000000       0.00000000      -0.19199987
2
Properties=species:S:1:pos:R:3:forces:R:3 energy=-4.611578120166903 pbc="F F F"
Sc       0.00000000       0.00000000       0.00000000       0.00000000       0.00000000       0.17656152
Sc       0.00000000       0.00000000       5.35333333       0.00000000       0.00000000      -0.17656152
2
Properties=species:S:1:pos:R:3:forces:R:3 energy=-4.601703725928918 pbc="F F F"
Sc       0.00000000       0.00000000       0.00000000       0.00000000       0.00000000       0.15907316
Sc       0.00000000       0.00000000       5.41212121       0.00000000       0.00000000      -0.15907316
2
Properties=species:S:1:pos:R:3:forces:R:3 energy=-4.592912162621285 pbc="F F F"
Sc       0.00000000       0.00000000       0.00000000       0.00000000       0.00000000       0.13968900
Sc       0.00000000       0.00000000       5.47090909       0.00000000       0.00000000      -0.13968900
2
Properties=species:S:1:pos:R:3:forces:R:3 energy=-4.585302830632936 pbc="F F F"
Sc       0.00000000       0.00000000       0.00000000       0.00000000       0.00000000       0.11908078
Sc       0.00000000       0.00000000       5.52969697       0.00000000       0.00000000      -0.11908078
2
Properties=species:S:1:pos:R:3:forces:R:3 energy=-4.578914282257913 pbc="F F F"
Sc       0.00000000       0.00000000       0.00000000       0.00000000       0.00000000       0.09829374
Sc       0.00000000       0.00000000       5.58848485       0.00000000       0.00000000      -0.09829374
2
Properties=species:S:1:pos:R:3:forces:R:3 energy=-4.573726091030131 pbc="F F F"
Sc       0.00000000       0.00000000       0.00000000       0.00000000       0.00000000       0.07859938
Sc       0.00000000       0.00000000       5.64727273       0.00000000       0.00000000      -0.07859938
2
Properties=species:S:1:pos:R:3:forces:R:3 energy=-4.569628489368539 pbc="F F F"
Sc       0.00000000       0.00000000       0.00000000       0.00000000       0.00000000       0.06122226
Sc       0.00000000       0.00000000       5.70606061       0.00000000       0.00000000      -0.06122226
2
Properties=species:S:1:pos:R:3:forces:R:3 energy=-4.56645966641359 pbc="F F F"
Sc       0.00000000       0.00000000       0.00000000       0.00000000       0.00000000       0.04715023
Sc       0.00000000       0.00000000       5.76484848       0.00000000       0.00000000      -0.04715023
2
Properties=species:S:1:pos:R:3:forces:R:3 energy=-4.564010571244868 pbc="F F F"
Sc       0.00000000       0.00000000       0.00000000       0.00000000       0.00000000       0.03692857
Sc       0.00000000       0.00000000       5.82363636       0.00000000       0.00000000      -0.03692857
2
Properties=species:S:1:pos:R:3:forces:R:3 energy=-4.562044971719954 pbc="F F F"
Sc       0.00000000       0.00000000       0.00000000       0.00000000       0.00000000       0.03048191
Sc       0.00000000       0.00000000       5.88242424       0.00000000       0.00000000      -0.03048191
2
Properties=species:S:1:pos:R:3:forces:R:3 energy=-4.560362577545167 pbc="F F F"
Sc       0.00000000       0.00000000       0.00000000       0.00000000       0.00000000       0.02708468
Sc       0.00000000       0.00000000       5.94121212       0.00000000       0.00000000      -0.02708468
2
Properties=species:S:1:pos:R:3:forces:R:3 energy=-4.558821893613122 pbc="F F F"
Sc       0.00000000       0.00000000       0.00000000       0.00000000       0.00000000       0.02544594
Sc       0.00000000       0.00000000       6.00000000       0.00000000       0.00000000      -0.02544594
