2
Properties=species:S:1:pos:R:3:forces:R:3 energy=-2406080.799690243 pbc="F F F"
Si       0.00000000       0.00000000       0.00000000       0.00000000       0.00000000 21604554.00000000
Si       0.00000000       0.00000000       0.18000000       0.00000000       0.00000000 -21604554.00000000
2
Properties=species:S:1:pos:R:3:forces:R:3 energy=-1296599.2996902429 pbc="F F F"
Si       0.00000000       0.00000000       0.00000000       0.00000000       0.00000000 15663962.00000000
Si       0.00000000       0.00000000       0.23878788       0.00000000       0.00000000 -15663962.00000000
2
Properties=species:S:1:pos:R:3:forces:R:3 energy=-579094.9246902396 pbc="F F F"
Si       0.00000000       0.00000000       0.00000000       0.00000000       0.00000000 8899537.00000000
Si       0.00000000       0.00000000       0.29757576       0.00000000       0.00000000 -8899537.00000000
2
Properties=species:S:1:pos:R:3:forces:R:3 energy=-212635.2528152333 pbc="F F F"
Si       0.00000000       0.00000000       0.00000000       0.00000000       0.00000000 4003018.00000000
Si       0.00000000       0.00000000       0.35636364       0.00000000       0.00000000 -4003018.00000000
2
Properties=species:S:1:pos:R:3:forces:R:3 energy=-63863.92859647063 pbc="F F F"
Si       0.00000000       0.00000000       0.00000000       0.00000000       0.00000000 1375786.12500000
Si       0.00000000       0.00000000       0.41515152       0.00000000       0.00000000 -1375786.12500000
2
Properties=species:S:1:pos:R:3:forces:R:3 energy=-17823.616096442114 pbc="F F F"
Si       0.00000000       0.00000000       0.00000000       0.00000000       0.00000000  387630.96875000
Si       0.00000000       0.00000000       0.47393939       0.00000000       0.00000000 -387630.96875000
2
Properties=species:S:1:pos:R:3:forces:R:3 energy=-5266.510627641431 pbc="F F F"
Si       0.00000000       0.00000000       0.00000000       0.00000000       0.00000000  105415.21875000
Si       0.00000000       0.00000000       0.53272727       0.00000000       0.00000000 -105415.21875000
2
Properties=species:S:1:pos:R:3:forces:R:3 energy=-1905.7638013808566 pbc="F F F"
Si       0.00000000       0.00000000       0.00000000       0.00000000       0.00000000   29843.12500000
Si       0.00000000       0.00000000       0.59151515       0.00000000       0.00000000  -29843.12500000
2
Properties=species:S:1:pos:R:3:forces:R:3 energy=-80.59836543778546 pbc="F F F"
Si       0.00000000       0.00000000       0.00000000       0.00000000       0.00000000   22432.15234375
Si       0.00000000       0.00000000       0.65030303       0.00000000       0.00000000  -22432.15234375
2
Properties=species:S:1:pos:R:3:forces:R:3 energy=255.79888210791867 pbc="F F F"
Si       0.00000000       0.00000000       0.00000000       0.00000000       0.00000000   -1500.97753906
Si       0.00000000       0.00000000       0.70909091       0.00000000       0.00000000    1500.97753906
2
Properties=species:S:1:pos:R:3:forces:R:3 energy=144.00025270197258 pbc="F F F"
Si       0.00000000       0.00000000       0.00000000       0.00000000       0.00000000   -1555.60815430
Si       0.00000000       0.00000000       0.76787879       0.00000000       0.00000000    1555.60815430
2
Properties=species:S:1:pos:R:3:forces:R:3 energy=80.84123375444838 pbc="F F F"
Si       0.00000000       0.00000000       0.00000000       0.00000000       0.00000000    -624.55914307
Si       0.00000000       0.00000000       0.82666667       0.00000000       0.00000000     624.55914307
2
Properties=species:S:1:pos:R:3:forces:R:3 energy=61.296266850687225 pbc="F F F"
Si       0.00000000       0.00000000       0.00000000       0.00000000       0.00000000     -98.48332977
Si       0.00000000       0.00000000       0.88545455       0.00000000       0.00000000      98.48332977
2
Properties=species:S:1:pos:R:3:forces:R:3 energy=61.484454547911994 pbc="F F F"
Si       0.00000000       0.00000000       0.00000000       0.00000000       0.00000000      26.47059059
Si       0.00000000       0.00000000       0.94424242       0.00000000       0.00000000     -26.47059059
2
Properties=species:S:1:pos:R:3:forces:R:3 energy=57.07087414429436 pbc="F F F"
Si       0.00000000       0.00000000       0.00000000       0.00000000       0.00000000    -155.51614380
Si       0.00000000       0.00000000       1.00303030       0.00000000       0.00000000     155.51614380
2
Properties=species:S:1:pos:R:3:forces:R:3 energy=45.54353233933716 pbc="F F F"
Si       0.00000000       0.00000000       0.00000000       0.00000000       0.00000000    -199.71679688
Si       0.00000000       0.00000000       1.06181818       0.00000000       0.00000000     199.71679688
2
Properties=species:S:1:pos:R:3:forces:R:3 energy=35.69255988765894 pbc="F F F"
Si       0.00000000       0.00000000       0.00000000       0.00000000       0.00000000    -136.94717407
Si       0.00000000       0.00000000       1.12060606       0.00000000       0.00000000     136.94717407
2
Properties=species:S:1:pos:R:3:forces:R:3 energy=28.778649550421996 pbc="F F F"
Si       0.00000000       0.00000000       0.00000000       0.00000000       0.00000000    -106.48561096
Si       0.00000000       0.00000000       1.17939394       0.00000000       0.00000000     106.48561096
2
Properties=species:S:1:pos:R:3:forces:R:3 energy=22.95431692273697 pbc="F F F"
Si       0.00000000       0.00000000       0.00000000       0.00000000       0.00000000     -96.54062653
Si       0.00000000       0.00000000       1.23818182       0.00000000       0.00000000      96.54062653
2
Properties=species:S:1:pos:R:3:forces:R:3 energy=17.337894145034564 pbc="F F F"
Si       0.00000000       0.00000000       0.00000000       0.00000000       0.00000000     -93.51376343
Si       0.00000000       0.00000000       1.29696970       0.00000000       0.00000000      93.51376343
2
Properties=species:S:1:pos:R:3:forces:R:3 energy=12.502943148640014 pbc="F F F"
Si       0.00000000       0.00000000       0.00000000       0.00000000       0.00000000     -72.14151764
Si       0.00000000       0.00000000       1.35575758       0.00000000       0.00000000      72.14151764
2
Properties=species:S:1:pos:R:3:forces:R:3 energy=8.67677442149613 pbc="F F F"
Si       0.00000000       0.00000000       0.00000000       0.00000000       0.00000000     -57.64996338
Si       0.00000000       0.00000000       1.41454545       0.00000000       0.00000000      57.64996338
2
Properties=species:S:1:pos:R:3:forces:R:3 energy=5.654850923568573 pbc="F F F"
Si       0.00000000       0.00000000       0.00000000       0.00000000       0.00000000     -46.27936554
Si       0.00000000       0.00000000       1.47333333       0.00000000       0.00000000      46.27936554
2
Properties=species:S:1:pos:R:3:forces:R:3 energy=3.164549991869144 pbc="F F F"
Si       0.00000000       0.00000000       0.00000000       0.00000000       0.00000000     -38.64144135
Si       0.00000000       0.00000000       1.53212121       0.00000000       0.00000000      38.64144135
2
Properties=species:S:1:pos:R:3:forces:R:3 energy=1.1241708292202863 pbc="F F F"
Si       0.00000000       0.00000000       0.00000000       0.00000000       0.00000000     -30.74179649
Si       0.00000000       0.00000000       1.59090909       0.00000000       0.00000000      30.74179649
2
Properties=species:S:1:pos:R:3:forces:R:3 energy=-0.4779132674633702 pbc="F F F"
Si       0.00000000       0.00000000       0.00000000       0.00000000       0.00000000     -24.09603119
Si       0.00000000       0.00000000       1.64969697       0.00000000       0.00000000      24.09603119
2
Properties=species:S:1:pos:R:3:forces:R:3 energy=-1.7473096985849232 pbc="F F F"
Si       0.00000000       0.00000000       0.00000000       0.00000000       0.00000000     -19.31455994
Si       0.00000000       0.00000000       1.70848485       0.00000000       0.00000000      19.31455994
2
Properties=species:S:1:pos:R:3:forces:R:3 energy=-2.7782780495070427 pbc="F F F"
Si       0.00000000       0.00000000       0.00000000       0.00000000       0.00000000     -16.09599113
Si       0.00000000       0.00000000       1.76727273       0.00000000       0.00000000      16.09599113
2
Properties=species:S:1:pos:R:3:forces:R:3 energy=-3.6397272968998218 pbc="F F F"
Si       0.00000000       0.00000000       0.00000000       0.00000000       0.00000000     -12.89243889
Si       0.00000000       0.00000000       1.82606061       0.00000000       0.00000000      12.89243889
2
Properties=species:S:1:pos:R:3:forces:R:3 energy=-4.285929074233645 pbc="F F F"
Si       0.00000000       0.00000000       0.00000000       0.00000000       0.00000000      -9.26185799
Si       0.00000000       0.00000000       1.88484848       0.00000000       0.00000000       9.26185799
2
Properties=species:S:1:pos:R:3:forces:R:3 energy=-4.746844314935686 pbc="F F F"
Si       0.00000000       0.00000000       0.00000000       0.00000000       0.00000000      -6.49485111
Si       0.00000000       0.00000000       1.94363636       0.00000000       0.00000000       6.49485111
2
Properties=species:S:1:pos:R:3:forces:R:3 energy=-5.0624658489723675 pbc="F F F"
Si       0.00000000       0.00000000       0.00000000       0.00000000       0.00000000      -4.36484623
Si       0.00000000       0.00000000       2.00242424       0.00000000       0.00000000       4.36484623
2
Properties=species:S:1:pos:R:3:forces:R:3 energy=-5.268164208457421 pbc="F F F"
Si       0.00000000       0.00000000       0.00000000       0.00000000       0.00000000      -2.68556190
Si       0.00000000       0.00000000       2.06121212       0.00000000       0.00000000       2.68556190
2
Properties=species:S:1:pos:R:3:forces:R:3 energy=-5.385697596464719 pbc="F F F"
Si       0.00000000       0.00000000       0.00000000       0.00000000       0.00000000      -1.35859823
Si       0.00000000       0.00000000       2.12000000       0.00000000       0.00000000       1.35859823
2
Properties=species:S:1:pos:R:3:forces:R:3 energy=-5.435217819710399 pbc="F F F"
Si       0.00000000       0.00000000       0.00000000       0.00000000       0.00000000      -0.42488313
Si       0.00000000       0.00000000       2.17878788       0.00000000       0.00000000       0.42488313
2
Properties=species:S:1:pos:R:3:forces:R:3 energy=-5.4435178509426505 pbc="F F F"
Si       0.00000000       0.00000000       0.00000000       0.00000000       0.00000000       0.12851703
Si       0.00000000       0.00000000       2.23757576       0.00000000       0.00000000      -0.12851703
2
Properties=species:S:1:pos:R:3:forces:R:3 energy=-5.420656530016367 pbc="F F F"
Si       0.00000000       0.00000000       0.00000000       0.00000000       0.00000000       0.63999081
Si       0.00000000       0.00000000       2.29636364       0.00000000       0.00000000      -0.63999081
2
Properties=species:S:1:pos:R:3:forces:R:3 energy=-5.370828153949571 pbc="F F F"
Si       0.00000000       0.00000000       0.00000000       0.00000000       0.00000000       1.02206659
Si       0.00000000       0.00000000       2.35515152       0.00000000       0.00000000      -1.02206659
2
Properties=species:S:1:pos:R:3:forces:R:3 energy=-5.302535773695231 pbc="F F F"
Si       0.00000000       0.00000000       0.00000000       0.00000000       0.00000000       1.30868769
Si       0.00000000       0.00000000       2.41393939       0.00000000       0.00000000      -1.30868769
2
Properties=species:S:1:pos:R:3:forces:R:3 energy=-5.21554900964776 pbc="F F F"
Si       0.00000000       0.00000000       0.00000000       0.00000000       0.00000000       1.65342307
Si       0.00000000       0.00000000       2.47272727       0.00000000       0.00000000      -1.65342307
2
Properties=species:S:1:pos:R:3:forces:R:3 energy=-5.108854325968845 pbc="F F F"
Si       0.00000000       0.00000000       0.00000000       0.00000000       0.00000000       1.96600080
Si       0.00000000       0.00000000       2.53151515       0.00000000       0.00000000      -1.96600080
2
Properties=species:S:1:pos:R:3:forces:R:3 energy=-4.985817431991157 pbc="F F F"
Si       0.00000000       0.00000000       0.00000000       0.00000000       0.00000000       2.20779753
Si       0.00000000       0.00000000       2.59030303       0.00000000       0.00000000      -2.20779753
2
Properties=species:S:1:pos:R:3:forces:R:3 energy=-4.850416321242729 pbc="F F F"
Si       0.00000000       0.00000000       0.00000000       0.00000000       0.00000000       2.39005494
Si       0.00000000       0.00000000       2.64909091       0.00000000       0.00000000      -2.39005494
2
Properties=species:S:1:pos:R:3:forces:R:3 energy=-4.705994195432499 pbc="F F F"
Si       0.00000000       0.00000000       0.00000000       0.00000000       0.00000000       2.51094699
Si       0.00000000       0.00000000       2.70787879       0.00000000       0.00000000      -2.51094699
2
Properties=species:S:1:pos:R:3:forces:R:3 energy=-4.556768290665435 pbc="F F F"
Si       0.00000000       0.00000000       0.00000000       0.00000000       0.00000000       2.55285764
Si       0.00000000       0.00000000       2.76666667       0.00000000       0.00000000      -2.55285764
2
Properties=species:S:1:pos:R:3:forces:R:3 energy=-4.407157411891938 pbc="F F F"
Si       0.00000000       0.00000000       0.00000000       0.00000000       0.00000000       2.52747154
Si       0.00000000       0.00000000       2.82545455       0.00000000       0.00000000      -2.52747154
2
Properties=species:S:1:pos:R:3:forces:R:3 energy=-4.260598263628245 pbc="F F F"
Si       0.00000000       0.00000000       0.00000000       0.00000000       0.00000000       2.45086384
Si       0.00000000       0.00000000       2.88424242       0.00000000       0.00000000      -2.45086384
2
Properties=species:S:1:pos:R:3:forces:R:3 energy=-4.119776797446544 pbc="F F F"
Si       0.00000000       0.00000000       0.00000000       0.00000000       0.00000000       2.33469367
Si       0.00000000       0.00000000       2.94303030       0.00000000       0.00000000      -2.33469367
2
Properties=species:S:1:pos:R:3:forces:R:3 energy=-3.986515412977152 pbc="F F F"
Si       0.00000000       0.00000000       0.00000000       0.00000000       0.00000000       2.19715118
Si       0.00000000       0.00000000       3.00181818       0.00000000       0.00000000      -2.19715118
2
Properties=species:S:1:pos:R:3:forces:R:3 energy=-3.861475577542546 pbc="F F F"
Si       0.00000000       0.00000000       0.00000000       0.00000000       0.00000000       2.05736971
Si       0.00000000       0.00000000       3.06060606       0.00000000       0.00000000      -2.05736971
2
Properties=species:S:1:pos:R:3:forces:R:3 energy=-3.744545319280159 pbc="F F F"
Si       0.00000000       0.00000000       0.00000000       0.00000000       0.00000000       1.92105079
Si       0.00000000       0.00000000       3.11939394       0.00000000       0.00000000      -1.92105079
2
Properties=species:S:1:pos:R:3:forces:R:3 energy=-3.6355994492434984 pbc="F F F"
Si       0.00000000       0.00000000       0.00000000       0.00000000       0.00000000       1.78523338
Si       0.00000000       0.00000000       3.17818182       0.00000000       0.00000000      -1.78523338
2
Properties=species:S:1:pos:R:3:forces:R:3 energy=-3.5346526263551157 pbc="F F F"
Si       0.00000000       0.00000000       0.00000000       0.00000000       0.00000000       1.64919579
Si       0.00000000       0.00000000       3.23696970       0.00000000       0.00000000      -1.64919579
2
Properties=species:S:1:pos:R:3:forces:R:3 energy=-3.441661001373464 pbc="F F F"
Si       0.00000000       0.00000000       0.00000000       0.00000000       0.00000000       1.51481438
Si       0.00000000       0.00000000       3.29575758       0.00000000       0.00000000      -1.51481438
2
Properties=species:S:1:pos:R:3:forces:R:3 energy=-3.3564700110963703 pbc="F F F"
Si       0.00000000       0.00000000       0.00000000       0.00000000       0.00000000       1.38417768
Si       0.00000000       0.00000000       3.35454545       0.00000000       0.00000000      -1.38417768
2
Properties=species:S:1:pos:R:3:forces:R:3 energy=-3.2788238100865232 pbc="F F F"
Si       0.00000000       0.00000000       0.00000000       0.00000000       0.00000000       1.25822997
Si       0.00000000       0.00000000       3.41333333       0.00000000       0.00000000      -1.25822997
2
Properties=species:S:1:pos:R:3:forces:R:3 energy=-3.2084346858362505 pbc="F F F"
Si       0.00000000       0.00000000       0.00000000       0.00000000       0.00000000       1.13738525
Si       0.00000000       0.00000000       3.47212121       0.00000000       0.00000000      -1.13738525
2
Properties=species:S:1:pos:R:3:forces:R:3 energy=-3.144977254198395 pbc="F F F"
Si       0.00000000       0.00000000       0.00000000       0.00000000       0.00000000       1.02253067
Si       0.00000000       0.00000000       3.53090909       0.00000000       0.00000000      -1.02253067
2
Properties=species:S:1:pos:R:3:forces:R:3 energy=-3.0880746484518258 pbc="F F F"
Si       0.00000000       0.00000000       0.00000000       0.00000000       0.00000000       0.91454893
Si       0.00000000       0.00000000       3.58969697       0.00000000       0.00000000      -0.91454893
2
Properties=species:S:1:pos:R:3:forces:R:3 energy=-3.037306487652937 pbc="F F F"
Si       0.00000000       0.00000000       0.00000000       0.00000000       0.00000000       0.81379741
Si       0.00000000       0.00000000       3.64848485       0.00000000       0.00000000      -0.81379741
2
Properties=species:S:1:pos:R:3:forces:R:3 energy=-2.9922443273121075 pbc="F F F"
Si       0.00000000       0.00000000       0.00000000       0.00000000       0.00000000       0.72056830
Si       0.00000000       0.00000000       3.70727273       0.00000000       0.00000000      -0.72056830
2
Properties=species:S:1:pos:R:3:forces:R:3 energy=-2.9524240852019004 pbc="F F F"
Si       0.00000000       0.00000000       0.00000000       0.00000000       0.00000000       0.63555253
Si       0.00000000       0.00000000       3.76606061       0.00000000       0.00000000      -0.63555253
2
Properties=species:S:1:pos:R:3:forces:R:3 energy=-2.917342201317221 pbc="F F F"
Si       0.00000000       0.00000000       0.00000000       0.00000000       0.00000000       0.55961949
Si       0.00000000       0.00000000       3.82484848       0.00000000       0.00000000      -0.55961949
2
Properties=species:S:1:pos:R:3:forces:R:3 energy=-2.8864403474080333 pbc="F F F"
Si       0.00000000       0.00000000       0.00000000       0.00000000       0.00000000       0.49324375
Si       0.00000000       0.00000000       3.88363636       0.00000000       0.00000000      -0.49324375
2
Properties=species:S:1:pos:R:3:forces:R:3 energy=-2.8591635599309706 pbc="F F F"
Si       0.00000000       0.00000000       0.00000000       0.00000000       0.00000000       0.43618292
Si       0.00000000       0.00000000       3.94242424       0.00000000       0.00000000      -0.43618292
2
Properties=species:S:1:pos:R:3:forces:R:3 energy=-2.834989642394217 pbc="F F F"
Si       0.00000000       0.00000000       0.00000000       0.00000000       0.00000000       0.38754410
Si       0.00000000       0.00000000       4.00121212       0.00000000       0.00000000      -0.38754410
2
Properties=species:S:1:pos:R:3:forces:R:3 energy=-2.8134576298671794 pbc="F F F"
Si       0.00000000       0.00000000       0.00000000       0.00000000       0.00000000       0.34610504
Si       0.00000000       0.00000000       4.06000000       0.00000000       0.00000000      -0.34610504
2
Properties=species:S:1:pos:R:3:forces:R:3 energy=-2.7941772496959207 pbc="F F F"
Si       0.00000000       0.00000000       0.00000000       0.00000000       0.00000000       0.31067154
Si       0.00000000       0.00000000       4.11878788       0.00000000       0.00000000      -0.31067154
2
Properties=species:S:1:pos:R:3:forces:R:3 energy=-2.7768325017815854 pbc="F F F"
Si       0.00000000       0.00000000       0.00000000       0.00000000       0.00000000       0.28031030
Si       0.00000000       0.00000000       4.17757576       0.00000000       0.00000000      -0.28031030
2
Properties=species:S:1:pos:R:3:forces:R:3 energy=-2.7611329103164897 pbc="F F F"
Si       0.00000000       0.00000000       0.00000000       0.00000000       0.00000000       0.25440037
Si       0.00000000       0.00000000       4.23636364       0.00000000       0.00000000      -0.25440037
2
Properties=species:S:1:pos:R:3:forces:R:3 energy=-2.746840093616448 pbc="F F F"
Si       0.00000000       0.00000000       0.00000000       0.00000000       0.00000000       0.23252374
Si       0.00000000       0.00000000       4.29515152       0.00000000       0.00000000      -0.23252374
2
Properties=species:S:1:pos:R:3:forces:R:3 energy=-2.7337228622323506 pbc="F F F"
Si       0.00000000       0.00000000       0.00000000       0.00000000       0.00000000       0.21428414
Si       0.00000000       0.00000000       4.35393939       0.00000000       0.00000000      -0.21428414
2
Properties=species:S:1:pos:R:3:forces:R:3 energy=-2.721584690187742 pbc="F F F"
Si       0.00000000       0.00000000       0.00000000       0.00000000       0.00000000       0.19916737
Si       0.00000000       0.00000000       4.41272727       0.00000000       0.00000000      -0.19916737
2
Properties=species:S:1:pos:R:3:forces:R:3 energy=-2.7102589085933753 pbc="F F F"
Si       0.00000000       0.00000000       0.00000000       0.00000000       0.00000000       0.18651694
Si       0.00000000       0.00000000       4.47151515       0.00000000       0.00000000      -0.18651694
2
Properties=species:S:1:pos:R:3:forces:R:3 energy=-2.6996201830011377 pbc="F F F"
Si       0.00000000       0.00000000       0.00000000       0.00000000       0.00000000       0.17560813
Si       0.00000000       0.00000000       4.53030303       0.00000000       0.00000000      -0.17560813
2
Properties=species:S:1:pos:R:3:forces:R:3 energy=-2.6895891518949293 pbc="F F F"
Si       0.00000000       0.00000000       0.00000000       0.00000000       0.00000000       0.16575997
Si       0.00000000       0.00000000       4.58909091       0.00000000       0.00000000      -0.16575997
2
Properties=species:S:1:pos:R:3:forces:R:3 energy=-2.6801219822066003 pbc="F F F"
Si       0.00000000       0.00000000       0.00000000       0.00000000       0.00000000       0.15645039
Si       0.00000000       0.00000000       4.64787879       0.00000000       0.00000000      -0.15645039
2
Properties=species:S:1:pos:R:3:forces:R:3 energy=-2.6711903991761066 pbc="F F F"
Si       0.00000000       0.00000000       0.00000000       0.00000000       0.00000000       0.14736897
Si       0.00000000       0.00000000       4.70666667       0.00000000       0.00000000      -0.14736897
2
Properties=species:S:1:pos:R:3:forces:R:3 energy=-2.6627921545942344 pbc="F F F"
Si       0.00000000       0.00000000       0.00000000       0.00000000       0.00000000       0.13843857
Si       0.00000000       0.00000000       4.76545455       0.00000000       0.00000000      -0.13843857
2
Properties=species:S:1:pos:R:3:forces:R:3 energy=-2.6549091554156106 pbc="F F F"
Si       0.00000000       0.00000000       0.00000000       0.00000000       0.00000000       0.12977143
Si       0.00000000       0.00000000       4.82424242       0.00000000       0.00000000      -0.12977143
2
Properties=species:S:1:pos:R:3:forces:R:3 energy=-2.647522782736385 pbc="F F F"
Si       0.00000000       0.00000000       0.00000000       0.00000000       0.00000000       0.12160558
Si       0.00000000       0.00000000       4.88303030       0.00000000       0.00000000      -0.12160558
2
Properties=species:S:1:pos:R:3:forces:R:3 energy=-2.64059578782133 pbc="F F F"
Si       0.00000000       0.00000000       0.00000000       0.00000000       0.00000000       0.11420396
Si       0.00000000       0.00000000       4.94181818       0.00000000       0.00000000      -0.11420396
2
Properties=species:S:1:pos:R:3:forces:R:3 energy=-2.6340752513292776 pbc="F F F"
Si       0.00000000       0.00000000       0.00000000       0.00000000       0.00000000       0.10775591
Si       0.00000000       0.00000000       5.00060606       0.00000000       0.00000000      -0.10775591
2
Properties=species:S:1:pos:R:3:forces:R:3 energy=-2.6279050840334492 pbc="F F F"
Si       0.00000000       0.00000000       0.00000000       0.00000000       0.00000000       0.10227977
Si       0.00000000       0.00000000       5.05939394       0.00000000       0.00000000      -0.10227977
2
Properties=species:S:1:pos:R:3:forces:R:3 energy=-2.6220355429737783 pbc="F F F"
Si       0.00000000       0.00000000       0.00000000       0.00000000       0.00000000       0.09758042
Si       0.00000000       0.00000000       5.11818182       0.00000000       0.00000000      -0.09758042
2
Properties=species:S:1:pos:R:3:forces:R:3 energy=-2.616425237008029 pbc="F F F"
Si       0.00000000       0.00000000       0.00000000       0.00000000       0.00000000       0.09325579
Si       0.00000000       0.00000000       5.17696970       0.00000000       0.00000000      -0.09325579
2
Properties=species:S:1:pos:R:3:forces:R:3 energy=-2.6110745766888708 pbc="F F F"
Si       0.00000000       0.00000000       0.00000000       0.00000000       0.00000000       0.08877118
Si       0.00000000       0.00000000       5.23575758       0.00000000       0.00000000      -0.08877118
2
Properties=species:S:1:pos:R:3:forces:R:3 energy=-2.606005751854962 pbc="F F F"
Si       0.00000000       0.00000000       0.00000000       0.00000000       0.00000000       0.08357442
Si       0.00000000       0.00000000       5.29454545       0.00000000       0.00000000      -0.08357442
2
Properties=species:S:1:pos:R:3:forces:R:3 energy=-2.6012713907275344 pbc="F F F"
Si       0.00000000       0.00000000       0.00000000       0.00000000       0.00000000       0.07722670
Si       0.00000000       0.00000000       5.35333333       0.00000000       0.00000000      -0.07722670
2
Properties=species:S:1:pos:R:3:forces:R:3 energy=-2.596949802626187 pbc="F F F"
Si       0.00000000       0.00000000       0.00000000       0.00000000       0.00000000       0.06951941
Si       0.00000000       0.00000000       5.41212121       0.00000000       0.00000000      -0.06951941
2
Properties=species:S:1:pos:R:3:forces:R:3 energy=-2.593122129383066 pbc="F F F"
Si       0.00000000       0.00000000       0.00000000       0.00000000       0.00000000       0.06054008
Si       0.00000000       0.00000000       5.47090909       0.00000000       0.00000000      -0.06054008
2
Properties=species:S:1:pos:R:3:forces:R:3 energy=-2.58984949042141 pbc="F F F"
Si       0.00000000       0.00000000       0.00000000       0.00000000       0.00000000       0.05066008
Si       0.00000000       0.00000000       5.52969697       0.00000000       0.00000000      -0.05066008
2
Properties=species:S:1:pos:R:3:forces:R:3 energy=-2.5871710651114883 pbc="F F F"
Si       0.00000000       0.00000000       0.00000000       0.00000000       0.00000000       0.04047978
Si       0.00000000       0.00000000       5.58848485       0.00000000       0.00000000      -0.04047978
2
Properties=species:S:1:pos:R:3:forces:R:3 energy=-2.5850812719032326 pbc="F F F"
Si       0.00000000       0.00000000       0.00000000       0.00000000       0.00000000       0.03072426
Si       0.00000000       0.00000000       5.64727273       0.00000000       0.00000000      -0.03072426
2
Properties=species:S:1:pos:R:3:forces:R:3 energy=-2.583537359706901 pbc="F F F"
Si       0.00000000       0.00000000       0.00000000       0.00000000       0.00000000       0.02209742
Si       0.00000000       0.00000000       5.70606061       0.00000000       0.00000000      -0.02209742
2
Properties=species:S:1:pos:R:3:forces:R:3 energy=-2.582450853334628 pbc="F F F"
Si       0.00000000       0.00000000       0.00000000       0.00000000       0.00000000       0.01514900
Si       0.00000000       0.00000000       5.76484848       0.00000000       0.00000000      -0.01514900
2
Properties=species:S:1:pos:R:3:forces:R:3 energy=-2.5817162001598746 pbc="F F F"
Si       0.00000000       0.00000000       0.00000000       0.00000000       0.00000000       0.01018902
Si       0.00000000       0.00000000       5.82363636       0.00000000       0.00000000      -0.01018902
2
Properties=species:S:1:pos:R:3:forces:R:3 energy=-2.581214538881271 pbc="F F F"
Si       0.00000000       0.00000000       0.00000000       0.00000000       0.00000000       0.00718650
Si       0.00000000       0.00000000       5.88242424       0.00000000       0.00000000      -0.00718650
2
Properties=species:S:1:pos:R:3:forces:R:3 energy=-2.580840436061585 pbc="F F F"
Si       0.00000000       0.00000000       0.00000000       0.00000000       0.00000000       0.00576793
Si       0.00000000       0.00000000       5.94121212       0.00000000       0.00000000      -0.00576793
2
Properties=species:S:1:pos:R:3:forces:R:3 energy=-2.580518102946859 pbc="F F F"
Si       0.00000000       0.00000000       0.00000000       0.00000000       0.00000000       0.00526128
Si       0.00000000       0.00000000       6.00000000       0.00000000       0.00000000      -0.00526128
