2
Properties=species:S:1:pos:R:3:forces:R:3 energy=-59331368.0916397 pbc="F F F"
Sr       0.00000000       0.00000000       0.00000000       0.00000000       0.00000000 653171520.00000000
Sr       0.00000000       0.00000000       0.18000000       0.00000000       0.00000000 -653171520.00000000
2
Properties=species:S:1:pos:R:3:forces:R:3 energy=-27020010.091639698 pbc="F F F"
Sr       0.00000000       0.00000000       0.00000000       0.00000000       0.00000000 431900800.00000000
Sr       0.00000000       0.00000000       0.23878788       0.00000000       0.00000000 -431900800.00000000
2
Properties=species:S:1:pos:R:3:forces:R:3 energy=-8741252.091639698 pbc="F F F"
Sr       0.00000000       0.00000000       0.00000000       0.00000000       0.00000000 199397488.00000000
Sr       0.00000000       0.00000000       0.29757576       0.00000000       0.00000000 -199397488.00000000
2
Properties=species:S:1:pos:R:3:forces:R:3 energy=-1737645.2166396969 pbc="F F F"
Sr       0.00000000       0.00000000       0.00000000       0.00000000       0.00000000 55755648.00000000
Sr       0.00000000       0.00000000       0.35636364       0.00000000       0.00000000 -55755648.00000000
2
Properties=species:S:1:pos:R:3:forces:R:3 energy=-177611.74788969677 pbc="F F F"
Sr       0.00000000       0.00000000       0.00000000       0.00000000       0.00000000 9099767.00000000
Sr       0.00000000       0.00000000       0.41515152       0.00000000       0.00000000 -9099767.00000000
2
Properties=species:S:1:pos:R:3:forces:R:3 energy=-137.36234586085786 pbc="F F F"
Sr       0.00000000       0.00000000       0.00000000       0.00000000       0.00000000   74873.13281250
Sr       0.00000000       0.00000000       0.47393939       0.00000000       0.00000000  -74873.13281250
2
Properties=species:S:1:pos:R:3:forces:R:3 energy=1151.6377304457587 pbc="F F F"
Sr       0.00000000       0.00000000       0.00000000       0.00000000       0.00000000     901.29614258
Sr       0.00000000       0.00000000       0.53272727       0.00000000       0.00000000    -901.29614258
2
Properties=species:S:1:pos:R:3:forces:R:3 energy=881.8692978412425 pbc="F F F"
Sr       0.00000000       0.00000000       0.00000000       0.00000000       0.00000000   -7651.70312500
Sr       0.00000000       0.00000000       0.59151515       0.00000000       0.00000000    7651.70312500
2
Properties=species:S:1:pos:R:3:forces:R:3 energy=422.0775498323814 pbc="F F F"
Sr       0.00000000       0.00000000       0.00000000       0.00000000       0.00000000   -6543.26757812
Sr       0.00000000       0.00000000       0.65030303       0.00000000       0.00000000    6543.26757812
2
Properties=species:S:1:pos:R:3:forces:R:3 energy=194.06102462084752 pbc="F F F"
Sr       0.00000000       0.00000000       0.00000000       0.00000000       0.00000000   -2288.60009766
Sr       0.00000000       0.00000000       0.70909091       0.00000000       0.00000000    2288.60009766
2
Properties=species:S:1:pos:R:3:forces:R:3 energy=102.6441088096562 pbc="F F F"
Sr       0.00000000       0.00000000       0.00000000       0.00000000       0.00000000    -848.87036133
Sr       0.00000000       0.00000000       0.76787879       0.00000000       0.00000000     848.87036133
2
Properties=species:S:1:pos:R:3:forces:R:3 energy=74.00224796178374 pbc="F F F"
Sr       0.00000000       0.00000000       0.00000000       0.00000000       0.00000000    -239.98831177
Sr       0.00000000       0.00000000       0.82666667       0.00000000       0.00000000     239.98831177
2
Properties=species:S:1:pos:R:3:forces:R:3 energy=62.68682988943794 pbc="F F F"
Sr       0.00000000       0.00000000       0.00000000       0.00000000       0.00000000     -98.48089600
Sr       0.00000000       0.00000000       0.88545455       0.00000000       0.00000000      98.48089600
2
Properties=species:S:1:pos:R:3:forces:R:3 energy=58.25496825908666 pbc="F F F"
Sr       0.00000000       0.00000000       0.00000000       0.00000000       0.00000000     -65.61380768
Sr       0.00000000       0.00000000       0.94424242       0.00000000       0.00000000      65.61380768
2
Properties=species:S:1:pos:R:3:forces:R:3 energy=60.825227670107154 pbc="F F F"
Sr       0.00000000       0.00000000       0.00000000       0.00000000       0.00000000     118.19745636
Sr       0.00000000       0.00000000       1.00303030       0.00000000       0.00000000    -118.19745636
2
Properties=species:S:1:pos:R:3:forces:R:3 energy=65.2465423531042 pbc="F F F"
Sr       0.00000000       0.00000000       0.00000000       0.00000000       0.00000000      20.69495583
Sr       0.00000000       0.00000000       1.06181818       0.00000000       0.00000000     -20.69495583
2
Properties=species:S:1:pos:R:3:forces:R:3 energy=62.38070965351278 pbc="F F F"
Sr       0.00000000       0.00000000       0.00000000       0.00000000       0.00000000    -107.24919891
Sr       0.00000000       0.00000000       1.12060606       0.00000000       0.00000000     107.24919891
2
Properties=species:S:1:pos:R:3:forces:R:3 energy=62.406070540218906 pbc="F F F"
Sr       0.00000000       0.00000000       0.00000000       0.00000000       0.00000000      10.75189495
Sr       0.00000000       0.00000000       1.17939394       0.00000000       0.00000000     -10.75189495
2
Properties=species:S:1:pos:R:3:forces:R:3 energy=60.8011749895049 pbc="F F F"
Sr       0.00000000       0.00000000       0.00000000       0.00000000       0.00000000     -61.50779343
Sr       0.00000000       0.00000000       1.23818182       0.00000000       0.00000000      61.50779343
2
Properties=species:S:1:pos:R:3:forces:R:3 energy=55.095518297649384 pbc="F F F"
Sr       0.00000000       0.00000000       0.00000000       0.00000000       0.00000000    -127.22908020
Sr       0.00000000       0.00000000       1.29696970       0.00000000       0.00000000     127.22908020
2
Properties=species:S:1:pos:R:3:forces:R:3 energy=47.5499304662172 pbc="F F F"
Sr       0.00000000       0.00000000       0.00000000       0.00000000       0.00000000    -125.80552673
Sr       0.00000000       0.00000000       1.35575758       0.00000000       0.00000000     125.80552673
2
Properties=species:S:1:pos:R:3:forces:R:3 energy=40.19541741160413 pbc="F F F"
Sr       0.00000000       0.00000000       0.00000000       0.00000000       0.00000000    -122.35964203
Sr       0.00000000       0.00000000       1.41454545       0.00000000       0.00000000     122.35964203
2
Properties=species:S:1:pos:R:3:forces:R:3 energy=33.554638505260094 pbc="F F F"
Sr       0.00000000       0.00000000       0.00000000       0.00000000       0.00000000    -101.54901123
Sr       0.00000000       0.00000000       1.47333333       0.00000000       0.00000000     101.54901123
2
Properties=species:S:1:pos:R:3:forces:R:3 energy=28.340526454232247 pbc="F F F"
Sr       0.00000000       0.00000000       0.00000000       0.00000000       0.00000000     -77.11519623
Sr       0.00000000       0.00000000       1.53212121       0.00000000       0.00000000      77.11519623
2
Properties=species:S:1:pos:R:3:forces:R:3 energy=24.267192675344607 pbc="F F F"
Sr       0.00000000       0.00000000       0.00000000       0.00000000       0.00000000     -63.03076553
Sr       0.00000000       0.00000000       1.59090909       0.00000000       0.00000000      63.03076553
2
Properties=species:S:1:pos:R:3:forces:R:3 energy=20.904589300082815 pbc="F F F"
Sr       0.00000000       0.00000000       0.00000000       0.00000000       0.00000000     -50.84276962
Sr       0.00000000       0.00000000       1.64969697       0.00000000       0.00000000      50.84276962
2
Properties=species:S:1:pos:R:3:forces:R:3 energy=18.184772901168643 pbc="F F F"
Sr       0.00000000       0.00000000       0.00000000       0.00000000       0.00000000     -42.58120346
Sr       0.00000000       0.00000000       1.70848485       0.00000000       0.00000000      42.58120346
2
Properties=species:S:1:pos:R:3:forces:R:3 energy=15.938062081585292 pbc="F F F"
Sr       0.00000000       0.00000000       0.00000000       0.00000000       0.00000000     -33.87837601
Sr       0.00000000       0.00000000       1.76727273       0.00000000       0.00000000      33.87837601
2
Properties=species:S:1:pos:R:3:forces:R:3 energy=14.180072481987635 pbc="F F F"
Sr       0.00000000       0.00000000       0.00000000       0.00000000       0.00000000     -25.76816750
Sr       0.00000000       0.00000000       1.82606061       0.00000000       0.00000000      25.76816750
2
Properties=species:S:1:pos:R:3:forces:R:3 energy=12.802339104078497 pbc="F F F"
Sr       0.00000000       0.00000000       0.00000000       0.00000000       0.00000000     -21.59110832
Sr       0.00000000       0.00000000       1.88484848       0.00000000       0.00000000      21.59110832
2
Properties=species:S:1:pos:R:3:forces:R:3 energy=11.57862011684703 pbc="F F F"
Sr       0.00000000       0.00000000       0.00000000       0.00000000       0.00000000     -20.51873207
Sr       0.00000000       0.00000000       1.94363636       0.00000000       0.00000000      20.51873207
2
Properties=species:S:1:pos:R:3:forces:R:3 energy=10.372732976013538 pbc="F F F"
Sr       0.00000000       0.00000000       0.00000000       0.00000000       0.00000000     -20.41167450
Sr       0.00000000       0.00000000       2.00242424       0.00000000       0.00000000      20.41167450
2
Properties=species:S:1:pos:R:3:forces:R:3 energy=9.179892416290997 pbc="F F F"
Sr       0.00000000       0.00000000       0.00000000       0.00000000       0.00000000     -20.23161316
Sr       0.00000000       0.00000000       2.06121212       0.00000000       0.00000000      20.23161316
2
Properties=species:S:1:pos:R:3:forces:R:3 energy=8.009639305987308 pbc="F F F"
Sr       0.00000000       0.00000000       0.00000000       0.00000000       0.00000000     -19.32879066
Sr       0.00000000       0.00000000       2.12000000       0.00000000       0.00000000      19.32879066
2
Properties=species:S:1:pos:R:3:forces:R:3 energy=6.918467765389469 pbc="F F F"
Sr       0.00000000       0.00000000       0.00000000       0.00000000       0.00000000     -17.83796692
Sr       0.00000000       0.00000000       2.17878788       0.00000000       0.00000000      17.83796692
2
Properties=species:S:1:pos:R:3:forces:R:3 energy=5.917563776343756 pbc="F F F"
Sr       0.00000000       0.00000000       0.00000000       0.00000000       0.00000000     -16.08441734
Sr       0.00000000       0.00000000       2.23757576       0.00000000       0.00000000      16.08441734
2
Properties=species:S:1:pos:R:3:forces:R:3 energy=5.035105043697808 pbc="F F F"
Sr       0.00000000       0.00000000       0.00000000       0.00000000       0.00000000     -13.93058205
Sr       0.00000000       0.00000000       2.29636364       0.00000000       0.00000000      13.93058205
2
Properties=species:S:1:pos:R:3:forces:R:3 energy=4.276295270688328 pbc="F F F"
Sr       0.00000000       0.00000000       0.00000000       0.00000000       0.00000000     -11.95258045
Sr       0.00000000       0.00000000       2.35515152       0.00000000       0.00000000      11.95258045
2
Properties=species:S:1:pos:R:3:forces:R:3 energy=3.6216361390936176 pbc="F F F"
Sr       0.00000000       0.00000000       0.00000000       0.00000000       0.00000000     -10.36330223
Sr       0.00000000       0.00000000       2.41393939       0.00000000       0.00000000      10.36330223
2
Properties=species:S:1:pos:R:3:forces:R:3 energy=3.0542300005528173 pbc="F F F"
Sr       0.00000000       0.00000000       0.00000000       0.00000000       0.00000000      -8.96447086
Sr       0.00000000       0.00000000       2.47272727       0.00000000       0.00000000       8.96447086
2
Properties=species:S:1:pos:R:3:forces:R:3 energy=2.566495771479283 pbc="F F F"
Sr       0.00000000       0.00000000       0.00000000       0.00000000       0.00000000      -7.63509893
Sr       0.00000000       0.00000000       2.53151515       0.00000000       0.00000000       7.63509893
2
Properties=species:S:1:pos:R:3:forces:R:3 energy=2.1527758786974074 pbc="F F F"
Sr       0.00000000       0.00000000       0.00000000       0.00000000       0.00000000      -6.49589825
Sr       0.00000000       0.00000000       2.59030303       0.00000000       0.00000000       6.49589825
2
Properties=species:S:1:pos:R:3:forces:R:3 energy=1.795995493164098 pbc="F F F"
Sr       0.00000000       0.00000000       0.00000000       0.00000000       0.00000000      -5.68891954
Sr       0.00000000       0.00000000       2.64909091       0.00000000       0.00000000       5.68891954
2
Properties=species:S:1:pos:R:3:forces:R:3 energy=1.4801955531082354 pbc="F F F"
Sr       0.00000000       0.00000000       0.00000000       0.00000000       0.00000000      -5.07212925
Sr       0.00000000       0.00000000       2.70787879       0.00000000       0.00000000       5.07212925
2
Properties=species:S:1:pos:R:3:forces:R:3 energy=1.198597097406649 pbc="F F F"
Sr       0.00000000       0.00000000       0.00000000       0.00000000       0.00000000      -4.51295328
Sr       0.00000000       0.00000000       2.76666667       0.00000000       0.00000000       4.51295328
2
Properties=species:S:1:pos:R:3:forces:R:3 energy=0.948947303241832 pbc="F F F"
Sr       0.00000000       0.00000000       0.00000000       0.00000000       0.00000000      -3.98720908
Sr       0.00000000       0.00000000       2.82545455       0.00000000       0.00000000       3.98720908
2
Properties=species:S:1:pos:R:3:forces:R:3 energy=0.7287730300222546 pbc="F F F"
Sr       0.00000000       0.00000000       0.00000000       0.00000000       0.00000000      -3.51349115
Sr       0.00000000       0.00000000       2.88424242       0.00000000       0.00000000       3.51349115
2
Properties=species:S:1:pos:R:3:forces:R:3 energy=0.5345596994602947 pbc="F F F"
Sr       0.00000000       0.00000000       0.00000000       0.00000000       0.00000000      -3.10465956
Sr       0.00000000       0.00000000       2.94303030       0.00000000       0.00000000       3.10465956
2
Properties=species:S:1:pos:R:3:forces:R:3 energy=0.3625788694669715 pbc="F F F"
Sr       0.00000000       0.00000000       0.00000000       0.00000000       0.00000000      -2.75475383
Sr       0.00000000       0.00000000       3.00181818       0.00000000       0.00000000       2.75475383
2
Properties=species:S:1:pos:R:3:forces:R:3 energy=0.20984971526092394 pbc="F F F"
Sr       0.00000000       0.00000000       0.00000000       0.00000000       0.00000000      -2.44701433
Sr       0.00000000       0.00000000       3.06060606       0.00000000       0.00000000       2.44701433
2
Properties=species:S:1:pos:R:3:forces:R:3 energy=0.07423709309624876 pbc="F F F"
Sr       0.00000000       0.00000000       0.00000000       0.00000000       0.00000000      -2.17177939
Sr       0.00000000       0.00000000       3.11939394       0.00000000       0.00000000       2.17177939
2
Properties=species:S:1:pos:R:3:forces:R:3 energy=-0.04612288212254688 pbc="F F F"
Sr       0.00000000       0.00000000       0.00000000       0.00000000       0.00000000      -1.92825866
Sr       0.00000000       0.00000000       3.17818182       0.00000000       0.00000000       1.92825866
2
Properties=species:S:1:pos:R:3:forces:R:3 energy=-0.15308293650315213 pbc="F F F"
Sr       0.00000000       0.00000000       0.00000000       0.00000000       0.00000000      -1.71531379
Sr       0.00000000       0.00000000       3.23696970       0.00000000       0.00000000       1.71531379
2
Properties=species:S:1:pos:R:3:forces:R:3 energy=-0.24828194169551454 pbc="F F F"
Sr       0.00000000       0.00000000       0.00000000       0.00000000       0.00000000      -1.52688718
Sr       0.00000000       0.00000000       3.29575758       0.00000000       0.00000000       1.52688718
2
Properties=species:S:1:pos:R:3:forces:R:3 energy=-0.3329493609718223 pbc="F F F"
Sr       0.00000000       0.00000000       0.00000000       0.00000000       0.00000000      -1.35611880
Sr       0.00000000       0.00000000       3.35454545       0.00000000       0.00000000       1.35611880
2
Properties=species:S:1:pos:R:3:forces:R:3 energy=-0.40799986572444596 pbc="F F F"
Sr       0.00000000       0.00000000       0.00000000       0.00000000       0.00000000      -1.19919610
Sr       0.00000000       0.00000000       3.41333333       0.00000000       0.00000000       1.19919610
2
Properties=species:S:1:pos:R:3:forces:R:3 energy=-0.4741687255406467 pbc="F F F"
Sr       0.00000000       0.00000000       0.00000000       0.00000000       0.00000000      -1.05364239
Sr       0.00000000       0.00000000       3.47212121       0.00000000       0.00000000       1.05364239
2
Properties=species:S:1:pos:R:3:forces:R:3 energy=-0.5320490268434932 pbc="F F F"
Sr       0.00000000       0.00000000       0.00000000       0.00000000       0.00000000      -0.91663259
Sr       0.00000000       0.00000000       3.53090909       0.00000000       0.00000000       0.91663259
2
Properties=species:S:1:pos:R:3:forces:R:3 energy=-0.5820751753244895 pbc="F F F"
Sr       0.00000000       0.00000000       0.00000000       0.00000000       0.00000000      -0.78636289
Sr       0.00000000       0.00000000       3.58969697       0.00000000       0.00000000       0.78636289
2
Properties=species:S:1:pos:R:3:forces:R:3 energy=-0.6246447381728807 pbc="F F F"
Sr       0.00000000       0.00000000       0.00000000       0.00000000       0.00000000      -0.66319942
Sr       0.00000000       0.00000000       3.64848485       0.00000000       0.00000000       0.66319942
2
Properties=species:S:1:pos:R:3:forces:R:3 energy=-0.6602218370394424 pbc="F F F"
Sr       0.00000000       0.00000000       0.00000000       0.00000000       0.00000000      -0.54880464
Sr       0.00000000       0.00000000       3.70727273       0.00000000       0.00000000       0.54880464
2
Properties=species:S:1:pos:R:3:forces:R:3 energy=-0.6893691041255613 pbc="F F F"
Sr       0.00000000       0.00000000       0.00000000       0.00000000       0.00000000      -0.44446734
Sr       0.00000000       0.00000000       3.76606061       0.00000000       0.00000000       0.44446734
2
Properties=species:S:1:pos:R:3:forces:R:3 energy=-0.7126772876818613 pbc="F F F"
Sr       0.00000000       0.00000000       0.00000000       0.00000000       0.00000000      -0.35011280
Sr       0.00000000       0.00000000       3.82484848       0.00000000       0.00000000       0.35011280
2
Properties=species:S:1:pos:R:3:forces:R:3 energy=-0.7307032091648105 pbc="F F F"
Sr       0.00000000       0.00000000       0.00000000       0.00000000       0.00000000      -0.26440090
Sr       0.00000000       0.00000000       3.88363636       0.00000000       0.00000000       0.26440090
2
Properties=species:S:1:pos:R:3:forces:R:3 energy=-0.7438986585037868 pbc="F F F"
Sr       0.00000000       0.00000000       0.00000000       0.00000000       0.00000000      -0.18556155
Sr       0.00000000       0.00000000       3.94242424       0.00000000       0.00000000       0.18556155
2
Properties=species:S:1:pos:R:3:forces:R:3 energy=-0.7526304329739122 pbc="F F F"
Sr       0.00000000       0.00000000       0.00000000       0.00000000       0.00000000      -0.11227766
Sr       0.00000000       0.00000000       4.00121212       0.00000000       0.00000000       0.11227766
2
Properties=species:S:1:pos:R:3:forces:R:3 energy=-0.7572014464730723 pbc="F F F"
Sr       0.00000000       0.00000000       0.00000000       0.00000000       0.00000000      -0.04419013
Sr       0.00000000       0.00000000       4.06000000       0.00000000       0.00000000       0.04419013
2
Properties=species:S:1:pos:R:3:forces:R:3 energy=-0.7579380951654864 pbc="F F F"
Sr       0.00000000       0.00000000       0.00000000       0.00000000       0.00000000       0.01808094
Sr       0.00000000       0.00000000       4.11878788       0.00000000       0.00000000      -0.01808094
2
Properties=species:S:1:pos:R:3:forces:R:3 energy=-0.7552142851221747 pbc="F F F"
Sr       0.00000000       0.00000000       0.00000000       0.00000000       0.00000000       0.07330422
Sr       0.00000000       0.00000000       4.17757576       0.00000000       0.00000000      -0.07330422
2
Properties=species:S:1:pos:R:3:forces:R:3 energy=-0.749480940163068 pbc="F F F"
Sr       0.00000000       0.00000000       0.00000000       0.00000000       0.00000000       0.12033339
Sr       0.00000000       0.00000000       4.23636364       0.00000000       0.00000000      -0.12033339
2
Properties=species:S:1:pos:R:3:forces:R:3 energy=-0.7412291404390943 pbc="F F F"
Sr       0.00000000       0.00000000       0.00000000       0.00000000       0.00000000       0.15904215
Sr       0.00000000       0.00000000       4.29515152       0.00000000       0.00000000      -0.15904215
2
Properties=species:S:1:pos:R:3:forces:R:3 energy=-0.7309108715868546 pbc="F F F"
Sr       0.00000000       0.00000000       0.00000000       0.00000000       0.00000000       0.19116336
Sr       0.00000000       0.00000000       4.35393939       0.00000000       0.00000000      -0.19116336
2
Properties=species:S:1:pos:R:3:forces:R:3 energy=-0.7188165316431553 pbc="F F F"
Sr       0.00000000       0.00000000       0.00000000       0.00000000       0.00000000       0.22012563
Sr       0.00000000       0.00000000       4.41272727       0.00000000       0.00000000      -0.22012563
2
Properties=species:S:1:pos:R:3:forces:R:3 energy=-0.7050252437254421 pbc="F F F"
Sr       0.00000000       0.00000000       0.00000000       0.00000000       0.00000000       0.24927962
Sr       0.00000000       0.00000000       4.47151515       0.00000000       0.00000000      -0.24927962
2
Properties=species:S:1:pos:R:3:forces:R:3 energy=-0.6894786444036163 pbc="F F F"
Sr       0.00000000       0.00000000       0.00000000       0.00000000       0.00000000       0.27962828
Sr       0.00000000       0.00000000       4.53030303       0.00000000       0.00000000      -0.27962828
2
Properties=species:S:1:pos:R:3:forces:R:3 energy=-0.6721565887138204 pbc="F F F"
Sr       0.00000000       0.00000000       0.00000000       0.00000000       0.00000000       0.30945325
Sr       0.00000000       0.00000000       4.58909091       0.00000000       0.00000000      -0.30945325
2
Properties=species:S:1:pos:R:3:forces:R:3 energy=-0.6531605290972197 pbc="F F F"
Sr       0.00000000       0.00000000       0.00000000       0.00000000       0.00000000       0.33608931
Sr       0.00000000       0.00000000       4.64787879       0.00000000       0.00000000      -0.33608931
2
Properties=species:S:1:pos:R:3:forces:R:3 energy=-0.6327387683774166 pbc="F F F"
Sr       0.00000000       0.00000000       0.00000000       0.00000000       0.00000000       0.35769683
Sr       0.00000000       0.00000000       4.70666667       0.00000000       0.00000000      -0.35769683
2
Properties=species:S:1:pos:R:3:forces:R:3 energy=-0.6112137265639344 pbc="F F F"
Sr       0.00000000       0.00000000       0.00000000       0.00000000       0.00000000       0.37379944
Sr       0.00000000       0.00000000       4.76545455       0.00000000       0.00000000      -0.37379944
2
Properties=species:S:1:pos:R:3:forces:R:3 energy=-0.5888878807288755 pbc="F F F"
Sr       0.00000000       0.00000000       0.00000000       0.00000000       0.00000000       0.38491872
Sr       0.00000000       0.00000000       4.82424242       0.00000000       0.00000000      -0.38491872
2
Properties=species:S:1:pos:R:3:forces:R:3 energy=-0.5660344564053029 pbc="F F F"
Sr       0.00000000       0.00000000       0.00000000       0.00000000       0.00000000       0.39202029
Sr       0.00000000       0.00000000       4.88303030       0.00000000       0.00000000      -0.39202029
2
Properties=species:S:1:pos:R:3:forces:R:3 energy=-0.5428554394849668 pbc="F F F"
Sr       0.00000000       0.00000000       0.00000000       0.00000000       0.00000000       0.39603707
Sr       0.00000000       0.00000000       4.94181818       0.00000000       0.00000000      -0.39603707
2
Properties=species:S:1:pos:R:3:forces:R:3 energy=-0.5195191369840141 pbc="F F F"
Sr       0.00000000       0.00000000       0.00000000       0.00000000       0.00000000       0.39756304
Sr       0.00000000       0.00000000       5.00060606       0.00000000       0.00000000      -0.39756304
2
Properties=species:S:1:pos:R:3:forces:R:3 energy=-0.4961591687164458 pbc="F F F"
Sr       0.00000000       0.00000000       0.00000000       0.00000000       0.00000000       0.39663306
Sr       0.00000000       0.00000000       5.05939394       0.00000000       0.00000000      -0.39663306
2
Properties=species:S:1:pos:R:3:forces:R:3 energy=-0.4729404379172737 pbc="F F F"
Sr       0.00000000       0.00000000       0.00000000       0.00000000       0.00000000       0.39268252
Sr       0.00000000       0.00000000       5.11818182       0.00000000       0.00000000      -0.39268252
2
Properties=species:S:1:pos:R:3:forces:R:3 energy=-0.45007102452566294 pbc="F F F"
Sr       0.00000000       0.00000000       0.00000000       0.00000000       0.00000000       0.38469207
Sr       0.00000000       0.00000000       5.17696970       0.00000000       0.00000000      -0.38469207
2
Properties=species:S:1:pos:R:3:forces:R:3 energy=-0.4278146616670488 pbc="F F F"
Sr       0.00000000       0.00000000       0.00000000       0.00000000       0.00000000       0.37144443
Sr       0.00000000       0.00000000       5.23575758       0.00000000       0.00000000      -0.37144443
2
Properties=species:S:1:pos:R:3:forces:R:3 energy=-0.40652047029964217 pbc="F F F"
Sr       0.00000000       0.00000000       0.00000000       0.00000000       0.00000000       0.35190716
Sr       0.00000000       0.00000000       5.29454545       0.00000000       0.00000000      -0.35190716
2
Properties=species:S:1:pos:R:3:forces:R:3 energy=-0.38657193898263775 pbc="F F F"
Sr       0.00000000       0.00000000       0.00000000       0.00000000       0.00000000       0.32559422
Sr       0.00000000       0.00000000       5.35333333       0.00000000       0.00000000      -0.32559422
2
Properties=species:S:1:pos:R:3:forces:R:3 energy=-0.36836777737012666 pbc="F F F"
Sr       0.00000000       0.00000000       0.00000000       0.00000000       0.00000000       0.29285634
Sr       0.00000000       0.00000000       5.41212121       0.00000000       0.00000000      -0.29285634
2
Properties=species:S:1:pos:R:3:forces:R:3 energy=-0.3522393837050256 pbc="F F F"
Sr       0.00000000       0.00000000       0.00000000       0.00000000       0.00000000       0.25496644
Sr       0.00000000       0.00000000       5.47090909       0.00000000       0.00000000      -0.25496644
2
Properties=species:S:1:pos:R:3:forces:R:3 energy=-0.33844386166026375 pbc="F F F"
Sr       0.00000000       0.00000000       0.00000000       0.00000000       0.00000000       0.21407953
Sr       0.00000000       0.00000000       5.52969697       0.00000000       0.00000000      -0.21407953
2
Properties=species:S:1:pos:R:3:forces:R:3 energy=-0.32707815797208467 pbc="F F F"
Sr       0.00000000       0.00000000       0.00000000       0.00000000       0.00000000       0.17291558
Sr       0.00000000       0.00000000       5.58848485       0.00000000       0.00000000      -0.17291558
2
Properties=species:S:1:pos:R:3:forces:R:3 energy=-0.31806688008583917 pbc="F F F"
Sr       0.00000000       0.00000000       0.00000000       0.00000000       0.00000000       0.13439192
Sr       0.00000000       0.00000000       5.64727273       0.00000000       0.00000000      -0.13439192
2
Properties=species:S:1:pos:R:3:forces:R:3 energy=-0.31117093624563164 pbc="F F F"
Sr       0.00000000       0.00000000       0.00000000       0.00000000       0.00000000       0.10110569
Sr       0.00000000       0.00000000       5.70606061       0.00000000       0.00000000      -0.10110569
2
Properties=species:S:1:pos:R:3:forces:R:3 energy=-0.30603430354968963 pbc="F F F"
Sr       0.00000000       0.00000000       0.00000000       0.00000000       0.00000000       0.07493475
Sr       0.00000000       0.00000000       5.76484848       0.00000000       0.00000000      -0.07493475
2
Properties=species:S:1:pos:R:3:forces:R:3 energy=-0.30220308242975913 pbc="F F F"
Sr       0.00000000       0.00000000       0.00000000       0.00000000       0.00000000       0.05675246
Sr       0.00000000       0.00000000       5.82363636       0.00000000       0.00000000      -0.05675246
2
Properties=species:S:1:pos:R:3:forces:R:3 energy=-0.2992141440130203 pbc="F F F"
Sr       0.00000000       0.00000000       0.00000000       0.00000000       0.00000000       0.04614214
Sr       0.00000000       0.00000000       5.88242424       0.00000000       0.00000000      -0.04614214
2
Properties=species:S:1:pos:R:3:forces:R:3 energy=-0.2966610223489397 pbc="F F F"
Sr       0.00000000       0.00000000       0.00000000       0.00000000       0.00000000       0.04147778
Sr       0.00000000       0.00000000       5.94121212       0.00000000       0.00000000      -0.04147778
2
Properties=species:S:1:pos:R:3:forces:R:3 energy=-0.294270087977341 pbc="F F F"
Sr       0.00000000       0.00000000       0.00000000       0.00000000       0.00000000       0.04012058
Sr       0.00000000       0.00000000       6.00000000       0.00000000       0.00000000      -0.04012058
