2
Properties=species:S:1:pos:R:3:forces:R:3 energy=25226777.951148737 pbc="F F F"
Ta       0.00000000       0.00000000       0.00000000       0.00000000       0.00000000 -154887568.00000000
Ta       0.00000000       0.00000000       0.10000000       0.00000000       0.00000000 154887568.00000000
2
Properties=species:S:1:pos:R:3:forces:R:3 energy=15609870.951148735 pbc="F F F"
Ta       0.00000000       0.00000000       0.00000000       0.00000000       0.00000000 -156728096.00000000
Ta       0.00000000       0.00000000       0.15959596       0.00000000       0.00000000 156728096.00000000
2
Properties=species:S:1:pos:R:3:forces:R:3 energy=7860766.451148736 pbc="F F F"
Ta       0.00000000       0.00000000       0.00000000       0.00000000       0.00000000 -105791312.00000000
Ta       0.00000000       0.00000000       0.21919192       0.00000000       0.00000000 105791312.00000000
2
Properties=species:S:1:pos:R:3:forces:R:3 energy=3058060.201148736 pbc="F F F"
Ta       0.00000000       0.00000000       0.00000000       0.00000000       0.00000000 -56402476.00000000
Ta       0.00000000       0.00000000       0.27878788       0.00000000       0.00000000 56402476.00000000
2
Properties=species:S:1:pos:R:3:forces:R:3 energy=839229.3886487391 pbc="F F F"
Ta       0.00000000       0.00000000       0.00000000       0.00000000       0.00000000 -13011082.00000000
Ta       0.00000000       0.00000000       0.33838384       0.00000000       0.00000000 13011082.00000000
2
Properties=species:S:1:pos:R:3:forces:R:3 energy=336419.5448987391 pbc="F F F"
Ta       0.00000000       0.00000000       0.00000000       0.00000000       0.00000000 -5004609.00000000
Ta       0.00000000       0.00000000       0.39797980       0.00000000       0.00000000 5004609.00000000
2
Properties=species:S:1:pos:R:3:forces:R:3 energy=149904.8886487454 pbc="F F F"
Ta       0.00000000       0.00000000       0.00000000       0.00000000       0.00000000 -844042.93750000
Ta       0.00000000       0.00000000       0.45757576       0.00000000       0.00000000  844042.93750000
2
Properties=species:S:1:pos:R:3:forces:R:3 energy=104211.68552375489 pbc="F F F"
Ta       0.00000000       0.00000000       0.00000000       0.00000000       0.00000000 -781496.81250000
Ta       0.00000000       0.00000000       0.51717172       0.00000000       0.00000000  781496.81250000
2
Properties=species:S:1:pos:R:3:forces:R:3 energy=57979.23239876756 pbc="F F F"
Ta       0.00000000       0.00000000       0.00000000       0.00000000       0.00000000 -688699.18750000
Ta       0.00000000       0.00000000       0.57676768       0.00000000       0.00000000  688699.18750000
2
Properties=species:S:1:pos:R:3:forces:R:3 energy=28680.835914424246 pbc="F F F"
Ta       0.00000000       0.00000000       0.00000000       0.00000000       0.00000000 -379633.59375000
Ta       0.00000000       0.00000000       0.63636364       0.00000000       0.00000000  379633.59375000
2
Properties=species:S:1:pos:R:3:forces:R:3 energy=12774.69724258726 pbc="F F F"
Ta       0.00000000       0.00000000       0.00000000       0.00000000       0.00000000 -177091.25000000
Ta       0.00000000       0.00000000       0.69595960       0.00000000       0.00000000  177091.25000000
2
Properties=species:S:1:pos:R:3:forces:R:3 energy=5329.501441872532 pbc="F F F"
Ta       0.00000000       0.00000000       0.00000000       0.00000000       0.00000000  -82131.30468750
Ta       0.00000000       0.00000000       0.75555556       0.00000000       0.00000000   82131.30468750
2
Properties=species:S:1:pos:R:3:forces:R:3 energy=1795.2233657956924 pbc="F F F"
Ta       0.00000000       0.00000000       0.00000000       0.00000000       0.00000000  -35321.86718750
Ta       0.00000000       0.00000000       0.81515152       0.00000000       0.00000000   35321.86718750
2
Properties=species:S:1:pos:R:3:forces:R:3 energy=85.47420516530711 pbc="F F F"
Ta       0.00000000       0.00000000       0.00000000       0.00000000       0.00000000  -32356.34960938
Ta       0.00000000       0.00000000       0.87474747       0.00000000       0.00000000   32356.34960938
2
Properties=species:S:1:pos:R:3:forces:R:3 energy=-983.4154278169989 pbc="F F F"
Ta       0.00000000       0.00000000       0.00000000       0.00000000       0.00000000   -2739.16040039
Ta       0.00000000       0.00000000       0.93434343       0.00000000       0.00000000    2739.16040039
2
Properties=species:S:1:pos:R:3:forces:R:3 energy=-507.29482207581617 pbc="F F F"
Ta       0.00000000       0.00000000       0.00000000       0.00000000       0.00000000    8723.20507812
Ta       0.00000000       0.00000000       0.99393939       0.00000000       0.00000000   -8723.20507812
2
Properties=species:S:1:pos:R:3:forces:R:3 energy=-155.05249687924723 pbc="F F F"
Ta       0.00000000       0.00000000       0.00000000       0.00000000       0.00000000    3823.28466797
Ta       0.00000000       0.00000000       1.05353535       0.00000000       0.00000000   -3823.28466797
2
Properties=species:S:1:pos:R:3:forces:R:3 energy=-7.058399632253344 pbc="F F F"
Ta       0.00000000       0.00000000       0.00000000       0.00000000       0.00000000    1326.89282227
Ta       0.00000000       0.00000000       1.11313131       0.00000000       0.00000000   -1326.89282227
2
Properties=species:S:1:pos:R:3:forces:R:3 energy=51.58738157733686 pbc="F F F"
Ta       0.00000000       0.00000000       0.00000000       0.00000000       0.00000000     752.04364014
Ta       0.00000000       0.00000000       1.17272727       0.00000000       0.00000000    -752.04364014
2
Properties=species:S:1:pos:R:3:forces:R:3 energy=73.30544577130192 pbc="F F F"
Ta       0.00000000       0.00000000       0.00000000       0.00000000       0.00000000     126.94297791
Ta       0.00000000       0.00000000       1.23232323       0.00000000       0.00000000    -126.94297791
2
Properties=species:S:1:pos:R:3:forces:R:3 energy=66.16550086764255 pbc="F F F"
Ta       0.00000000       0.00000000       0.00000000       0.00000000       0.00000000    -276.28338623
Ta       0.00000000       0.00000000       1.29191919       0.00000000       0.00000000     276.28338623
2
Properties=species:S:1:pos:R:3:forces:R:3 energy=51.13866965874314 pbc="F F F"
Ta       0.00000000       0.00000000       0.00000000       0.00000000       0.00000000    -228.91828918
Ta       0.00000000       0.00000000       1.35151515       0.00000000       0.00000000     228.91828918
2
Properties=species:S:1:pos:R:3:forces:R:3 energy=37.61622570332745 pbc="F F F"
Ta       0.00000000       0.00000000       0.00000000       0.00000000       0.00000000    -225.96267700
Ta       0.00000000       0.00000000       1.41111111       0.00000000       0.00000000     225.96267700
2
Properties=species:S:1:pos:R:3:forces:R:3 energy=24.95999310989993 pbc="F F F"
Ta       0.00000000       0.00000000       0.00000000       0.00000000       0.00000000    -191.74575806
Ta       0.00000000       0.00000000       1.47070707       0.00000000       0.00000000     191.74575806
2
Properties=species:S:1:pos:R:3:forces:R:3 energy=15.12677051429075 pbc="F F F"
Ta       0.00000000       0.00000000       0.00000000       0.00000000       0.00000000    -140.18601990
Ta       0.00000000       0.00000000       1.53030303       0.00000000       0.00000000     140.18601990
2
Properties=species:S:1:pos:R:3:forces:R:3 energy=8.056213315489652 pbc="F F F"
Ta       0.00000000       0.00000000       0.00000000       0.00000000       0.00000000    -100.20474243
Ta       0.00000000       0.00000000       1.58989899       0.00000000       0.00000000     100.20474243
2
Properties=species:S:1:pos:R:3:forces:R:3 energy=2.8066197385001486 pbc="F F F"
Ta       0.00000000       0.00000000       0.00000000       0.00000000       0.00000000     -75.82100677
Ta       0.00000000       0.00000000       1.64949495       0.00000000       0.00000000      75.82100677
2
Properties=species:S:1:pos:R:3:forces:R:3 energy=-1.173771729833428 pbc="F F F"
Ta       0.00000000       0.00000000       0.00000000       0.00000000       0.00000000     -59.37510681
Ta       0.00000000       0.00000000       1.70909091       0.00000000       0.00000000      59.37510681
2
Properties=species:S:1:pos:R:3:forces:R:3 energy=-4.299979031791943 pbc="F F F"
Ta       0.00000000       0.00000000       0.00000000       0.00000000       0.00000000     -45.97721863
Ta       0.00000000       0.00000000       1.76868687       0.00000000       0.00000000      45.97721863
2
Properties=species:S:1:pos:R:3:forces:R:3 energy=-6.756270979407238 pbc="F F F"
Ta       0.00000000       0.00000000       0.00000000       0.00000000       0.00000000     -36.65981293
Ta       0.00000000       0.00000000       1.82828283       0.00000000       0.00000000      36.65981293
2
Properties=species:S:1:pos:R:3:forces:R:3 energy=-8.635603969928244 pbc="F F F"
Ta       0.00000000       0.00000000       0.00000000       0.00000000       0.00000000     -26.76493073
Ta       0.00000000       0.00000000       1.88787879       0.00000000       0.00000000      26.76493073
2
Properties=species:S:1:pos:R:3:forces:R:3 energy=-9.974417753265023 pbc="F F F"
Ta       0.00000000       0.00000000       0.00000000       0.00000000       0.00000000     -18.26379395
Ta       0.00000000       0.00000000       1.94747475       0.00000000       0.00000000      18.26379395
2
Properties=species:S:1:pos:R:3:forces:R:3 energy=-10.852080819355862 pbc="F F F"
Ta       0.00000000       0.00000000       0.00000000       0.00000000       0.00000000     -11.59339237
Ta       0.00000000       0.00000000       2.00707071       0.00000000       0.00000000      11.59339237
2
Properties=species:S:1:pos:R:3:forces:R:3 energy=-11.392752043292802 pbc="F F F"
Ta       0.00000000       0.00000000       0.00000000       0.00000000       0.00000000      -6.75450706
Ta       0.00000000       0.00000000       2.06666667       0.00000000       0.00000000       6.75450706
2
Properties=species:S:1:pos:R:3:forces:R:3 energy=-11.680221443752446 pbc="F F F"
Ta       0.00000000       0.00000000       0.00000000       0.00000000       0.00000000      -3.10409403
Ta       0.00000000       0.00000000       2.12626263       0.00000000       0.00000000       3.10409403
2
Properties=species:S:1:pos:R:3:forces:R:3 energy=-11.794794693597908 pbc="F F F"
Ta       0.00000000       0.00000000       0.00000000       0.00000000       0.00000000      -0.98772693
Ta       0.00000000       0.00000000       2.18585859       0.00000000       0.00000000       0.98772693
2
Properties=species:S:1:pos:R:3:forces:R:3 energy=-11.80874051944677 pbc="F F F"
Ta       0.00000000       0.00000000       0.00000000       0.00000000       0.00000000       0.48522693
Ta       0.00000000       0.00000000       2.24545455       0.00000000       0.00000000      -0.48522693
2
Properties=species:S:1:pos:R:3:forces:R:3 energy=-11.748538901810084 pbc="F F F"
Ta       0.00000000       0.00000000       0.00000000       0.00000000       0.00000000       1.44630694
Ta       0.00000000       0.00000000       2.30505051       0.00000000       0.00000000      -1.44630694
2
Properties=species:S:1:pos:R:3:forces:R:3 energy=-11.63872974637653 pbc="F F F"
Ta       0.00000000       0.00000000       0.00000000       0.00000000       0.00000000       2.23808002
Ta       0.00000000       0.00000000       2.36464646       0.00000000       0.00000000      -2.23808002
2
Properties=species:S:1:pos:R:3:forces:R:3 energy=-11.48660533068704 pbc="F F F"
Ta       0.00000000       0.00000000       0.00000000       0.00000000       0.00000000       2.80496335
Ta       0.00000000       0.00000000       2.42424242       0.00000000       0.00000000      -2.80496335
2
Properties=species:S:1:pos:R:3:forces:R:3 energy=-11.311489220721862 pbc="F F F"
Ta       0.00000000       0.00000000       0.00000000       0.00000000       0.00000000       3.02070665
Ta       0.00000000       0.00000000       2.48383838       0.00000000       0.00000000      -3.02070665
2
Properties=species:S:1:pos:R:3:forces:R:3 energy=-11.129284655572777 pbc="F F F"
Ta       0.00000000       0.00000000       0.00000000       0.00000000       0.00000000       3.09879446
Ta       0.00000000       0.00000000       2.54343434       0.00000000       0.00000000      -3.09879446
2
Properties=species:S:1:pos:R:3:forces:R:3 energy=-10.941667664993151 pbc="F F F"
Ta       0.00000000       0.00000000       0.00000000       0.00000000       0.00000000       3.18860960
Ta       0.00000000       0.00000000       2.60303030       0.00000000       0.00000000      -3.18860960
2
Properties=species:S:1:pos:R:3:forces:R:3 energy=-10.751018950430987 pbc="F F F"
Ta       0.00000000       0.00000000       0.00000000       0.00000000       0.00000000       3.19817662
Ta       0.00000000       0.00000000       2.66262626       0.00000000       0.00000000      -3.19817662
2
Properties=species:S:1:pos:R:3:forces:R:3 energy=-10.560614448190407 pbc="F F F"
Ta       0.00000000       0.00000000       0.00000000       0.00000000       0.00000000       3.19747138
Ta       0.00000000       0.00000000       2.72222222       0.00000000       0.00000000      -3.19747138
2
Properties=species:S:1:pos:R:3:forces:R:3 energy=-10.369334920228459 pbc="F F F"
Ta       0.00000000       0.00000000       0.00000000       0.00000000       0.00000000       3.22208309
Ta       0.00000000       0.00000000       2.78181818       0.00000000       0.00000000      -3.22208309
2
Properties=species:S:1:pos:R:3:forces:R:3 energy=-10.177112549255499 pbc="F F F"
Ta       0.00000000       0.00000000       0.00000000       0.00000000       0.00000000       3.22102022
Ta       0.00000000       0.00000000       2.84141414       0.00000000       0.00000000      -3.22102022
2
Properties=species:S:1:pos:R:3:forces:R:3 energy=-9.986394312935408 pbc="F F F"
Ta       0.00000000       0.00000000       0.00000000       0.00000000       0.00000000       3.17220473
Ta       0.00000000       0.00000000       2.90101010       0.00000000       0.00000000      -3.17220473
2
Properties=species:S:1:pos:R:3:forces:R:3 energy=-9.799567713623114 pbc="F F F"
Ta       0.00000000       0.00000000       0.00000000       0.00000000       0.00000000       3.09567451
Ta       0.00000000       0.00000000       2.96060606       0.00000000       0.00000000      -3.09567451
2
Properties=species:S:1:pos:R:3:forces:R:3 energy=-9.617389793507353 pbc="F F F"
Ta       0.00000000       0.00000000       0.00000000       0.00000000       0.00000000       3.01886320
Ta       0.00000000       0.00000000       3.02020202       0.00000000       0.00000000      -3.01886320
2
Properties=species:S:1:pos:R:3:forces:R:3 energy=-9.439914435994464 pbc="F F F"
Ta       0.00000000       0.00000000       0.00000000       0.00000000       0.00000000       2.93230486
Ta       0.00000000       0.00000000       3.07979798       0.00000000       0.00000000      -2.93230486
2
Properties=species:S:1:pos:R:3:forces:R:3 energy=-9.26879151794002 pbc="F F F"
Ta       0.00000000       0.00000000       0.00000000       0.00000000       0.00000000       2.80140138
Ta       0.00000000       0.00000000       3.13939394       0.00000000       0.00000000      -2.80140138
2
Properties=species:S:1:pos:R:3:forces:R:3 energy=-9.106972769047735 pbc="F F F"
Ta       0.00000000       0.00000000       0.00000000       0.00000000       0.00000000       2.62324429
Ta       0.00000000       0.00000000       3.19898990       0.00000000       0.00000000      -2.62324429
2
Properties=species:S:1:pos:R:3:forces:R:3 energy=-8.956543596498669 pbc="F F F"
Ta       0.00000000       0.00000000       0.00000000       0.00000000       0.00000000       2.42355990
Ta       0.00000000       0.00000000       3.25858586       0.00000000       0.00000000      -2.42355990
2
Properties=species:S:1:pos:R:3:forces:R:3 energy=-8.818077438559754 pbc="F F F"
Ta       0.00000000       0.00000000       0.00000000       0.00000000       0.00000000       2.22485948
Ta       0.00000000       0.00000000       3.31818182       0.00000000       0.00000000      -2.22485948
2
Properties=species:S:1:pos:R:3:forces:R:3 energy=-8.691102050367048 pbc="F F F"
Ta       0.00000000       0.00000000       0.00000000       0.00000000       0.00000000       2.03905821
Ta       0.00000000       0.00000000       3.37777778       0.00000000       0.00000000      -2.03905821
2
Properties=species:S:1:pos:R:3:forces:R:3 energy=-8.574687769404271 pbc="F F F"
Ta       0.00000000       0.00000000       0.00000000       0.00000000       0.00000000       1.87064171
Ta       0.00000000       0.00000000       3.43737374       0.00000000       0.00000000      -1.87064171
2
Properties=species:S:1:pos:R:3:forces:R:3 energy=-8.46774206550783 pbc="F F F"
Ta       0.00000000       0.00000000       0.00000000       0.00000000       0.00000000       1.72199345
Ta       0.00000000       0.00000000       3.49696970       0.00000000       0.00000000      -1.72199345
2
Properties=species:S:1:pos:R:3:forces:R:3 energy=-8.369008653818256 pbc="F F F"
Ta       0.00000000       0.00000000       0.00000000       0.00000000       0.00000000       1.59495699
Ta       0.00000000       0.00000000       3.55656566       0.00000000       0.00000000      -1.59495699
2
Properties=species:S:1:pos:R:3:forces:R:3 energy=-8.27722619778803 pbc="F F F"
Ta       0.00000000       0.00000000       0.00000000       0.00000000       0.00000000       1.48834407
Ta       0.00000000       0.00000000       3.61616162       0.00000000       0.00000000      -1.48834407
2
Properties=species:S:1:pos:R:3:forces:R:3 energy=-8.191297673538607 pbc="F F F"
Ta       0.00000000       0.00000000       0.00000000       0.00000000       0.00000000       1.39745355
Ta       0.00000000       0.00000000       3.67575758       0.00000000       0.00000000      -1.39745355
2
Properties=species:S:1:pos:R:3:forces:R:3 energy=-8.110463848608173 pbc="F F F"
Ta       0.00000000       0.00000000       0.00000000       0.00000000       0.00000000       1.31652081
Ta       0.00000000       0.00000000       3.73535354       0.00000000       0.00000000      -1.31652081
2
Properties=species:S:1:pos:R:3:forces:R:3 energy=-8.03427902462949 pbc="F F F"
Ta       0.00000000       0.00000000       0.00000000       0.00000000       0.00000000       1.24086237
Ta       0.00000000       0.00000000       3.79494949       0.00000000       0.00000000      -1.24086237
2
Properties=species:S:1:pos:R:3:forces:R:3 energy=-7.962522253591778 pbc="F F F"
Ta       0.00000000       0.00000000       0.00000000       0.00000000       0.00000000       1.16732955
Ta       0.00000000       0.00000000       3.85454545       0.00000000       0.00000000      -1.16732955
2
Properties=species:S:1:pos:R:3:forces:R:3 energy=-7.8951385394866 pbc="F F F"
Ta       0.00000000       0.00000000       0.00000000       0.00000000       0.00000000       1.09386766
Ta       0.00000000       0.00000000       3.91414141       0.00000000       0.00000000      -1.09386766
2
Properties=species:S:1:pos:R:3:forces:R:3 energy=-7.832166371731104 pbc="F F F"
Ta       0.00000000       0.00000000       0.00000000       0.00000000       0.00000000       1.01922905
Ta       0.00000000       0.00000000       3.97373737       0.00000000       0.00000000      -1.01922905
2
Properties=species:S:1:pos:R:3:forces:R:3 energy=-7.773682621133933 pbc="F F F"
Ta       0.00000000       0.00000000       0.00000000       0.00000000       0.00000000       0.94314885
Ta       0.00000000       0.00000000       4.03333333       0.00000000       0.00000000      -0.94314885
2
Properties=species:S:1:pos:R:3:forces:R:3 energy=-7.7197604705193505 pbc="F F F"
Ta       0.00000000       0.00000000       0.00000000       0.00000000       0.00000000       0.86653030
Ta       0.00000000       0.00000000       4.09292929       0.00000000       0.00000000      -0.86653030
2
Properties=species:S:1:pos:R:3:forces:R:3 energy=-7.670376138377918 pbc="F F F"
Ta       0.00000000       0.00000000       0.00000000       0.00000000       0.00000000       0.79117852
Ta       0.00000000       0.00000000       4.15252525       0.00000000       0.00000000      -0.79117852
2
Properties=species:S:1:pos:R:3:forces:R:3 energy=-7.625399291438174 pbc="F F F"
Ta       0.00000000       0.00000000       0.00000000       0.00000000       0.00000000       0.71902442
Ta       0.00000000       0.00000000       4.21212121       0.00000000       0.00000000      -0.71902442
2
Properties=species:S:1:pos:R:3:forces:R:3 energy=-7.584581644924349 pbc="F F F"
Ta       0.00000000       0.00000000       0.00000000       0.00000000       0.00000000       0.65140027
Ta       0.00000000       0.00000000       4.27171717       0.00000000       0.00000000      -0.65140027
2
Properties=species:S:1:pos:R:3:forces:R:3 energy=-7.547652393344449 pbc="F F F"
Ta       0.00000000       0.00000000       0.00000000       0.00000000       0.00000000       0.58877373
Ta       0.00000000       0.00000000       4.33131313       0.00000000       0.00000000      -0.58877373
2
Properties=species:S:1:pos:R:3:forces:R:3 energy=-7.514310612773947 pbc="F F F"
Ta       0.00000000       0.00000000       0.00000000       0.00000000       0.00000000       0.53093833
Ta       0.00000000       0.00000000       4.39090909       0.00000000       0.00000000      -0.53093833
2
Properties=species:S:1:pos:R:3:forces:R:3 energy=-7.484284414005976 pbc="F F F"
Ta       0.00000000       0.00000000       0.00000000       0.00000000       0.00000000       0.47741863
Ta       0.00000000       0.00000000       4.45050505       0.00000000       0.00000000      -0.47741863
2
Properties=species:S:1:pos:R:3:forces:R:3 energy=-7.457327108847128 pbc="F F F"
Ta       0.00000000       0.00000000       0.00000000       0.00000000       0.00000000       0.42779231
Ta       0.00000000       0.00000000       4.51010101       0.00000000       0.00000000      -0.42779231
2
Properties=species:S:1:pos:R:3:forces:R:3 energy=-7.433219168151245 pbc="F F F"
Ta       0.00000000       0.00000000       0.00000000       0.00000000       0.00000000       0.38183632
Ta       0.00000000       0.00000000       4.56969697       0.00000000       0.00000000      -0.38183632
2
Properties=species:S:1:pos:R:3:forces:R:3 energy=-7.4117434389584815 pbc="F F F"
Ta       0.00000000       0.00000000       0.00000000       0.00000000       0.00000000       0.33954781
Ta       0.00000000       0.00000000       4.62929293       0.00000000       0.00000000      -0.33954781
2
Properties=species:S:1:pos:R:3:forces:R:3 energy=-7.392675553899159 pbc="F F F"
Ta       0.00000000       0.00000000       0.00000000       0.00000000       0.00000000       0.30106339
Ta       0.00000000       0.00000000       4.68888889       0.00000000       0.00000000      -0.30106339
2
Properties=species:S:1:pos:R:3:forces:R:3 energy=-7.375782118879803 pbc="F F F"
Ta       0.00000000       0.00000000       0.00000000       0.00000000       0.00000000       0.26657441
Ta       0.00000000       0.00000000       4.74848485       0.00000000       0.00000000      -0.26657441
2
Properties=species:S:1:pos:R:3:forces:R:3 energy=-7.360816679806147 pbc="F F F"
Ta       0.00000000       0.00000000       0.00000000       0.00000000       0.00000000       0.23626269
Ta       0.00000000       0.00000000       4.80808081       0.00000000       0.00000000      -0.23626269
2
Properties=species:S:1:pos:R:3:forces:R:3 energy=-7.347535120756367 pbc="F F F"
Ta       0.00000000       0.00000000       0.00000000       0.00000000       0.00000000       0.21025167
Ta       0.00000000       0.00000000       4.86767677       0.00000000       0.00000000      -0.21025167
2
Properties=species:S:1:pos:R:3:forces:R:3 energy=-7.335674588111462 pbc="F F F"
Ta       0.00000000       0.00000000       0.00000000       0.00000000       0.00000000       0.18857028
Ta       0.00000000       0.00000000       4.92727273       0.00000000       0.00000000      -0.18857028
2
Properties=species:S:1:pos:R:3:forces:R:3 energy=-7.324972446832156 pbc="F F F"
Ta       0.00000000       0.00000000       0.00000000       0.00000000       0.00000000       0.17109247
Ta       0.00000000       0.00000000       4.98686869       0.00000000       0.00000000      -0.17109247
2
Properties=species:S:1:pos:R:3:forces:R:3 energy=-7.315200653915983 pbc="F F F"
Ta       0.00000000       0.00000000       0.00000000       0.00000000       0.00000000       0.15746780
Ta       0.00000000       0.00000000       5.04646465       0.00000000       0.00000000      -0.15746780
2
Properties=species:S:1:pos:R:3:forces:R:3 energy=-7.306144584325168 pbc="F F F"
Ta       0.00000000       0.00000000       0.00000000       0.00000000       0.00000000       0.14706707
Ta       0.00000000       0.00000000       5.10606061       0.00000000       0.00000000      -0.14706707
2
Properties=species:S:1:pos:R:3:forces:R:3 energy=-7.297625963519738 pbc="F F F"
Ta       0.00000000       0.00000000       0.00000000       0.00000000       0.00000000       0.13897857
Ta       0.00000000       0.00000000       5.16565657       0.00000000       0.00000000      -0.13897857
2
Properties=species:S:1:pos:R:3:forces:R:3 energy=-7.289552347648194 pbc="F F F"
Ta       0.00000000       0.00000000       0.00000000       0.00000000       0.00000000       0.13209341
Ta       0.00000000       0.00000000       5.22525253       0.00000000       0.00000000      -0.13209341
2
Properties=species:S:1:pos:R:3:forces:R:3 energy=-7.281880763546251 pbc="F F F"
Ta       0.00000000       0.00000000       0.00000000       0.00000000       0.00000000       0.12524329
Ta       0.00000000       0.00000000       5.28484848       0.00000000       0.00000000      -0.12524329
2
Properties=species:S:1:pos:R:3:forces:R:3 energy=-7.274644433792448 pbc="F F F"
Ta       0.00000000       0.00000000       0.00000000       0.00000000       0.00000000       0.11740781
Ta       0.00000000       0.00000000       5.34444444       0.00000000       0.00000000      -0.11740781
2
Properties=species:S:1:pos:R:3:forces:R:3 energy=-7.2679221292493175 pbc="F F F"
Ta       0.00000000       0.00000000       0.00000000       0.00000000       0.00000000       0.10789756
Ta       0.00000000       0.00000000       5.40404040       0.00000000       0.00000000      -0.10789756
2
Properties=species:S:1:pos:R:3:forces:R:3 energy=-7.26182097441529 pbc="F F F"
Ta       0.00000000       0.00000000       0.00000000       0.00000000       0.00000000       0.09648833
Ta       0.00000000       0.00000000       5.46363636       0.00000000       0.00000000      -0.09648833
2
Properties=species:S:1:pos:R:3:forces:R:3 energy=-7.256451617046424 pbc="F F F"
Ta       0.00000000       0.00000000       0.00000000       0.00000000       0.00000000       0.08345919
Ta       0.00000000       0.00000000       5.52323232       0.00000000       0.00000000      -0.08345919
2
Properties=species:S:1:pos:R:3:forces:R:3 energy=-7.251890052673351 pbc="F F F"
Ta       0.00000000       0.00000000       0.00000000       0.00000000       0.00000000       0.06952939
Ta       0.00000000       0.00000000       5.58282828       0.00000000       0.00000000      -0.06952939
2
Properties=species:S:1:pos:R:3:forces:R:3 energy=-7.248164187629647 pbc="F F F"
Ta       0.00000000       0.00000000       0.00000000       0.00000000       0.00000000       0.05571939
Ta       0.00000000       0.00000000       5.64242424       0.00000000       0.00000000      -0.05571939
2
Properties=species:S:1:pos:R:3:forces:R:3 energy=-7.245225292178783 pbc="F F F"
Ta       0.00000000       0.00000000       0.00000000       0.00000000       0.00000000       0.04312805
Ta       0.00000000       0.00000000       5.70202020       0.00000000       0.00000000      -0.04312805
2
Properties=species:S:1:pos:R:3:forces:R:3 energy=-7.242980377923552 pbc="F F F"
Ta       0.00000000       0.00000000       0.00000000       0.00000000       0.00000000       0.03273080
Ta       0.00000000       0.00000000       5.76161616       0.00000000       0.00000000      -0.03273080
2
Properties=species:S:1:pos:R:3:forces:R:3 energy=-7.241273110064539 pbc="F F F"
Ta       0.00000000       0.00000000       0.00000000       0.00000000       0.00000000       0.02512913
Ta       0.00000000       0.00000000       5.82121212       0.00000000       0.00000000      -0.02512913
2
Properties=species:S:1:pos:R:3:forces:R:3 energy=-7.239925816587378 pbc="F F F"
Ta       0.00000000       0.00000000       0.00000000       0.00000000       0.00000000       0.02043296
Ta       0.00000000       0.00000000       5.88080808       0.00000000       0.00000000      -0.02043296
2
Properties=species:S:1:pos:R:3:forces:R:3 energy=-7.2387852408712705 pbc="F F F"
Ta       0.00000000       0.00000000       0.00000000       0.00000000       0.00000000       0.01814395
Ta       0.00000000       0.00000000       5.94040404       0.00000000       0.00000000      -0.01814395
2
Properties=species:S:1:pos:R:3:forces:R:3 energy=-7.237734042801583 pbc="F F F"
Ta       0.00000000       0.00000000       0.00000000       0.00000000       0.00000000       0.01725321
Ta       0.00000000       0.00000000       6.00000000       0.00000000       0.00000000      -0.01725321
