2
Properties=species:S:1:pos:R:3:forces:R:3 energy=316537.73806522845 pbc="F F F"
Tl       0.00000000       0.00000000       0.00000000       0.00000000       0.00000000 -1584645.37500000
Tl       0.00000000       0.00000000       0.10000000       0.00000000       0.00000000 1584645.37500000
2
Properties=species:S:1:pos:R:3:forces:R:3 energy=214875.25369022845 pbc="F F F"
Tl       0.00000000       0.00000000       0.00000000       0.00000000       0.00000000 -1716724.00000000
Tl       0.00000000       0.00000000       0.15959596       0.00000000       0.00000000 1716724.00000000
2
Properties=species:S:1:pos:R:3:forces:R:3 energy=122091.37087772843 pbc="F F F"
Tl       0.00000000       0.00000000       0.00000000       0.00000000       0.00000000 -1343036.87500000
Tl       0.00000000       0.00000000       0.21919192       0.00000000       0.00000000 1343036.87500000
2
Properties=species:S:1:pos:R:3:forces:R:3 energy=57709.87087772844 pbc="F F F"
Tl       0.00000000       0.00000000       0.00000000       0.00000000       0.00000000 -818327.81250000
Tl       0.00000000       0.00000000       0.27878788       0.00000000       0.00000000  818327.81250000
2
Properties=species:S:1:pos:R:3:forces:R:3 energy=22458.16579960344 pbc="F F F"
Tl       0.00000000       0.00000000       0.00000000       0.00000000       0.00000000 -393380.96875000
Tl       0.00000000       0.00000000       0.33838384       0.00000000       0.00000000  393380.96875000
2
Properties=species:S:1:pos:R:3:forces:R:3 energy=7165.99343632219 pbc="F F F"
Tl       0.00000000       0.00000000       0.00000000       0.00000000       0.00000000 -148002.79687500
Tl       0.00000000       0.00000000       0.39797980       0.00000000       0.00000000  148002.79687500
2
Properties=species:S:1:pos:R:3:forces:R:3 energy=1981.7716345675458 pbc="F F F"
Tl       0.00000000       0.00000000       0.00000000       0.00000000       0.00000000  -41690.60937500
Tl       0.00000000       0.00000000       0.45757576       0.00000000       0.00000000   41690.60937500
2
Properties=species:S:1:pos:R:3:forces:R:3 energy=704.973721979393 pbc="F F F"
Tl       0.00000000       0.00000000       0.00000000       0.00000000       0.00000000   -9806.50976562
Tl       0.00000000       0.00000000       0.51717172       0.00000000       0.00000000    9806.50976562
2
Properties=species:S:1:pos:R:3:forces:R:3 energy=383.1409583201892 pbc="F F F"
Tl       0.00000000       0.00000000       0.00000000       0.00000000       0.00000000   -2945.89990234
Tl       0.00000000       0.00000000       0.57676768       0.00000000       0.00000000    2945.89990234
2
Properties=species:S:1:pos:R:3:forces:R:3 energy=263.13790658455144 pbc="F F F"
Tl       0.00000000       0.00000000       0.00000000       0.00000000       0.00000000   -1503.29602051
Tl       0.00000000       0.00000000       0.63636364       0.00000000       0.00000000    1503.29602051
2
Properties=species:S:1:pos:R:3:forces:R:3 energy=240.31956250318657 pbc="F F F"
Tl       0.00000000       0.00000000       0.00000000       0.00000000       0.00000000     -62.69917297
Tl       0.00000000       0.00000000       0.69595960       0.00000000       0.00000000      62.69917297
2
Properties=species:S:1:pos:R:3:forces:R:3 energy=219.17799150894984 pbc="F F F"
Tl       0.00000000       0.00000000       0.00000000       0.00000000       0.00000000    -387.31204224
Tl       0.00000000       0.00000000       0.75555556       0.00000000       0.00000000     387.31204224
2
Properties=species:S:1:pos:R:3:forces:R:3 energy=202.88920375268418 pbc="F F F"
Tl       0.00000000       0.00000000       0.00000000       0.00000000       0.00000000    -159.97534180
Tl       0.00000000       0.00000000       0.81515152       0.00000000       0.00000000     159.97534180
2
Properties=species:S:1:pos:R:3:forces:R:3 energy=181.63226111453451 pbc="F F F"
Tl       0.00000000       0.00000000       0.00000000       0.00000000       0.00000000    -416.00790405
Tl       0.00000000       0.00000000       0.87474747       0.00000000       0.00000000     416.00790405
2
Properties=species:S:1:pos:R:3:forces:R:3 energy=161.0541362855969 pbc="F F F"
Tl       0.00000000       0.00000000       0.00000000       0.00000000       0.00000000    -335.95831299
Tl       0.00000000       0.00000000       0.93434343       0.00000000       0.00000000     335.95831299
2
Properties=species:S:1:pos:R:3:forces:R:3 energy=141.92999100269978 pbc="F F F"
Tl       0.00000000       0.00000000       0.00000000       0.00000000       0.00000000    -287.74157715
Tl       0.00000000       0.00000000       0.99393939       0.00000000       0.00000000     287.74157715
2
Properties=species:S:1:pos:R:3:forces:R:3 energy=127.87813431851744 pbc="F F F"
Tl       0.00000000       0.00000000       0.00000000       0.00000000       0.00000000    -219.62419128
Tl       0.00000000       0.00000000       1.05353535       0.00000000       0.00000000     219.62419128
2
Properties=species:S:1:pos:R:3:forces:R:3 energy=113.80982876426387 pbc="F F F"
Tl       0.00000000       0.00000000       0.00000000       0.00000000       0.00000000    -257.05004883
Tl       0.00000000       0.00000000       1.11313131       0.00000000       0.00000000     257.05004883
2
Properties=species:S:1:pos:R:3:forces:R:3 energy=98.55979879155115 pbc="F F F"
Tl       0.00000000       0.00000000       0.00000000       0.00000000       0.00000000    -247.99752808
Tl       0.00000000       0.00000000       1.17272727       0.00000000       0.00000000     247.99752808
2
Properties=species:S:1:pos:R:3:forces:R:3 energy=85.90657074137768 pbc="F F F"
Tl       0.00000000       0.00000000       0.00000000       0.00000000       0.00000000    -185.72769165
Tl       0.00000000       0.00000000       1.23232323       0.00000000       0.00000000     185.72769165
2
Properties=species:S:1:pos:R:3:forces:R:3 energy=74.71331146083936 pbc="F F F"
Tl       0.00000000       0.00000000       0.00000000       0.00000000       0.00000000    -192.44926453
Tl       0.00000000       0.00000000       1.29191919       0.00000000       0.00000000     192.44926453
2
Properties=species:S:1:pos:R:3:forces:R:3 energy=63.43137596841882 pbc="F F F"
Tl       0.00000000       0.00000000       0.00000000       0.00000000       0.00000000    -186.55978394
Tl       0.00000000       0.00000000       1.35151515       0.00000000       0.00000000     186.55978394
2
Properties=species:S:1:pos:R:3:forces:R:3 energy=52.48192979378107 pbc="F F F"
Tl       0.00000000       0.00000000       0.00000000       0.00000000       0.00000000    -176.68521118
Tl       0.00000000       0.00000000       1.41111111       0.00000000       0.00000000     176.68521118
2
Properties=species:S:1:pos:R:3:forces:R:3 energy=42.551774898011665 pbc="F F F"
Tl       0.00000000       0.00000000       0.00000000       0.00000000       0.00000000    -154.71397400
Tl       0.00000000       0.00000000       1.47070707       0.00000000       0.00000000     154.71397400
2
Properties=species:S:1:pos:R:3:forces:R:3 energy=34.13880564107989 pbc="F F F"
Tl       0.00000000       0.00000000       0.00000000       0.00000000       0.00000000    -130.03834534
Tl       0.00000000       0.00000000       1.53030303       0.00000000       0.00000000     130.03834534
2
Properties=species:S:1:pos:R:3:forces:R:3 energy=26.948294783077493 pbc="F F F"
Tl       0.00000000       0.00000000       0.00000000       0.00000000       0.00000000    -111.52227783
Tl       0.00000000       0.00000000       1.58989899       0.00000000       0.00000000     111.52227783
2
Properties=species:S:1:pos:R:3:forces:R:3 energy=20.83194986169612 pbc="F F F"
Tl       0.00000000       0.00000000       0.00000000       0.00000000       0.00000000     -92.74102020
Tl       0.00000000       0.00000000       1.64949495       0.00000000       0.00000000      92.74102020
2
Properties=species:S:1:pos:R:3:forces:R:3 energy=15.899373912803343 pbc="F F F"
Tl       0.00000000       0.00000000       0.00000000       0.00000000       0.00000000     -72.79811859
Tl       0.00000000       0.00000000       1.70909091       0.00000000       0.00000000      72.79811859
2
Properties=species:S:1:pos:R:3:forces:R:3 energy=12.133914005366785 pbc="F F F"
Tl       0.00000000       0.00000000       0.00000000       0.00000000       0.00000000     -54.97820663
Tl       0.00000000       0.00000000       1.76868687       0.00000000       0.00000000      54.97820663
2
Properties=species:S:1:pos:R:3:forces:R:3 energy=9.206741451286003 pbc="F F F"
Tl       0.00000000       0.00000000       0.00000000       0.00000000       0.00000000     -43.47412872
Tl       0.00000000       0.00000000       1.82828283       0.00000000       0.00000000      43.47412872
2
Properties=species:S:1:pos:R:3:forces:R:3 energy=6.914012329014065 pbc="F F F"
Tl       0.00000000       0.00000000       0.00000000       0.00000000       0.00000000     -34.13846588
Tl       0.00000000       0.00000000       1.88787879       0.00000000       0.00000000      34.13846588
2
Properties=species:S:1:pos:R:3:forces:R:3 energy=5.09082983825087 pbc="F F F"
Tl       0.00000000       0.00000000       0.00000000       0.00000000       0.00000000     -27.18947029
Tl       0.00000000       0.00000000       1.94747475       0.00000000       0.00000000      27.18947029
2
Properties=species:S:1:pos:R:3:forces:R:3 energy=3.638425931644994 pbc="F F F"
Tl       0.00000000       0.00000000       0.00000000       0.00000000       0.00000000     -21.88174438
Tl       0.00000000       0.00000000       2.00707071       0.00000000       0.00000000      21.88174438
2
Properties=species:S:1:pos:R:3:forces:R:3 energy=2.4581131536603946 pbc="F F F"
Tl       0.00000000       0.00000000       0.00000000       0.00000000       0.00000000     -17.90442085
Tl       0.00000000       0.00000000       2.06666667       0.00000000       0.00000000      17.90442085
2
Properties=species:S:1:pos:R:3:forces:R:3 energy=1.4871704640997494 pbc="F F F"
Tl       0.00000000       0.00000000       0.00000000       0.00000000       0.00000000     -14.77046967
Tl       0.00000000       0.00000000       2.12626263       0.00000000       0.00000000      14.77046967
2
Properties=species:S:1:pos:R:3:forces:R:3 energy=0.6843597672542618 pbc="F F F"
Tl       0.00000000       0.00000000       0.00000000       0.00000000       0.00000000     -12.29569340
Tl       0.00000000       0.00000000       2.18585859       0.00000000       0.00000000      12.29569340
2
Properties=species:S:1:pos:R:3:forces:R:3 energy=0.013598991767674332 pbc="F F F"
Tl       0.00000000       0.00000000       0.00000000       0.00000000       0.00000000     -10.25141430
Tl       0.00000000       0.00000000       2.24545455       0.00000000       0.00000000      10.25141430
2
Properties=species:S:1:pos:R:3:forces:R:3 energy=-0.5424613827884385 pbc="F F F"
Tl       0.00000000       0.00000000       0.00000000       0.00000000       0.00000000      -8.43464851
Tl       0.00000000       0.00000000       2.30505051       0.00000000       0.00000000       8.43464851
2
Properties=species:S:1:pos:R:3:forces:R:3 energy=-0.9936485956097114 pbc="F F F"
Tl       0.00000000       0.00000000       0.00000000       0.00000000       0.00000000      -6.73775625
Tl       0.00000000       0.00000000       2.36464646       0.00000000       0.00000000       6.73775625
2
Properties=species:S:1:pos:R:3:forces:R:3 energy=-1.3513642746433623 pbc="F F F"
Tl       0.00000000       0.00000000       0.00000000       0.00000000       0.00000000      -5.31785011
Tl       0.00000000       0.00000000       2.42424242       0.00000000       0.00000000       5.31785011
2
Properties=species:S:1:pos:R:3:forces:R:3 energy=-1.6326055790007414 pbc="F F F"
Tl       0.00000000       0.00000000       0.00000000       0.00000000       0.00000000      -4.15448713
Tl       0.00000000       0.00000000       2.48383838       0.00000000       0.00000000       4.15448713
2
Properties=species:S:1:pos:R:3:forces:R:3 energy=-1.8496065437558125 pbc="F F F"
Tl       0.00000000       0.00000000       0.00000000       0.00000000       0.00000000      -3.15078068
Tl       0.00000000       0.00000000       2.54343434       0.00000000       0.00000000       3.15078068
2
Properties=species:S:1:pos:R:3:forces:R:3 energy=-2.011401126807164 pbc="F F F"
Tl       0.00000000       0.00000000       0.00000000       0.00000000       0.00000000      -2.30965018
Tl       0.00000000       0.00000000       2.60303030       0.00000000       0.00000000       2.30965018
2
Properties=species:S:1:pos:R:3:forces:R:3 energy=-2.1284634221382617 pbc="F F F"
Tl       0.00000000       0.00000000       0.00000000       0.00000000       0.00000000      -1.64596105
Tl       0.00000000       0.00000000       2.66262626       0.00000000       0.00000000       1.64596105
2
Properties=species:S:1:pos:R:3:forces:R:3 energy=-2.210286182525603 pbc="F F F"
Tl       0.00000000       0.00000000       0.00000000       0.00000000       0.00000000      -1.11805165
Tl       0.00000000       0.00000000       2.72222222       0.00000000       0.00000000       1.11805165
2
Properties=species:S:1:pos:R:3:forces:R:3 energy=-2.263520185108301 pbc="F F F"
Tl       0.00000000       0.00000000       0.00000000       0.00000000       0.00000000      -0.68208456
Tl       0.00000000       0.00000000       2.78181818       0.00000000       0.00000000       0.68208456
2
Properties=species:S:1:pos:R:3:forces:R:3 energy=-2.2932500837286 pbc="F F F"
Tl       0.00000000       0.00000000       0.00000000       0.00000000       0.00000000      -0.33033073
Tl       0.00000000       0.00000000       2.84141414       0.00000000       0.00000000       0.33033073
2
Properties=species:S:1:pos:R:3:forces:R:3 energy=-2.304696207567296 pbc="F F F"
Tl       0.00000000       0.00000000       0.00000000       0.00000000       0.00000000      -0.06889796
Tl       0.00000000       0.00000000       2.90101010       0.00000000       0.00000000       0.06889796
2
Properties=species:S:1:pos:R:3:forces:R:3 energy=-2.3031675920115853 pbc="F F F"
Tl       0.00000000       0.00000000       0.00000000       0.00000000       0.00000000       0.10719498
Tl       0.00000000       0.00000000       2.96060606       0.00000000       0.00000000      -0.10719498
2
Properties=species:S:1:pos:R:3:forces:R:3 energy=-2.2932545714649986 pbc="F F F"
Tl       0.00000000       0.00000000       0.00000000       0.00000000       0.00000000       0.21615791
Tl       0.00000000       0.00000000       3.02020202       0.00000000       0.00000000      -0.21615791
2
Properties=species:S:1:pos:R:3:forces:R:3 energy=-2.278317209104381 pbc="F F F"
Tl       0.00000000       0.00000000       0.00000000       0.00000000       0.00000000       0.27883026
Tl       0.00000000       0.00000000       3.07979798       0.00000000       0.00000000      -0.27883026
2
Properties=species:S:1:pos:R:3:forces:R:3 energy=-2.2606664528265528 pbc="F F F"
Tl       0.00000000       0.00000000       0.00000000       0.00000000       0.00000000       0.30880898
Tl       0.00000000       0.00000000       3.13939394       0.00000000       0.00000000      -0.30880898
2
Properties=species:S:1:pos:R:3:forces:R:3 energy=-2.2420080211417295 pbc="F F F"
Tl       0.00000000       0.00000000       0.00000000       0.00000000       0.00000000       0.31367090
Tl       0.00000000       0.00000000       3.19898990       0.00000000       0.00000000      -0.31367090
2
Properties=species:S:1:pos:R:3:forces:R:3 energy=-2.2236495909349654 pbc="F F F"
Tl       0.00000000       0.00000000       0.00000000       0.00000000       0.00000000       0.29998484
Tl       0.00000000       0.00000000       3.25858586       0.00000000       0.00000000      -0.29998484
2
Properties=species:S:1:pos:R:3:forces:R:3 energy=-2.2064628135564113 pbc="F F F"
Tl       0.00000000       0.00000000       0.00000000       0.00000000       0.00000000       0.27571419
Tl       0.00000000       0.00000000       3.31818182       0.00000000       0.00000000      -0.27571419
2
Properties=species:S:1:pos:R:3:forces:R:3 energy=-2.1908345662050364 pbc="F F F"
Tl       0.00000000       0.00000000       0.00000000       0.00000000       0.00000000       0.24888985
Tl       0.00000000       0.00000000       3.37777778       0.00000000       0.00000000      -0.24888985
2
Properties=species:S:1:pos:R:3:forces:R:3 energy=-2.176725434299776 pbc="F F F"
Tl       0.00000000       0.00000000       0.00000000       0.00000000       0.00000000       0.22560273
Tl       0.00000000       0.00000000       3.43737374       0.00000000       0.00000000      -0.22560273
2
Properties=species:S:1:pos:R:3:forces:R:3 energy=-2.163796696682681 pbc="F F F"
Tl       0.00000000       0.00000000       0.00000000       0.00000000       0.00000000       0.20967647
Tl       0.00000000       0.00000000       3.49696970       0.00000000       0.00000000      -0.20967647
2
Properties=species:S:1:pos:R:3:forces:R:3 energy=-2.1515587538720315 pbc="F F F"
Tl       0.00000000       0.00000000       0.00000000       0.00000000       0.00000000       0.20243375
Tl       0.00000000       0.00000000       3.55656566       0.00000000       0.00000000      -0.20243375
2
Properties=species:S:1:pos:R:3:forces:R:3 energy=-2.139519847627909 pbc="F F F"
Tl       0.00000000       0.00000000       0.00000000       0.00000000       0.00000000       0.20262417
Tl       0.00000000       0.00000000       3.61616162       0.00000000       0.00000000      -0.20262417
2
Properties=species:S:1:pos:R:3:forces:R:3 energy=-2.12731375664476 pbc="F F F"
Tl       0.00000000       0.00000000       0.00000000       0.00000000       0.00000000       0.20759296
Tl       0.00000000       0.00000000       3.67575758       0.00000000       0.00000000      -0.20759296
2
Properties=species:S:1:pos:R:3:forces:R:3 energy=-2.1147305163579224 pbc="F F F"
Tl       0.00000000       0.00000000       0.00000000       0.00000000       0.00000000       0.21489309
Tl       0.00000000       0.00000000       3.73535354       0.00000000       0.00000000      -0.21489309
2
Properties=species:S:1:pos:R:3:forces:R:3 energy=-2.10168143457642 pbc="F F F"
Tl       0.00000000       0.00000000       0.00000000       0.00000000       0.00000000       0.22314791
Tl       0.00000000       0.00000000       3.79494949       0.00000000       0.00000000      -0.22314791
2
Properties=species:S:1:pos:R:3:forces:R:3 energy=-2.088121676288462 pbc="F F F"
Tl       0.00000000       0.00000000       0.00000000       0.00000000       0.00000000       0.23198353
Tl       0.00000000       0.00000000       3.85454545       0.00000000       0.00000000      -0.23198353
2
Properties=species:S:1:pos:R:3:forces:R:3 energy=-2.074018098655949 pbc="F F F"
Tl       0.00000000       0.00000000       0.00000000       0.00000000       0.00000000       0.24148338
Tl       0.00000000       0.00000000       3.91414141       0.00000000       0.00000000      -0.24148338
2
Properties=species:S:1:pos:R:3:forces:R:3 energy=-2.0593253449682036 pbc="F F F"
Tl       0.00000000       0.00000000       0.00000000       0.00000000       0.00000000       0.25166526
Tl       0.00000000       0.00000000       3.97373737       0.00000000       0.00000000      -0.25166526
2
Properties=species:S:1:pos:R:3:forces:R:3 energy=-2.044014171271454 pbc="F F F"
Tl       0.00000000       0.00000000       0.00000000       0.00000000       0.00000000       0.26220503
Tl       0.00000000       0.00000000       4.03333333       0.00000000       0.00000000      -0.26220503
2
Properties=species:S:1:pos:R:3:forces:R:3 energy=-2.028080273359988 pbc="F F F"
Tl       0.00000000       0.00000000       0.00000000       0.00000000       0.00000000       0.27242273
Tl       0.00000000       0.00000000       4.09292929       0.00000000       0.00000000      -0.27242273
2
Properties=species:S:1:pos:R:3:forces:R:3 energy=-2.011567155120895 pbc="F F F"
Tl       0.00000000       0.00000000       0.00000000       0.00000000       0.00000000       0.28143752
Tl       0.00000000       0.00000000       4.15252525       0.00000000       0.00000000      -0.28143752
2
Properties=species:S:1:pos:R:3:forces:R:3 energy=-1.9945748256445122 pbc="F F F"
Tl       0.00000000       0.00000000       0.00000000       0.00000000       0.00000000       0.28842363
Tl       0.00000000       0.00000000       4.21212121       0.00000000       0.00000000      -0.28842363
2
Properties=species:S:1:pos:R:3:forces:R:3 energy=-1.9772398417558652 pbc="F F F"
Tl       0.00000000       0.00000000       0.00000000       0.00000000       0.00000000       0.29283741
Tl       0.00000000       0.00000000       4.27171717       0.00000000       0.00000000      -0.29283741
2
Properties=species:S:1:pos:R:3:forces:R:3 energy=-1.9597246171924774 pbc="F F F"
Tl       0.00000000       0.00000000       0.00000000       0.00000000       0.00000000       0.29456258
Tl       0.00000000       0.00000000       4.33131313       0.00000000       0.00000000      -0.29456258
2
Properties=species:S:1:pos:R:3:forces:R:3 energy=-1.9421789350109047 pbc="F F F"
Tl       0.00000000       0.00000000       0.00000000       0.00000000       0.00000000       0.29387790
Tl       0.00000000       0.00000000       4.39090909       0.00000000       0.00000000      -0.29387790
2
Properties=species:S:1:pos:R:3:forces:R:3 energy=-1.9247336980185268 pbc="F F F"
Tl       0.00000000       0.00000000       0.00000000       0.00000000       0.00000000       0.29130509
Tl       0.00000000       0.00000000       4.45050505       0.00000000       0.00000000      -0.29130509
2
Properties=species:S:1:pos:R:3:forces:R:3 energy=-1.907484550751497 pbc="F F F"
Tl       0.00000000       0.00000000       0.00000000       0.00000000       0.00000000       0.28738767
Tl       0.00000000       0.00000000       4.51010101       0.00000000       0.00000000      -0.28738767
2
Properties=species:S:1:pos:R:3:forces:R:3 energy=-1.8904980498474009 pbc="F F F"
Tl       0.00000000       0.00000000       0.00000000       0.00000000       0.00000000       0.28251827
Tl       0.00000000       0.00000000       4.56969697       0.00000000       0.00000000      -0.28251827
2
Properties=species:S:1:pos:R:3:forces:R:3 energy=-1.8738246241797247 pbc="F F F"
Tl       0.00000000       0.00000000       0.00000000       0.00000000       0.00000000       0.27688837
Tl       0.00000000       0.00000000       4.62929293       0.00000000       0.00000000      -0.27688837
2
Properties=species:S:1:pos:R:3:forces:R:3 energy=-1.8575101750048557 pbc="F F F"
Tl       0.00000000       0.00000000       0.00000000       0.00000000       0.00000000       0.27055451
Tl       0.00000000       0.00000000       4.68888889       0.00000000       0.00000000      -0.27055451
2
Properties=species:S:1:pos:R:3:forces:R:3 energy=-1.8415909099488963 pbc="F F F"
Tl       0.00000000       0.00000000       0.00000000       0.00000000       0.00000000       0.26356512
Tl       0.00000000       0.00000000       4.74848485       0.00000000       0.00000000      -0.26356512
2
Properties=species:S:1:pos:R:3:forces:R:3 energy=-1.826104669890041 pbc="F F F"
Tl       0.00000000       0.00000000       0.00000000       0.00000000       0.00000000       0.25607845
Tl       0.00000000       0.00000000       4.80808081       0.00000000       0.00000000      -0.25607845
2
Properties=species:S:1:pos:R:3:forces:R:3 energy=-1.811072656259183 pbc="F F F"
Tl       0.00000000       0.00000000       0.00000000       0.00000000       0.00000000       0.24836907
Tl       0.00000000       0.00000000       4.86767677       0.00000000       0.00000000      -0.24836907
2
Properties=species:S:1:pos:R:3:forces:R:3 energy=-1.7964991387683595 pbc="F F F"
Tl       0.00000000       0.00000000       0.00000000       0.00000000       0.00000000       0.24074918
Tl       0.00000000       0.00000000       4.92727273       0.00000000       0.00000000      -0.24074918
2
Properties=species:S:1:pos:R:3:forces:R:3 energy=-1.7823723298895144 pbc="F F F"
Tl       0.00000000       0.00000000       0.00000000       0.00000000       0.00000000       0.23340046
Tl       0.00000000       0.00000000       4.98686869       0.00000000       0.00000000      -0.23340046
2
Properties=species:S:1:pos:R:3:forces:R:3 energy=-1.7686767984597211 pbc="F F F"
Tl       0.00000000       0.00000000       0.00000000       0.00000000       0.00000000       0.22623964
Tl       0.00000000       0.00000000       5.04646465       0.00000000       0.00000000      -0.22623964
2
Properties=species:S:1:pos:R:3:forces:R:3 energy=-1.7554117392127548 pbc="F F F"
Tl       0.00000000       0.00000000       0.00000000       0.00000000       0.00000000       0.21883605
Tl       0.00000000       0.00000000       5.10606061       0.00000000       0.00000000      -0.21883605
2
Properties=species:S:1:pos:R:3:forces:R:3 energy=-1.7426103147783092 pbc="F F F"
Tl       0.00000000       0.00000000       0.00000000       0.00000000       0.00000000       0.21046375
Tl       0.00000000       0.00000000       5.16565657       0.00000000       0.00000000      -0.21046375
2
Properties=species:S:1:pos:R:3:forces:R:3 energy=-1.7303612298115418 pbc="F F F"
Tl       0.00000000       0.00000000       0.00000000       0.00000000       0.00000000       0.20025676
Tl       0.00000000       0.00000000       5.22525253       0.00000000       0.00000000      -0.20025676
2
Properties=species:S:1:pos:R:3:forces:R:3 energy=-1.718794645289975 pbc="F F F"
Tl       0.00000000       0.00000000       0.00000000       0.00000000       0.00000000       0.18743482
Tl       0.00000000       0.00000000       5.28484848       0.00000000       0.00000000      -0.18743482
2
Properties=species:S:1:pos:R:3:forces:R:3 energy=-1.7080819274236276 pbc="F F F"
Tl       0.00000000       0.00000000       0.00000000       0.00000000       0.00000000       0.17153403
Tl       0.00000000       0.00000000       5.34444444       0.00000000       0.00000000      -0.17153403
2
Properties=species:S:1:pos:R:3:forces:R:3 energy=-1.6984097954942523 pbc="F F F"
Tl       0.00000000       0.00000000       0.00000000       0.00000000       0.00000000       0.15256889
Tl       0.00000000       0.00000000       5.40404040       0.00000000       0.00000000      -0.15256889
2
Properties=species:S:1:pos:R:3:forces:R:3 energy=-1.6899450691677609 pbc="F F F"
Tl       0.00000000       0.00000000       0.00000000       0.00000000       0.00000000       0.13111340
Tl       0.00000000       0.00000000       5.46363636       0.00000000       0.00000000      -0.13111340
2
Properties=species:S:1:pos:R:3:forces:R:3 energy=-1.6828140821330466 pbc="F F F"
Tl       0.00000000       0.00000000       0.00000000       0.00000000       0.00000000       0.10822739
Tl       0.00000000       0.00000000       5.52323232       0.00000000       0.00000000      -0.10822739
2
Properties=species:S:1:pos:R:3:forces:R:3 energy=-1.67704832583377 pbc="F F F"
Tl       0.00000000       0.00000000       0.00000000       0.00000000       0.00000000       0.08532780
Tl       0.00000000       0.00000000       5.58282828       0.00000000       0.00000000      -0.08532780
2
Properties=species:S:1:pos:R:3:forces:R:3 energy=-1.6726122810856716 pbc="F F F"
Tl       0.00000000       0.00000000       0.00000000       0.00000000       0.00000000       0.06395107
Tl       0.00000000       0.00000000       5.64242424       0.00000000       0.00000000      -0.06395107
2
Properties=species:S:1:pos:R:3:forces:R:3 energy=-1.6693667586361884 pbc="F F F"
Tl       0.00000000       0.00000000       0.00000000       0.00000000       0.00000000       0.04548217
Tl       0.00000000       0.00000000       5.70202020       0.00000000       0.00000000      -0.04548217
2
Properties=species:S:1:pos:R:3:forces:R:3 energy=-1.6671122279894077 pbc="F F F"
Tl       0.00000000       0.00000000       0.00000000       0.00000000       0.00000000       0.03095999
Tl       0.00000000       0.00000000       5.76161616       0.00000000       0.00000000      -0.03095999
2
Properties=species:S:1:pos:R:3:forces:R:3 energy=-1.6655902352462537 pbc="F F F"
Tl       0.00000000       0.00000000       0.00000000       0.00000000       0.00000000       0.02082975
Tl       0.00000000       0.00000000       5.82121212       0.00000000       0.00000000      -0.02082975
2
Properties=species:S:1:pos:R:3:forces:R:3 energy=-1.6645456905422524 pbc="F F F"
Tl       0.00000000       0.00000000       0.00000000       0.00000000       0.00000000       0.01490623
Tl       0.00000000       0.00000000       5.88080808       0.00000000       0.00000000      -0.01490623
2
Properties=species:S:1:pos:R:3:forces:R:3 energy=-1.6637470924450684 pbc="F F F"
Tl       0.00000000       0.00000000       0.00000000       0.00000000       0.00000000       0.01229617
Tl       0.00000000       0.00000000       5.94040404       0.00000000       0.00000000      -0.01229617
2
Properties=species:S:1:pos:R:3:forces:R:3 energy=-1.6630416295727655 pbc="F F F"
Tl       0.00000000       0.00000000       0.00000000       0.00000000       0.00000000       0.01155493
Tl       0.00000000       0.00000000       6.00000000       0.00000000       0.00000000      -0.01155493
