2
Properties=species:S:1:pos:R:3:forces:R:3 energy=180666.98806522845 pbc="F F F"
Tl       0.00000000       0.00000000       0.00000000       0.00000000       0.00000000 -1627544.12500000
Tl       0.00000000       0.00000000       0.18000000       0.00000000       0.00000000 1627544.12500000
2
Properties=species:S:1:pos:R:3:forces:R:3 energy=97438.05056522843 pbc="F F F"
Tl       0.00000000       0.00000000       0.00000000       0.00000000       0.00000000 -1171587.62500000
Tl       0.00000000       0.00000000       0.23878788       0.00000000       0.00000000 1171587.62500000
2
Properties=species:S:1:pos:R:3:forces:R:3 energy=43784.30056522844 pbc="F F F"
Tl       0.00000000       0.00000000       0.00000000       0.00000000       0.00000000 -666329.18750000
Tl       0.00000000       0.00000000       0.29757576       0.00000000       0.00000000  666329.18750000
2
Properties=species:S:1:pos:R:3:forces:R:3 energy=16237.130643353441 pbc="F F F"
Tl       0.00000000       0.00000000       0.00000000       0.00000000       0.00000000 -301410.00000000
Tl       0.00000000       0.00000000       0.35636364       0.00000000       0.00000000  301410.00000000
2
Properties=species:S:1:pos:R:3:forces:R:3 energy=4994.161405075358 pbc="F F F"
Tl       0.00000000       0.00000000       0.00000000       0.00000000       0.00000000 -106820.47656250
Tl       0.00000000       0.00000000       0.41515152       0.00000000       0.00000000  106820.47656250
2
Properties=species:S:1:pos:R:3:forces:R:3 energy=1432.154569141026 pbc="F F F"
Tl       0.00000000       0.00000000       0.00000000       0.00000000       0.00000000  -26740.95507812
Tl       0.00000000       0.00000000       0.47393939       0.00000000       0.00000000   26740.95507812
2
Properties=species:S:1:pos:R:3:forces:R:3 energy=577.5392127020492 pbc="F F F"
Tl       0.00000000       0.00000000       0.00000000       0.00000000       0.00000000   -6755.48583984
Tl       0.00000000       0.00000000       0.53272727       0.00000000       0.00000000    6755.48583984
2
Properties=species:S:1:pos:R:3:forces:R:3 energy=342.61947395152487 pbc="F F F"
Tl       0.00000000       0.00000000       0.00000000       0.00000000       0.00000000   -2580.87402344
Tl       0.00000000       0.00000000       0.59151515       0.00000000       0.00000000    2580.87402344
2
Properties=species:S:1:pos:R:3:forces:R:3 energy=243.00146250225805 pbc="F F F"
Tl       0.00000000       0.00000000       0.00000000       0.00000000       0.00000000    -842.80633545
Tl       0.00000000       0.00000000       0.65030303       0.00000000       0.00000000     842.80633545
2
Properties=species:S:1:pos:R:3:forces:R:3 energy=238.4079871921394 pbc="F F F"
Tl       0.00000000       0.00000000       0.00000000       0.00000000       0.00000000    -231.69741821
Tl       0.00000000       0.00000000       0.70909091       0.00000000       0.00000000     231.69741821
2
Properties=species:S:1:pos:R:3:forces:R:3 energy=214.968244207168 pbc="F F F"
Tl       0.00000000       0.00000000       0.00000000       0.00000000       0.00000000    -299.44281006
Tl       0.00000000       0.00000000       0.76787879       0.00000000       0.00000000     299.44281006
2
Properties=species:S:1:pos:R:3:forces:R:3 energy=200.53481839254673 pbc="F F F"
Tl       0.00000000       0.00000000       0.00000000       0.00000000       0.00000000    -266.39035034
Tl       0.00000000       0.00000000       0.82666667       0.00000000       0.00000000     266.39035034
2
Properties=species:S:1:pos:R:3:forces:R:3 energy=177.45081888547054 pbc="F F F"
Tl       0.00000000       0.00000000       0.00000000       0.00000000       0.00000000    -362.81137085
Tl       0.00000000       0.00000000       0.88545455       0.00000000       0.00000000     362.81137085
2
Properties=species:S:1:pos:R:3:forces:R:3 energy=157.76969722719323 pbc="F F F"
Tl       0.00000000       0.00000000       0.00000000       0.00000000       0.00000000    -327.69967651
Tl       0.00000000       0.00000000       0.94424242       0.00000000       0.00000000     327.69967651
2
Properties=species:S:1:pos:R:3:forces:R:3 energy=139.4185011757174 pbc="F F F"
Tl       0.00000000       0.00000000       0.00000000       0.00000000       0.00000000    -264.77801514
Tl       0.00000000       0.00000000       1.00303030       0.00000000       0.00000000     264.77801514
2
Properties=species:S:1:pos:R:3:forces:R:3 energy=126.03697836651105 pbc="F F F"
Tl       0.00000000       0.00000000       0.00000000       0.00000000       0.00000000    -225.05525208
Tl       0.00000000       0.00000000       1.06181818       0.00000000       0.00000000     225.05525208
2
Properties=species:S:1:pos:R:3:forces:R:3 energy=111.86597354197578 pbc="F F F"
Tl       0.00000000       0.00000000       0.00000000       0.00000000       0.00000000    -262.68765259
Tl       0.00000000       0.00000000       1.12060606       0.00000000       0.00000000     262.68765259
2
Properties=species:S:1:pos:R:3:forces:R:3 energy=96.90711941788386 pbc="F F F"
Tl       0.00000000       0.00000000       0.00000000       0.00000000       0.00000000    -246.80645752
Tl       0.00000000       0.00000000       1.17939394       0.00000000       0.00000000     246.80645752
2
Properties=species:S:1:pos:R:3:forces:R:3 energy=84.81943550879966 pbc="F F F"
Tl       0.00000000       0.00000000       0.00000000       0.00000000       0.00000000    -185.51319885
Tl       0.00000000       0.00000000       1.23818182       0.00000000       0.00000000     185.51319885
2
Properties=species:S:1:pos:R:3:forces:R:3 energy=73.74083840500714 pbc="F F F"
Tl       0.00000000       0.00000000       0.00000000       0.00000000       0.00000000    -192.57017517
Tl       0.00000000       0.00000000       1.29696970       0.00000000       0.00000000     192.57017517
2
Properties=species:S:1:pos:R:3:forces:R:3 energy=62.63978060130128 pbc="F F F"
Tl       0.00000000       0.00000000       0.00000000       0.00000000       0.00000000    -186.62463379
Tl       0.00000000       0.00000000       1.35575758       0.00000000       0.00000000     186.62463379
2
Properties=species:S:1:pos:R:3:forces:R:3 energy=51.87697230824933 pbc="F F F"
Tl       0.00000000       0.00000000       0.00000000       0.00000000       0.00000000    -175.59156799
Tl       0.00000000       0.00000000       1.41454545       0.00000000       0.00000000     175.59156799
2
Properties=species:S:1:pos:R:3:forces:R:3 energy=42.14715004774584 pbc="F F F"
Tl       0.00000000       0.00000000       0.00000000       0.00000000       0.00000000    -153.41912842
Tl       0.00000000       0.00000000       1.47333333       0.00000000       0.00000000     153.41912842
2
Properties=species:S:1:pos:R:3:forces:R:3 energy=33.90286287336363 pbc="F F F"
Tl       0.00000000       0.00000000       0.00000000       0.00000000       0.00000000    -129.47482300
Tl       0.00000000       0.00000000       1.53212121       0.00000000       0.00000000     129.47482300
2
Properties=species:S:1:pos:R:3:forces:R:3 energy=26.835768893821243 pbc="F F F"
Tl       0.00000000       0.00000000       0.00000000       0.00000000       0.00000000    -111.23908997
Tl       0.00000000       0.00000000       1.59090909       0.00000000       0.00000000     111.23908997
2
Properties=species:S:1:pos:R:3:forces:R:3 energy=20.813242598976785 pbc="F F F"
Tl       0.00000000       0.00000000       0.00000000       0.00000000       0.00000000     -92.67016602
Tl       0.00000000       0.00000000       1.64969697       0.00000000       0.00000000      92.67016602
2
Properties=species:S:1:pos:R:3:forces:R:3 energy=15.943546152273315 pbc="F F F"
Tl       0.00000000       0.00000000       0.00000000       0.00000000       0.00000000     -73.00840759
Tl       0.00000000       0.00000000       1.70848485       0.00000000       0.00000000      73.00840759
2
Properties=species:S:1:pos:R:3:forces:R:3 energy=12.211884383414642 pbc="F F F"
Tl       0.00000000       0.00000000       0.00000000       0.00000000       0.00000000     -55.29187012
Tl       0.00000000       0.00000000       1.76727273       0.00000000       0.00000000      55.29187012
2
Properties=species:S:1:pos:R:3:forces:R:3 energy=9.303818583389283 pbc="F F F"
Tl       0.00000000       0.00000000       0.00000000       0.00000000       0.00000000     -43.89059830
Tl       0.00000000       0.00000000       1.82606061       0.00000000       0.00000000      43.89059830
2
Properties=species:S:1:pos:R:3:forces:R:3 energy=7.018043511680584 pbc="F F F"
Tl       0.00000000       0.00000000       0.00000000       0.00000000       0.00000000     -34.52151871
Tl       0.00000000       0.00000000       1.88484848       0.00000000       0.00000000      34.52151871
2
Properties=species:S:1:pos:R:3:forces:R:3 energy=5.195985212867102 pbc="F F F"
Tl       0.00000000       0.00000000       0.00000000       0.00000000       0.00000000     -27.60458565
Tl       0.00000000       0.00000000       1.94363636       0.00000000       0.00000000      27.60458565
2
Properties=species:S:1:pos:R:3:forces:R:3 energy=3.740916502634526 pbc="F F F"
Tl       0.00000000       0.00000000       0.00000000       0.00000000       0.00000000     -22.23436546
Tl       0.00000000       0.00000000       2.00242424       0.00000000       0.00000000      22.23436546
2
Properties=species:S:1:pos:R:3:forces:R:3 energy=2.5566418669321154 pbc="F F F"
Tl       0.00000000       0.00000000       0.00000000       0.00000000       0.00000000     -18.22411537
Tl       0.00000000       0.00000000       2.06121212       0.00000000       0.00000000      18.22411537
2
Properties=species:S:1:pos:R:3:forces:R:3 energy=1.5806223983500485 pbc="F F F"
Tl       0.00000000       0.00000000       0.00000000       0.00000000       0.00000000     -15.07451534
Tl       0.00000000       0.00000000       2.12000000       0.00000000       0.00000000      15.07451534
2
Properties=species:S:1:pos:R:3:forces:R:3 energy=0.7722069877212765 pbc="F F F"
Tl       0.00000000       0.00000000       0.00000000       0.00000000       0.00000000     -12.55419540
Tl       0.00000000       0.00000000       2.17878788       0.00000000       0.00000000      12.55419540
2
Properties=species:S:1:pos:R:3:forces:R:3 energy=0.09537268516151529 pbc="F F F"
Tl       0.00000000       0.00000000       0.00000000       0.00000000       0.00000000     -10.50775433
Tl       0.00000000       0.00000000       2.23757576       0.00000000       0.00000000      10.50775433
2
Properties=species:S:1:pos:R:3:forces:R:3 energy=-0.46806974949672286 pbc="F F F"
Tl       0.00000000       0.00000000       0.00000000       0.00000000       0.00000000      -8.69225597
Tl       0.00000000       0.00000000       2.29636364       0.00000000       0.00000000       8.69225597
2
Properties=species:S:1:pos:R:3:forces:R:3 energy=-0.9284677784530282 pbc="F F F"
Tl       0.00000000       0.00000000       0.00000000       0.00000000       0.00000000      -6.99324036
Tl       0.00000000       0.00000000       2.35515152       0.00000000       0.00000000       6.99324036
2
Properties=species:S:1:pos:R:3:forces:R:3 energy=-1.29542675873709 pbc="F F F"
Tl       0.00000000       0.00000000       0.00000000       0.00000000       0.00000000      -5.54221964
Tl       0.00000000       0.00000000       2.41393939       0.00000000       0.00000000       5.54221964
2
Properties=species:S:1:pos:R:3:forces:R:3 energy=-1.5853261005861625 pbc="F F F"
Tl       0.00000000       0.00000000       0.00000000       0.00000000       0.00000000      -4.35684967
Tl       0.00000000       0.00000000       2.47272727       0.00000000       0.00000000       4.35684967
2
Properties=species:S:1:pos:R:3:forces:R:3 energy=-1.8109283497076338 pbc="F F F"
Tl       0.00000000       0.00000000       0.00000000       0.00000000       0.00000000      -3.34022212
Tl       0.00000000       0.00000000       2.53151515       0.00000000       0.00000000       3.34022212
2
Properties=species:S:1:pos:R:3:forces:R:3 energy=-1.9809705568413805 pbc="F F F"
Tl       0.00000000       0.00000000       0.00000000       0.00000000       0.00000000      -2.47372675
Tl       0.00000000       0.00000000       2.59030303       0.00000000       0.00000000       2.47372675
2
Properties=species:S:1:pos:R:3:forces:R:3 energy=-2.105266781477072 pbc="F F F"
Tl       0.00000000       0.00000000       0.00000000       0.00000000       0.00000000      -1.78280580
Tl       0.00000000       0.00000000       2.64909091       0.00000000       0.00000000       1.78280580
2
Properties=species:S:1:pos:R:3:forces:R:3 energy=-2.193413654031785 pbc="F F F"
Tl       0.00000000       0.00000000       0.00000000       0.00000000       0.00000000      -1.23558366
Tl       0.00000000       0.00000000       2.70787879       0.00000000       0.00000000       1.23558366
2
Properties=species:S:1:pos:R:3:forces:R:3 energy=-2.2524111334927075 pbc="F F F"
Tl       0.00000000       0.00000000       0.00000000       0.00000000       0.00000000      -0.78518665
Tl       0.00000000       0.00000000       2.76666667       0.00000000       0.00000000       0.78518665
2
Properties=species:S:1:pos:R:3:forces:R:3 energy=-2.28730460432862 pbc="F F F"
Tl       0.00000000       0.00000000       0.00000000       0.00000000       0.00000000      -0.41582325
Tl       0.00000000       0.00000000       2.82545455       0.00000000       0.00000000       0.41582325
2
Properties=species:S:1:pos:R:3:forces:R:3 energy=-2.303010373186179 pbc="F F F"
Tl       0.00000000       0.00000000       0.00000000       0.00000000       0.00000000      -0.13332298
Tl       0.00000000       0.00000000       2.88424242       0.00000000       0.00000000       0.13332298
2
Properties=species:S:1:pos:R:3:forces:R:3 energy=-2.304674182404638 pbc="F F F"
Tl       0.00000000       0.00000000       0.00000000       0.00000000       0.00000000       0.06323677
Tl       0.00000000       0.00000000       2.94303030       0.00000000       0.00000000      -0.06323677
2
Properties=species:S:1:pos:R:3:forces:R:3 energy=-2.2969798081356707 pbc="F F F"
Tl       0.00000000       0.00000000       0.00000000       0.00000000       0.00000000       0.18835491
Tl       0.00000000       0.00000000       3.00181818       0.00000000       0.00000000      -0.18835491
2
Properties=species:S:1:pos:R:3:forces:R:3 energy=-2.283519057087078 pbc="F F F"
Tl       0.00000000       0.00000000       0.00000000       0.00000000       0.00000000       0.26269972
Tl       0.00000000       0.00000000       3.06060606       0.00000000       0.00000000      -0.26269972
2
Properties=species:S:1:pos:R:3:forces:R:3 energy=-2.2667774050593072 pbc="F F F"
Tl       0.00000000       0.00000000       0.00000000       0.00000000       0.00000000       0.30186114
Tl       0.00000000       0.00000000       3.11939394       0.00000000       0.00000000      -0.30186114
2
Properties=species:S:1:pos:R:3:forces:R:3 energy=-2.2485472457154287 pbc="F F F"
Tl       0.00000000       0.00000000       0.00000000       0.00000000       0.00000000       0.31443831
Tl       0.00000000       0.00000000       3.17818182       0.00000000       0.00000000      -0.31443831
2
Properties=species:S:1:pos:R:3:forces:R:3 energy=-2.2302080851129347 pbc="F F F"
Tl       0.00000000       0.00000000       0.00000000       0.00000000       0.00000000       0.30661932
Tl       0.00000000       0.00000000       3.23696970       0.00000000       0.00000000      -0.30661932
2
Properties=species:S:1:pos:R:3:forces:R:3 energy=-2.2127566416415596 pbc="F F F"
Tl       0.00000000       0.00000000       0.00000000       0.00000000       0.00000000       0.28554884
Tl       0.00000000       0.00000000       3.29575758       0.00000000       0.00000000      -0.28554884
2
Properties=species:S:1:pos:R:3:forces:R:3 energy=-2.196736650582485 pbc="F F F"
Tl       0.00000000       0.00000000       0.00000000       0.00000000       0.00000000       0.25921041
Tl       0.00000000       0.00000000       3.35454545       0.00000000       0.00000000      -0.25921041
2
Properties=species:S:1:pos:R:3:forces:R:3 energy=-2.1822509592348407 pbc="F F F"
Tl       0.00000000       0.00000000       0.00000000       0.00000000       0.00000000       0.23427533
Tl       0.00000000       0.00000000       3.41333333       0.00000000       0.00000000      -0.23427533
2
Properties=species:S:1:pos:R:3:forces:R:3 energy=-2.169073964745645 pbc="F F F"
Tl       0.00000000       0.00000000       0.00000000       0.00000000       0.00000000       0.21527430
Tl       0.00000000       0.00000000       3.47212121       0.00000000       0.00000000      -0.21527430
2
Properties=species:S:1:pos:R:3:forces:R:3 energy=-2.156776376878607 pbc="F F F"
Tl       0.00000000       0.00000000       0.00000000       0.00000000       0.00000000       0.20451677
Tl       0.00000000       0.00000000       3.53090909       0.00000000       0.00000000      -0.20451677
2
Properties=species:S:1:pos:R:3:forces:R:3 energy=-2.144868972290924 pbc="F F F"
Tl       0.00000000       0.00000000       0.00000000       0.00000000       0.00000000       0.20178030
Tl       0.00000000       0.00000000       3.58969697       0.00000000       0.00000000      -0.20178030
2
Properties=species:S:1:pos:R:3:forces:R:3 energy=-2.132937159695435 pbc="F F F"
Tl       0.00000000       0.00000000       0.00000000       0.00000000       0.00000000       0.20490253
Tl       0.00000000       0.00000000       3.64848485       0.00000000       0.00000000      -0.20490253
2
Properties=species:S:1:pos:R:3:forces:R:3 energy=-2.1207144569726424 pbc="F F F"
Tl       0.00000000       0.00000000       0.00000000       0.00000000       0.00000000       0.21127844
Tl       0.00000000       0.00000000       3.70727273       0.00000000       0.00000000      -0.21127844
2
Properties=species:S:1:pos:R:3:forces:R:3 energy=-2.1080677707188937 pbc="F F F"
Tl       0.00000000       0.00000000       0.00000000       0.00000000       0.00000000       0.21906891
Tl       0.00000000       0.00000000       3.76606061       0.00000000       0.00000000      -0.21906891
2
Properties=species:S:1:pos:R:3:forces:R:3 energy=-2.094944766408575 pbc="F F F"
Tl       0.00000000       0.00000000       0.00000000       0.00000000       0.00000000       0.22750701
Tl       0.00000000       0.00000000       3.82484848       0.00000000       0.00000000      -0.22750701
2
Properties=species:S:1:pos:R:3:forces:R:3 energy=-2.081307938313241 pbc="F F F"
Tl       0.00000000       0.00000000       0.00000000       0.00000000       0.00000000       0.23653062
Tl       0.00000000       0.00000000       3.88363636       0.00000000       0.00000000      -0.23653062
2
Properties=species:S:1:pos:R:3:forces:R:3 energy=-2.0671208295732755 pbc="F F F"
Tl       0.00000000       0.00000000       0.00000000       0.00000000       0.00000000       0.24624072
Tl       0.00000000       0.00000000       3.94242424       0.00000000       0.00000000      -0.24624072
2
Properties=species:S:1:pos:R:3:forces:R:3 energy=-2.0523441596479115 pbc="F F F"
Tl       0.00000000       0.00000000       0.00000000       0.00000000       0.00000000       0.25651386
Tl       0.00000000       0.00000000       4.00121212       0.00000000       0.00000000      -0.25651386
2
Properties=species:S:1:pos:R:3:forces:R:3 energy=-2.036959242357041 pbc="F F F"
Tl       0.00000000       0.00000000       0.00000000       0.00000000       0.00000000       0.26686728
Tl       0.00000000       0.00000000       4.06000000       0.00000000       0.00000000      -0.26686728
2
Properties=species:S:1:pos:R:3:forces:R:3 energy=-2.0209819883890208 pbc="F F F"
Tl       0.00000000       0.00000000       0.00000000       0.00000000       0.00000000       0.27653432
Tl       0.00000000       0.00000000       4.11878788       0.00000000       0.00000000      -0.27653432
2
Properties=species:S:1:pos:R:3:forces:R:3 energy=-2.0044758971133643 pbc="F F F"
Tl       0.00000000       0.00000000       0.00000000       0.00000000       0.00000000       0.28466189
Tl       0.00000000       0.00000000       4.17757576       0.00000000       0.00000000      -0.28466189
2
Properties=species:S:1:pos:R:3:forces:R:3 energy=-1.9875560296691124 pbc="F F F"
Tl       0.00000000       0.00000000       0.00000000       0.00000000       0.00000000       0.29054570
Tl       0.00000000       0.00000000       4.23636364       0.00000000       0.00000000      -0.29054570
2
Properties=species:S:1:pos:R:3:forces:R:3 energy=-1.9703658665235522 pbc="F F F"
Tl       0.00000000       0.00000000       0.00000000       0.00000000       0.00000000       0.29382780
Tl       0.00000000       0.00000000       4.29515152       0.00000000       0.00000000      -0.29382780
2
Properties=species:S:1:pos:R:3:forces:R:3 energy=-1.9530586719772622 pbc="F F F"
Tl       0.00000000       0.00000000       0.00000000       0.00000000       0.00000000       0.29456049
Tl       0.00000000       0.00000000       4.35393939       0.00000000       0.00000000      -0.29456049
2
Properties=species:S:1:pos:R:3:forces:R:3 energy=-1.935775191355548 pbc="F F F"
Tl       0.00000000       0.00000000       0.00000000       0.00000000       0.00000000       0.29312506
Tl       0.00000000       0.00000000       4.41272727       0.00000000       0.00000000      -0.29312506
2
Properties=species:S:1:pos:R:3:forces:R:3 energy=-1.918626589408878 pbc="F F F"
Tl       0.00000000       0.00000000       0.00000000       0.00000000       0.00000000       0.29005322
Tl       0.00000000       0.00000000       4.47151515       0.00000000       0.00000000      -0.29005322
2
Properties=species:S:1:pos:R:3:forces:R:3 energy=-1.901693820588344 pbc="F F F"
Tl       0.00000000       0.00000000       0.00000000       0.00000000       0.00000000       0.28583014
Tl       0.00000000       0.00000000       4.53030303       0.00000000       0.00000000      -0.28583014
2
Properties=species:S:1:pos:R:3:forces:R:3 energy=-1.8850368196642924 pbc="F F F"
Tl       0.00000000       0.00000000       0.00000000       0.00000000       0.00000000       0.28076419
Tl       0.00000000       0.00000000       4.58909091       0.00000000       0.00000000      -0.28076419
2
Properties=species:S:1:pos:R:3:forces:R:3 energy=-1.8686976771955857 pbc="F F F"
Tl       0.00000000       0.00000000       0.00000000       0.00000000       0.00000000       0.27498746
Tl       0.00000000       0.00000000       4.64787879       0.00000000       0.00000000      -0.27498746
2
Properties=species:S:1:pos:R:3:forces:R:3 energy=-1.8527168646642684 pbc="F F F"
Tl       0.00000000       0.00000000       0.00000000       0.00000000       0.00000000       0.26853240
Tl       0.00000000       0.00000000       4.70666667       0.00000000       0.00000000      -0.26853240
2
Properties=species:S:1:pos:R:3:forces:R:3 energy=-1.8371365121470544 pbc="F F F"
Tl       0.00000000       0.00000000       0.00000000       0.00000000       0.00000000       0.26147380
Tl       0.00000000       0.00000000       4.76545455       0.00000000       0.00000000      -0.26147380
2
Properties=species:S:1:pos:R:3:forces:R:3 energy=-1.8219820944342466 pbc="F F F"
Tl       0.00000000       0.00000000       0.00000000       0.00000000       0.00000000       0.25399747
Tl       0.00000000       0.00000000       4.82424242       0.00000000       0.00000000      -0.25399747
2
Properties=species:S:1:pos:R:3:forces:R:3 energy=-1.8072750133614515 pbc="F F F"
Tl       0.00000000       0.00000000       0.00000000       0.00000000       0.00000000       0.24638632
Tl       0.00000000       0.00000000       4.88303030       0.00000000       0.00000000      -0.24638632
2
Properties=species:S:1:pos:R:3:forces:R:3 energy=-1.7930111306339946 pbc="F F F"
Tl       0.00000000       0.00000000       0.00000000       0.00000000       0.00000000       0.23892662
Tl       0.00000000       0.00000000       4.94181818       0.00000000       0.00000000      -0.23892662
2
Properties=species:S:1:pos:R:3:forces:R:3 energy=-1.779176189006831 pbc="F F F"
Tl       0.00000000       0.00000000       0.00000000       0.00000000       0.00000000       0.23174307
Tl       0.00000000       0.00000000       5.00060606       0.00000000       0.00000000      -0.23174307
2
Properties=species:S:1:pos:R:3:forces:R:3 energy=-1.7657592144101277 pbc="F F F"
Tl       0.00000000       0.00000000       0.00000000       0.00000000       0.00000000       0.22467445
Tl       0.00000000       0.00000000       5.05939394       0.00000000       0.00000000      -0.22467445
2
Properties=species:S:1:pos:R:3:forces:R:3 energy=-1.7527674159425068 pbc="F F F"
Tl       0.00000000       0.00000000       0.00000000       0.00000000       0.00000000       0.21723837
Tl       0.00000000       0.00000000       5.11818182       0.00000000       0.00000000      -0.21723837
2
Properties=species:S:1:pos:R:3:forces:R:3 energy=-1.7402405004892578 pbc="F F F"
Tl       0.00000000       0.00000000       0.00000000       0.00000000       0.00000000       0.20869185
Tl       0.00000000       0.00000000       5.17696970       0.00000000       0.00000000      -0.20869185
2
Properties=species:S:1:pos:R:3:forces:R:3 energy=-1.728269895928224 pbc="F F F"
Tl       0.00000000       0.00000000       0.00000000       0.00000000       0.00000000       0.19820438
Tl       0.00000000       0.00000000       5.23575758       0.00000000       0.00000000      -0.19820438
2
Properties=species:S:1:pos:R:3:forces:R:3 energy=-1.716989223890106 pbc="F F F"
Tl       0.00000000       0.00000000       0.00000000       0.00000000       0.00000000       0.18506446
Tl       0.00000000       0.00000000       5.29454545       0.00000000       0.00000000      -0.18506446
2
Properties=species:S:1:pos:R:3:forces:R:3 energy=-1.706569709616837 pbc="F F F"
Tl       0.00000000       0.00000000       0.00000000       0.00000000       0.00000000       0.16889022
Tl       0.00000000       0.00000000       5.35333333       0.00000000       0.00000000      -0.16889022
2
Properties=species:S:1:pos:R:3:forces:R:3 energy=-1.697189364192347 pbc="F F F"
Tl       0.00000000       0.00000000       0.00000000       0.00000000       0.00000000       0.14978492
Tl       0.00000000       0.00000000       5.41212121       0.00000000       0.00000000      -0.14978492
2
Properties=species:S:1:pos:R:3:forces:R:3 energy=-1.689004369561338 pbc="F F F"
Tl       0.00000000       0.00000000       0.00000000       0.00000000       0.00000000       0.12836823
Tl       0.00000000       0.00000000       5.47090909       0.00000000       0.00000000      -0.12836823
2
Properties=species:S:1:pos:R:3:forces:R:3 energy=-1.6821206782079705 pbc="F F F"
Tl       0.00000000       0.00000000       0.00000000       0.00000000       0.00000000       0.10571428
Tl       0.00000000       0.00000000       5.52969697       0.00000000       0.00000000      -0.10571428
2
Properties=species:S:1:pos:R:3:forces:R:3 energy=-1.6765715416208082 pbc="F F F"
Tl       0.00000000       0.00000000       0.00000000       0.00000000       0.00000000       0.08321124
Tl       0.00000000       0.00000000       5.58848485       0.00000000       0.00000000      -0.08321124
2
Properties=species:S:1:pos:R:3:forces:R:3 energy=-1.6723058705480407 pbc="F F F"
Tl       0.00000000       0.00000000       0.00000000       0.00000000       0.00000000       0.06231819
Tl       0.00000000       0.00000000       5.64727273       0.00000000       0.00000000      -0.06231819
2
Properties=species:S:1:pos:R:3:forces:R:3 energy=-1.6691857890391602 pbc="F F F"
Tl       0.00000000       0.00000000       0.00000000       0.00000000       0.00000000       0.04436749
Tl       0.00000000       0.00000000       5.70606061       0.00000000       0.00000000      -0.04436749
2
Properties=species:S:1:pos:R:3:forces:R:3 energy=-1.6670111836390538 pbc="F F F"
Tl       0.00000000       0.00000000       0.00000000       0.00000000       0.00000000       0.03028629
Tl       0.00000000       0.00000000       5.76484848       0.00000000       0.00000000      -0.03028629
2
Properties=species:S:1:pos:R:3:forces:R:3 energy=-1.6655397796498919 pbc="F F F"
Tl       0.00000000       0.00000000       0.00000000       0.00000000       0.00000000       0.02050916
Tl       0.00000000       0.00000000       5.82363636       0.00000000       0.00000000      -0.02050916
2
Properties=species:S:1:pos:R:3:forces:R:3 energy=-1.664520704297804 pbc="F F F"
Tl       0.00000000       0.00000000       0.00000000       0.00000000       0.00000000       0.01479443
Tl       0.00000000       0.00000000       5.88242424       0.00000000       0.00000000      -0.01479443
2
Properties=species:S:1:pos:R:3:forces:R:3 energy=-1.6637371842493827 pbc="F F F"
Tl       0.00000000       0.00000000       0.00000000       0.00000000       0.00000000       0.01227754
Tl       0.00000000       0.00000000       5.94121212       0.00000000       0.00000000      -0.01227754
2
Properties=species:S:1:pos:R:3:forces:R:3 energy=-1.6630416295727655 pbc="F F F"
Tl       0.00000000       0.00000000       0.00000000       0.00000000       0.00000000       0.01155493
Tl       0.00000000       0.00000000       6.00000000       0.00000000       0.00000000      -0.01155493
