2
Properties=species:S:1:pos:R:3:forces:R:3 energy=180666.8161902221 pbc="F F F"
Tl       0.00000000       0.00000000       0.00000000       0.00000000       0.00000000 -1627543.12500000
Tl       0.00000000       0.00000000       0.18000000       0.00000000       0.00000000 1627543.12500000
2
Properties=species:S:1:pos:R:3:forces:R:3 energy=97437.7302527221 pbc="F F F"
Tl       0.00000000       0.00000000       0.00000000       0.00000000       0.00000000 -1171584.75000000
Tl       0.00000000       0.00000000       0.23878788       0.00000000       0.00000000 1171584.75000000
2
Properties=species:S:1:pos:R:3:forces:R:3 energy=43784.3318152221 pbc="F F F"
Tl       0.00000000       0.00000000       0.00000000       0.00000000       0.00000000 -666329.56250000
Tl       0.00000000       0.00000000       0.29757576       0.00000000       0.00000000  666329.56250000
2
Properties=species:S:1:pos:R:3:forces:R:3 energy=16237.128690222105 pbc="F F F"
Tl       0.00000000       0.00000000       0.00000000       0.00000000       0.00000000 -301409.96875000
Tl       0.00000000       0.00000000       0.35636364       0.00000000       0.00000000  301409.96875000
2
Properties=species:S:1:pos:R:3:forces:R:3 energy=4994.152616006522 pbc="F F F"
Tl       0.00000000       0.00000000       0.00000000       0.00000000       0.00000000 -106820.33593750
Tl       0.00000000       0.00000000       0.41515152       0.00000000       0.00000000  106820.33593750
2
Properties=species:S:1:pos:R:3:forces:R:3 energy=1432.1577429628153 pbc="F F F"
Tl       0.00000000       0.00000000       0.00000000       0.00000000       0.00000000  -26740.97265625
Tl       0.00000000       0.00000000       0.47393939       0.00000000       0.00000000   26740.97265625
2
Properties=species:S:1:pos:R:3:forces:R:3 energy=577.5403113285261 pbc="F F F"
Tl       0.00000000       0.00000000       0.00000000       0.00000000       0.00000000   -6755.48681641
Tl       0.00000000       0.00000000       0.53272727       0.00000000       0.00000000    6755.48681641
2
Properties=species:S:1:pos:R:3:forces:R:3 energy=342.6195960155017 pbc="F F F"
Tl       0.00000000       0.00000000       0.00000000       0.00000000       0.00000000   -2580.87451172
Tl       0.00000000       0.00000000       0.59151515       0.00000000       0.00000000    2580.87451172
2
Properties=species:S:1:pos:R:3:forces:R:3 energy=243.0014624959224 pbc="F F F"
Tl       0.00000000       0.00000000       0.00000000       0.00000000       0.00000000    -842.76165771
Tl       0.00000000       0.00000000       0.65030303       0.00000000       0.00000000     842.76165771
2
Properties=species:S:1:pos:R:3:forces:R:3 energy=238.4082313327644 pbc="F F F"
Tl       0.00000000       0.00000000       0.00000000       0.00000000       0.00000000    -231.69741821
Tl       0.00000000       0.00000000       0.70909091       0.00000000       0.00000000     231.69741821
2
Properties=species:S:1:pos:R:3:forces:R:3 energy=214.96806110169925 pbc="F F F"
Tl       0.00000000       0.00000000       0.00000000       0.00000000       0.00000000    -299.44317627
Tl       0.00000000       0.00000000       0.76787879       0.00000000       0.00000000     299.44317627
2
Properties=species:S:1:pos:R:3:forces:R:3 energy=200.53475735105482 pbc="F F F"
Tl       0.00000000       0.00000000       0.00000000       0.00000000       0.00000000    -266.38815308
Tl       0.00000000       0.00000000       0.82666667       0.00000000       0.00000000     266.38815308
2
Properties=species:S:1:pos:R:3:forces:R:3 energy=177.45104776097082 pbc="F F F"
Tl       0.00000000       0.00000000       0.00000000       0.00000000       0.00000000    -362.81234741
Tl       0.00000000       0.00000000       0.88545455       0.00000000       0.00000000     362.81234741
2
Properties=species:S:1:pos:R:3:forces:R:3 energy=157.76984981191603 pbc="F F F"
Tl       0.00000000       0.00000000       0.00000000       0.00000000       0.00000000    -327.69952393
Tl       0.00000000       0.00000000       0.94424242       0.00000000       0.00000000     327.69952393
2
Properties=species:S:1:pos:R:3:forces:R:3 energy=139.41859272211613 pbc="F F F"
Tl       0.00000000       0.00000000       0.00000000       0.00000000       0.00000000    -264.77816772
Tl       0.00000000       0.00000000       1.00303030       0.00000000       0.00000000     264.77816772
2
Properties=species:S:1:pos:R:3:forces:R:3 energy=126.03696310138633 pbc="F F F"
Tl       0.00000000       0.00000000       0.00000000       0.00000000       0.00000000    -225.05496216
Tl       0.00000000       0.00000000       1.06181818       0.00000000       0.00000000     225.05496216
2
Properties=species:S:1:pos:R:3:forces:R:3 energy=111.86591250048389 pbc="F F F"
Tl       0.00000000       0.00000000       0.00000000       0.00000000       0.00000000    -262.68722534
Tl       0.00000000       0.00000000       1.12060606       0.00000000       0.00000000     262.68722534
2
Properties=species:S:1:pos:R:3:forces:R:3 energy=96.9071422997318 pbc="F F F"
Tl       0.00000000       0.00000000       0.00000000       0.00000000       0.00000000    -246.80633545
Tl       0.00000000       0.00000000       1.17939394       0.00000000       0.00000000     246.80633545
2
Properties=species:S:1:pos:R:3:forces:R:3 energy=84.81942787306947 pbc="F F F"
Tl       0.00000000       0.00000000       0.00000000       0.00000000       0.00000000    -185.51307678
Tl       0.00000000       0.00000000       1.23818182       0.00000000       0.00000000     185.51307678
2
Properties=species:S:1:pos:R:3:forces:R:3 energy=73.7408612868551 pbc="F F F"
Tl       0.00000000       0.00000000       0.00000000       0.00000000       0.00000000    -192.57014465
Tl       0.00000000       0.00000000       1.29696970       0.00000000       0.00000000     192.57014465
2
Properties=species:S:1:pos:R:3:forces:R:3 energy=62.63977296873893 pbc="F F F"
Tl       0.00000000       0.00000000       0.00000000       0.00000000       0.00000000    -186.62466431
Tl       0.00000000       0.00000000       1.35575758       0.00000000       0.00000000     186.62466431
2
Properties=species:S:1:pos:R:3:forces:R:3 energy=51.876987560702744 pbc="F F F"
Tl       0.00000000       0.00000000       0.00000000       0.00000000       0.00000000    -175.59169006
Tl       0.00000000       0.00000000       1.41454545       0.00000000       0.00000000     175.59169006
2
Properties=species:S:1:pos:R:3:forces:R:3 energy=42.147153856107465 pbc="F F F"
Tl       0.00000000       0.00000000       0.00000000       0.00000000       0.00000000    -153.41915894
Tl       0.00000000       0.00000000       1.47333333       0.00000000       0.00000000     153.41915894
2
Properties=species:S:1:pos:R:3:forces:R:3 energy=33.90285905549854 pbc="F F F"
Tl       0.00000000       0.00000000       0.00000000       0.00000000       0.00000000    -129.47480774
Tl       0.00000000       0.00000000       1.53212121       0.00000000       0.00000000     129.47480774
2
Properties=species:S:1:pos:R:3:forces:R:3 energy=26.8357688874856 pbc="F F F"
Tl       0.00000000       0.00000000       0.00000000       0.00000000       0.00000000    -111.23908234
Tl       0.00000000       0.00000000       1.59090909       0.00000000       0.00000000     111.23908234
2
Properties=species:S:1:pos:R:3:forces:R:3 energy=20.81324259264114 pbc="F F F"
Tl       0.00000000       0.00000000       0.00000000       0.00000000       0.00000000     -92.67015076
Tl       0.00000000       0.00000000       1.64969697       0.00000000       0.00000000      92.67015076
2
Properties=species:S:1:pos:R:3:forces:R:3 energy=15.94355568901648 pbc="F F F"
Tl       0.00000000       0.00000000       0.00000000       0.00000000       0.00000000     -73.00842285
Tl       0.00000000       0.00000000       1.70848485       0.00000000       0.00000000      73.00842285
2
Properties=species:S:1:pos:R:3:forces:R:3 energy=12.211874853007123 pbc="F F F"
Tl       0.00000000       0.00000000       0.00000000       0.00000000       0.00000000     -55.29186249
Tl       0.00000000       0.00000000       1.76727273       0.00000000       0.00000000      55.29186249
2
Properties=species:S:1:pos:R:3:forces:R:3 energy=9.303812861343385 pbc="F F F"
Tl       0.00000000       0.00000000       0.00000000       0.00000000       0.00000000     -43.89058304
Tl       0.00000000       0.00000000       1.82606061       0.00000000       0.00000000      43.89058304
2
Properties=species:S:1:pos:R:3:forces:R:3 energy=7.018038749644646 pbc="F F F"
Tl       0.00000000       0.00000000       0.00000000       0.00000000       0.00000000     -34.52153397
Tl       0.00000000       0.00000000       1.88484848       0.00000000       0.00000000      34.52153397
2
Properties=species:S:1:pos:R:3:forces:R:3 energy=5.195982351844153 pbc="F F F"
Tl       0.00000000       0.00000000       0.00000000       0.00000000       0.00000000     -27.60458183
Tl       0.00000000       0.00000000       1.94363636       0.00000000       0.00000000      27.60458183
2
Properties=species:S:1:pos:R:3:forces:R:3 energy=3.7409136416115767 pbc="F F F"
Tl       0.00000000       0.00000000       0.00000000       0.00000000       0.00000000     -22.23436737
Tl       0.00000000       0.00000000       2.00242424       0.00000000       0.00000000      22.23436737
2
Properties=species:S:1:pos:R:3:forces:R:3 energy=2.5566394827463244 pbc="F F F"
Tl       0.00000000       0.00000000       0.00000000       0.00000000       0.00000000     -18.22411346
Tl       0.00000000       0.00000000       2.06121212       0.00000000       0.00000000      18.22411346
2
Properties=species:S:1:pos:R:3:forces:R:3 energy=1.5806209678385739 pbc="F F F"
Tl       0.00000000       0.00000000       0.00000000       0.00000000       0.00000000     -15.07451534
Tl       0.00000000       0.00000000       2.12000000       0.00000000       0.00000000      15.07451534
2
Properties=species:S:1:pos:R:3:forces:R:3 energy=0.7722060277113159 pbc="F F F"
Tl       0.00000000       0.00000000       0.00000000       0.00000000       0.00000000     -12.55419827
Tl       0.00000000       0.00000000       2.17878788       0.00000000       0.00000000      12.55419827
2
Properties=species:S:1:pos:R:3:forces:R:3 energy=0.09537077781288247 pbc="F F F"
Tl       0.00000000       0.00000000       0.00000000       0.00000000       0.00000000     -10.50775146
Tl       0.00000000       0.00000000       2.23757576       0.00000000       0.00000000      10.50775146
2
Properties=species:S:1:pos:R:3:forces:R:3 energy=-0.4680711800081975 pbc="F F F"
Tl       0.00000000       0.00000000       0.00000000       0.00000000       0.00000000      -8.69225407
Tl       0.00000000       0.00000000       2.29636364       0.00000000       0.00000000       8.69225407
2
Properties=species:S:1:pos:R:3:forces:R:3 energy=-0.9284684873731213 pbc="F F F"
Tl       0.00000000       0.00000000       0.00000000       0.00000000       0.00000000      -6.99323893
Tl       0.00000000       0.00000000       2.35515152       0.00000000       0.00000000       6.99323893
2
Properties=species:S:1:pos:R:3:forces:R:3 energy=-1.2954272355742482 pbc="F F F"
Tl       0.00000000       0.00000000       0.00000000       0.00000000       0.00000000      -5.54221916
Tl       0.00000000       0.00000000       2.41393939       0.00000000       0.00000000       5.54221916
2
Properties=species:S:1:pos:R:3:forces:R:3 energy=-1.5853263390047416 pbc="F F F"
Tl       0.00000000       0.00000000       0.00000000       0.00000000       0.00000000      -4.35684872
Tl       0.00000000       0.00000000       2.47272727       0.00000000       0.00000000       4.35684872
2
Properties=species:S:1:pos:R:3:forces:R:3 energy=-1.8109290649633711 pbc="F F F"
Tl       0.00000000       0.00000000       0.00000000       0.00000000       0.00000000      -3.34022069
Tl       0.00000000       0.00000000       2.53151515       0.00000000       0.00000000       3.34022069
2
Properties=species:S:1:pos:R:3:forces:R:3 energy=-1.9809710336785387 pbc="F F F"
Tl       0.00000000       0.00000000       0.00000000       0.00000000       0.00000000      -2.47372675
Tl       0.00000000       0.00000000       2.59030303       0.00000000       0.00000000       2.47372675
2
Properties=species:S:1:pos:R:3:forces:R:3 energy=-2.105267496732809 pbc="F F F"
Tl       0.00000000       0.00000000       0.00000000       0.00000000       0.00000000      -1.78280461
Tl       0.00000000       0.00000000       2.64909091       0.00000000       0.00000000       1.78280461
2
Properties=species:S:1:pos:R:3:forces:R:3 energy=-2.193414143540232 pbc="F F F"
Tl       0.00000000       0.00000000       0.00000000       0.00000000       0.00000000      -1.23558414
Tl       0.00000000       0.00000000       2.70787879       0.00000000       0.00000000       1.23558414
2
Properties=species:S:1:pos:R:3:forces:R:3 energy=-2.2524116103298657 pbc="F F F"
Tl       0.00000000       0.00000000       0.00000000       0.00000000       0.00000000      -0.78518647
Tl       0.00000000       0.00000000       2.76666667       0.00000000       0.00000000       0.78518647
2
Properties=species:S:1:pos:R:3:forces:R:3 energy=-2.287305319584357 pbc="F F F"
Tl       0.00000000       0.00000000       0.00000000       0.00000000       0.00000000      -0.41582221
Tl       0.00000000       0.00000000       2.82545455       0.00000000       0.00000000       0.41582221
2
Properties=species:S:1:pos:R:3:forces:R:3 energy=-2.3030115652790744 pbc="F F F"
Tl       0.00000000       0.00000000       0.00000000       0.00000000       0.00000000      -0.13332267
Tl       0.00000000       0.00000000       2.88424242       0.00000000       0.00000000       0.13332267
2
Properties=species:S:1:pos:R:3:forces:R:3 energy=-2.304674659241796 pbc="F F F"
Tl       0.00000000       0.00000000       0.00000000       0.00000000       0.00000000       0.06323683
Tl       0.00000000       0.00000000       2.94303030       0.00000000       0.00000000      -0.06323683
2
Properties=species:S:1:pos:R:3:forces:R:3 energy=-2.296980523391408 pbc="F F F"
Tl       0.00000000       0.00000000       0.00000000       0.00000000       0.00000000       0.18835513
Tl       0.00000000       0.00000000       3.00181818       0.00000000       0.00000000      -0.18835513
2
Properties=species:S:1:pos:R:3:forces:R:3 energy=-2.28351954025988 pbc="F F F"
Tl       0.00000000       0.00000000       0.00000000       0.00000000       0.00000000       0.26269966
Tl       0.00000000       0.00000000       3.06060606       0.00000000       0.00000000      -0.26269966
2
Properties=species:S:1:pos:R:3:forces:R:3 energy=-2.2667778787286434 pbc="F F F"
Tl       0.00000000       0.00000000       0.00000000       0.00000000       0.00000000       0.30186090
Tl       0.00000000       0.00000000       3.11939394       0.00000000       0.00000000      -0.30186090
2
Properties=species:S:1:pos:R:3:forces:R:3 energy=-2.2485472457154287 pbc="F F F"
Tl       0.00000000       0.00000000       0.00000000       0.00000000       0.00000000       0.31443867
Tl       0.00000000       0.00000000       3.17818182       0.00000000       0.00000000      -0.31443867
2
Properties=species:S:1:pos:R:3:forces:R:3 energy=-2.2302083235315138 pbc="F F F"
Tl       0.00000000       0.00000000       0.00000000       0.00000000       0.00000000       0.30661932
Tl       0.00000000       0.00000000       3.23696970       0.00000000       0.00000000      -0.30661932
2
Properties=species:S:1:pos:R:3:forces:R:3 energy=-2.212757356897297 pbc="F F F"
Tl       0.00000000       0.00000000       0.00000000       0.00000000       0.00000000       0.28554890
Tl       0.00000000       0.00000000       3.29575758       0.00000000       0.00000000      -0.28554890
2
Properties=species:S:1:pos:R:3:forces:R:3 energy=-2.196737127419643 pbc="F F F"
Tl       0.00000000       0.00000000       0.00000000       0.00000000       0.00000000       0.25921023
Tl       0.00000000       0.00000000       3.35454545       0.00000000       0.00000000      -0.25921023
2
Properties=species:S:1:pos:R:3:forces:R:3 energy=-2.1822509592348407 pbc="F F F"
Tl       0.00000000       0.00000000       0.00000000       0.00000000       0.00000000       0.23427555
Tl       0.00000000       0.00000000       3.41333333       0.00000000       0.00000000      -0.23427555
2
Properties=species:S:1:pos:R:3:forces:R:3 energy=-2.169073726327066 pbc="F F F"
Tl       0.00000000       0.00000000       0.00000000       0.00000000       0.00000000       0.21527435
Tl       0.00000000       0.00000000       3.47212121       0.00000000       0.00000000      -0.21527435
2
Properties=species:S:1:pos:R:3:forces:R:3 energy=-2.156776376878607 pbc="F F F"
Tl       0.00000000       0.00000000       0.00000000       0.00000000       0.00000000       0.20451647
Tl       0.00000000       0.00000000       3.53090909       0.00000000       0.00000000      -0.20451647
2
Properties=species:S:1:pos:R:3:forces:R:3 energy=-2.1448699196295964 pbc="F F F"
Tl       0.00000000       0.00000000       0.00000000       0.00000000       0.00000000       0.20178020
Tl       0.00000000       0.00000000       3.58969697       0.00000000       0.00000000      -0.20178020
2
Properties=species:S:1:pos:R:3:forces:R:3 energy=-2.1329373981140143 pbc="F F F"
Tl       0.00000000       0.00000000       0.00000000       0.00000000       0.00000000       0.20490256
Tl       0.00000000       0.00000000       3.64848485       0.00000000       0.00000000      -0.20490256
2
Properties=species:S:1:pos:R:3:forces:R:3 energy=-2.1207144601404644 pbc="F F F"
Tl       0.00000000       0.00000000       0.00000000       0.00000000       0.00000000       0.21127817
Tl       0.00000000       0.00000000       3.70727273       0.00000000       0.00000000      -0.21127817
2
Properties=species:S:1:pos:R:3:forces:R:3 energy=-2.108068956476145 pbc="F F F"
Tl       0.00000000       0.00000000       0.00000000       0.00000000       0.00000000       0.21906888
Tl       0.00000000       0.00000000       3.76606061       0.00000000       0.00000000      -0.21906888
2
Properties=species:S:1:pos:R:3:forces:R:3 energy=-2.0949449984915103 pbc="F F F"
Tl       0.00000000       0.00000000       0.00000000       0.00000000       0.00000000       0.22750676
Tl       0.00000000       0.00000000       3.82484848       0.00000000       0.00000000      -0.22750676
2
Properties=species:S:1:pos:R:3:forces:R:3 energy=-2.0813081767318202 pbc="F F F"
Tl       0.00000000       0.00000000       0.00000000       0.00000000       0.00000000       0.23653044
Tl       0.00000000       0.00000000       3.88363636       0.00000000       0.00000000      -0.23653044
2
Properties=species:S:1:pos:R:3:forces:R:3 energy=-2.0671215384933683 pbc="F F F"
Tl       0.00000000       0.00000000       0.00000000       0.00000000       0.00000000       0.24624093
Tl       0.00000000       0.00000000       3.94242424       0.00000000       0.00000000      -0.24624093
2
Properties=species:S:1:pos:R:3:forces:R:3 energy=-2.0523451069865835 pbc="F F F"
Tl       0.00000000       0.00000000       0.00000000       0.00000000       0.00000000       0.25651422
Tl       0.00000000       0.00000000       4.00121212       0.00000000       0.00000000      -0.25651422
2
Properties=species:S:1:pos:R:3:forces:R:3 energy=-2.036959242357041 pbc="F F F"
Tl       0.00000000       0.00000000       0.00000000       0.00000000       0.00000000       0.26686728
Tl       0.00000000       0.00000000       4.06000000       0.00000000       0.00000000      -0.26686728
2
Properties=species:S:1:pos:R:3:forces:R:3 energy=-2.0209822268076 pbc="F F F"
Tl       0.00000000       0.00000000       0.00000000       0.00000000       0.00000000       0.27653447
Tl       0.00000000       0.00000000       4.11878788       0.00000000       0.00000000      -0.27653447
2
Properties=species:S:1:pos:R:3:forces:R:3 energy=-2.004476367614878 pbc="F F F"
Tl       0.00000000       0.00000000       0.00000000       0.00000000       0.00000000       0.28466162
Tl       0.00000000       0.00000000       4.17757576       0.00000000       0.00000000      -0.28466162
2
Properties=species:S:1:pos:R:3:forces:R:3 energy=-1.9875562554164028 pbc="F F F"
Tl       0.00000000       0.00000000       0.00000000       0.00000000       0.00000000       0.29054567
Tl       0.00000000       0.00000000       4.23636364       0.00000000       0.00000000      -0.29054567
2
Properties=species:S:1:pos:R:3:forces:R:3 energy=-1.9703663465285324 pbc="F F F"
Tl       0.00000000       0.00000000       0.00000000       0.00000000       0.00000000       0.29382786
Tl       0.00000000       0.00000000       4.29515152       0.00000000       0.00000000      -0.29382786
2
Properties=species:S:1:pos:R:3:forces:R:3 energy=-1.9530593872329995 pbc="F F F"
Tl       0.00000000       0.00000000       0.00000000       0.00000000       0.00000000       0.29456085
Tl       0.00000000       0.00000000       4.35393939       0.00000000       0.00000000      -0.29456085
2
Properties=species:S:1:pos:R:3:forces:R:3 energy=-1.9357756586892398 pbc="F F F"
Tl       0.00000000       0.00000000       0.00000000       0.00000000       0.00000000       0.29312518
Tl       0.00000000       0.00000000       4.41272727       0.00000000       0.00000000      -0.29312518
2
Properties=species:S:1:pos:R:3:forces:R:3 energy=-1.9186268373309237 pbc="F F F"
Tl       0.00000000       0.00000000       0.00000000       0.00000000       0.00000000       0.29005364
Tl       0.00000000       0.00000000       4.47151515       0.00000000       0.00000000      -0.29005364
2
Properties=species:S:1:pos:R:3:forces:R:3 energy=-1.9016940590069231 pbc="F F F"
Tl       0.00000000       0.00000000       0.00000000       0.00000000       0.00000000       0.28583035
Tl       0.00000000       0.00000000       4.53030303       0.00000000       0.00000000      -0.28583035
2
Properties=species:S:1:pos:R:3:forces:R:3 energy=-1.885036810160826 pbc="F F F"
Tl       0.00000000       0.00000000       0.00000000       0.00000000       0.00000000       0.28076485
Tl       0.00000000       0.00000000       4.58909091       0.00000000       0.00000000      -0.28076485
2
Properties=species:S:1:pos:R:3:forces:R:3 energy=-1.868698392451323 pbc="F F F"
Tl       0.00000000       0.00000000       0.00000000       0.00000000       0.00000000       0.27498743
Tl       0.00000000       0.00000000       4.64787879       0.00000000       0.00000000      -0.27498743
2
Properties=species:S:1:pos:R:3:forces:R:3 energy=-1.852718056757164 pbc="F F F"
Tl       0.00000000       0.00000000       0.00000000       0.00000000       0.00000000       0.26853317
Tl       0.00000000       0.00000000       4.70666667       0.00000000       0.00000000      -0.26853317
2
Properties=species:S:1:pos:R:3:forces:R:3 energy=-1.8371367505656335 pbc="F F F"
Tl       0.00000000       0.00000000       0.00000000       0.00000000       0.00000000       0.26147458
Tl       0.00000000       0.00000000       4.76545455       0.00000000       0.00000000      -0.26147458
2
Properties=species:S:1:pos:R:3:forces:R:3 energy=-1.8219823360206477 pbc="F F F"
Tl       0.00000000       0.00000000       0.00000000       0.00000000       0.00000000       0.25399515
Tl       0.00000000       0.00000000       4.82424242       0.00000000       0.00000000      -0.25399515
2
Properties=species:S:1:pos:R:3:forces:R:3 energy=-1.8072752581156748 pbc="F F F"
Tl       0.00000000       0.00000000       0.00000000       0.00000000       0.00000000       0.24638690
Tl       0.00000000       0.00000000       4.88303030       0.00000000       0.00000000      -0.24638690
2
Properties=species:S:1:pos:R:3:forces:R:3 energy=-1.793011372220396 pbc="F F F"
Tl       0.00000000       0.00000000       0.00000000       0.00000000       0.00000000       0.23892641
Tl       0.00000000       0.00000000       4.94181818       0.00000000       0.00000000      -0.23892641
2
Properties=species:S:1:pos:R:3:forces:R:3 energy=-1.7791780963554638 pbc="F F F"
Tl       0.00000000       0.00000000       0.00000000       0.00000000       0.00000000       0.23174168
Tl       0.00000000       0.00000000       5.00060606       0.00000000       0.00000000      -0.23174168
2
Properties=species:S:1:pos:R:3:forces:R:3 energy=-1.765759694415108 pbc="F F F"
Tl       0.00000000       0.00000000       0.00000000       0.00000000       0.00000000       0.22467317
Tl       0.00000000       0.00000000       5.05939394       0.00000000       0.00000000      -0.22467317
2
Properties=species:S:1:pos:R:3:forces:R:3 energy=-1.7527690848725606 pbc="F F F"
Tl       0.00000000       0.00000000       0.00000000       0.00000000       0.00000000       0.21724010
Tl       0.00000000       0.00000000       5.11818182       0.00000000       0.00000000      -0.21724010
2
Properties=species:S:1:pos:R:3:forces:R:3 energy=-1.7402409694068606 pbc="F F F"
Tl       0.00000000       0.00000000       0.00000000       0.00000000       0.00000000       0.20869125
Tl       0.00000000       0.00000000       5.17696970       0.00000000       0.00000000      -0.20869125
2
Properties=species:S:1:pos:R:3:forces:R:3 energy=-1.7282706143517836 pbc="F F F"
Tl       0.00000000       0.00000000       0.00000000       0.00000000       0.00000000       0.19820318
Tl       0.00000000       0.00000000       5.23575758       0.00000000       0.00000000      -0.19820318
2
Properties=species:S:1:pos:R:3:forces:R:3 energy=-1.716988985471527 pbc="F F F"
Tl       0.00000000       0.00000000       0.00000000       0.00000000       0.00000000       0.18506196
Tl       0.00000000       0.00000000       5.29454545       0.00000000       0.00000000      -0.18506196
2
Properties=species:S:1:pos:R:3:forces:R:3 energy=-1.7065708953740883 pbc="F F F"
Tl       0.00000000       0.00000000       0.00000000       0.00000000       0.00000000       0.16889106
Tl       0.00000000       0.00000000       5.35333333       0.00000000       0.00000000      -0.16889106
2
Properties=species:S:1:pos:R:3:forces:R:3 energy=-1.6971905547013315 pbc="F F F"
Tl       0.00000000       0.00000000       0.00000000       0.00000000       0.00000000       0.14978880
Tl       0.00000000       0.00000000       5.41212121       0.00000000       0.00000000      -0.14978880
2
Properties=species:S:1:pos:R:3:forces:R:3 energy=-1.6890048463984961 pbc="F F F"
Tl       0.00000000       0.00000000       0.00000000       0.00000000       0.00000000       0.12836874
Tl       0.00000000       0.00000000       5.47090909       0.00000000       0.00000000      -0.12836874
2
Properties=species:S:1:pos:R:3:forces:R:3 energy=-1.6821213871280634 pbc="F F F"
Tl       0.00000000       0.00000000       0.00000000       0.00000000       0.00000000       0.10571710
Tl       0.00000000       0.00000000       5.52969697       0.00000000       0.00000000      -0.10571710
2
Properties=species:S:1:pos:R:3:forces:R:3 energy=-1.6765715416208082 pbc="F F F"
Tl       0.00000000       0.00000000       0.00000000       0.00000000       0.00000000       0.08321033
Tl       0.00000000       0.00000000       5.58848485       0.00000000       0.00000000      -0.08321033
2
Properties=species:S:1:pos:R:3:forces:R:3 energy=-1.672306824222357 pbc="F F F"
Tl       0.00000000       0.00000000       0.00000000       0.00000000       0.00000000       0.06232580
Tl       0.00000000       0.00000000       5.64727273       0.00000000       0.00000000      -0.06232580
2
Properties=species:S:1:pos:R:3:forces:R:3 energy=-1.6691869716285892 pbc="F F F"
Tl       0.00000000       0.00000000       0.00000000       0.00000000       0.00000000       0.04436866
Tl       0.00000000       0.00000000       5.70606061       0.00000000       0.00000000      -0.04436866
2
Properties=species:S:1:pos:R:3:forces:R:3 energy=-1.667011658892301 pbc="F F F"
Tl       0.00000000       0.00000000       0.00000000       0.00000000       0.00000000       0.03028831
Tl       0.00000000       0.00000000       5.76484848       0.00000000       0.00000000      -0.03028831
2
Properties=species:S:1:pos:R:3:forces:R:3 energy=-1.6655397796498919 pbc="F F F"
Tl       0.00000000       0.00000000       0.00000000       0.00000000       0.00000000       0.02050725
Tl       0.00000000       0.00000000       5.82363636       0.00000000       0.00000000      -0.02050725
2
Properties=species:S:1:pos:R:3:forces:R:3 energy=-1.66452117796714 pbc="F F F"
Tl       0.00000000       0.00000000       0.00000000       0.00000000       0.00000000       0.01479475
Tl       0.00000000       0.00000000       5.88242424       0.00000000       0.00000000      -0.01479475
2
Properties=species:S:1:pos:R:3:forces:R:3 energy=-1.6637371842493827 pbc="F F F"
Tl       0.00000000       0.00000000       0.00000000       0.00000000       0.00000000       0.01227766
Tl       0.00000000       0.00000000       5.94121212       0.00000000       0.00000000      -0.01227766
2
Properties=species:S:1:pos:R:3:forces:R:3 energy=-1.6630423448285028 pbc="F F F"
Tl       0.00000000       0.00000000       0.00000000       0.00000000       0.00000000       0.01155493
Tl       0.00000000       0.00000000       6.00000000       0.00000000       0.00000000      -0.01155493
