2
Properties=species:S:1:pos:R:3:forces:R:3 energy=-510119.4517127747 pbc="F F F"
Tm       0.00000000       0.00000000       0.00000000       0.00000000       0.00000000 2150868.50000000
Tm       0.00000000       0.00000000       0.10000000       0.00000000       0.00000000 -2150868.50000000
2
Properties=species:S:1:pos:R:3:forces:R:3 energy=-365574.3267127747 pbc="F F F"
Tm       0.00000000       0.00000000       0.00000000       0.00000000       0.00000000 2553622.00000000
Tm       0.00000000       0.00000000       0.15959596       0.00000000       0.00000000 -2553622.00000000
2
Properties=species:S:1:pos:R:3:forces:R:3 energy=-215945.8735877747 pbc="F F F"
Tm       0.00000000       0.00000000       0.00000000       0.00000000       0.00000000 2416714.75000000
Tm       0.00000000       0.00000000       0.21919192       0.00000000       0.00000000 -2416714.75000000
2
Properties=species:S:1:pos:R:3:forces:R:3 energy=-99417.08452527471 pbc="F F F"
Tm       0.00000000       0.00000000       0.00000000       0.00000000       0.00000000 1482964.25000000
Tm       0.00000000       0.00000000       0.27878788       0.00000000       0.00000000 -1482964.25000000
2
Properties=species:S:1:pos:R:3:forces:R:3 energy=-36055.43608777471 pbc="F F F"
Tm       0.00000000       0.00000000       0.00000000       0.00000000       0.00000000  700096.43750000
Tm       0.00000000       0.00000000       0.33838384       0.00000000       0.00000000 -700096.43750000
2
Properties=species:S:1:pos:R:3:forces:R:3 energy=-9360.721244024708 pbc="F F F"
Tm       0.00000000       0.00000000       0.00000000       0.00000000       0.00000000  253003.20312500
Tm       0.00000000       0.00000000       0.39797980       0.00000000       0.00000000 -253003.20312500
2
Properties=species:S:1:pos:R:3:forces:R:3 energy=-1087.3882361995363 pbc="F F F"
Tm       0.00000000       0.00000000       0.00000000       0.00000000       0.00000000   53950.92968750
Tm       0.00000000       0.00000000       0.45757576       0.00000000       0.00000000  -53950.92968750
2
Properties=species:S:1:pos:R:3:forces:R:3 energy=-6.777308605077874 pbc="F F F"
Tm       0.00000000       0.00000000       0.00000000       0.00000000       0.00000000    1244.90600586
Tm       0.00000000       0.00000000       0.51717172       0.00000000       0.00000000   -1244.90600586
2
Properties=species:S:1:pos:R:3:forces:R:3 energy=9.448271635718806 pbc="F F F"
Tm       0.00000000       0.00000000       0.00000000       0.00000000       0.00000000    -124.19252014
Tm       0.00000000       0.00000000       0.57676768       0.00000000       0.00000000     124.19252014
2
Properties=species:S:1:pos:R:3:forces:R:3 energy=72.37899104934303 pbc="F F F"
Tm       0.00000000       0.00000000       0.00000000       0.00000000       0.00000000    1289.69604492
Tm       0.00000000       0.00000000       0.63636364       0.00000000       0.00000000   -1289.69604492
2
Properties=species:S:1:pos:R:3:forces:R:3 energy=138.7019281244182 pbc="F F F"
Tm       0.00000000       0.00000000       0.00000000       0.00000000       0.00000000    1053.72363281
Tm       0.00000000       0.00000000       0.69595960       0.00000000       0.00000000   -1053.72363281
2
Properties=species:S:1:pos:R:3:forces:R:3 energy=180.30301770332758 pbc="F F F"
Tm       0.00000000       0.00000000       0.00000000       0.00000000       0.00000000     492.08682251
Tm       0.00000000       0.00000000       0.75555556       0.00000000       0.00000000    -492.08682251
2
Properties=species:S:1:pos:R:3:forces:R:3 energy=215.4414608485471 pbc="F F F"
Tm       0.00000000       0.00000000       0.00000000       0.00000000       0.00000000     611.56433105
Tm       0.00000000       0.00000000       0.81515152       0.00000000       0.00000000    -611.56433105
2
Properties=species:S:1:pos:R:3:forces:R:3 energy=212.57361742335803 pbc="F F F"
Tm       0.00000000       0.00000000       0.00000000       0.00000000       0.00000000    -591.68432617
Tm       0.00000000       0.00000000       0.87474747       0.00000000       0.00000000     591.68432617
2
Properties=species:S:1:pos:R:3:forces:R:3 energy=164.40125444621896 pbc="F F F"
Tm       0.00000000       0.00000000       0.00000000       0.00000000       0.00000000   -1038.53405762
Tm       0.00000000       0.00000000       0.93434343       0.00000000       0.00000000    1038.53405762
2
Properties=species:S:1:pos:R:3:forces:R:3 energy=104.96846981752051 pbc="F F F"
Tm       0.00000000       0.00000000       0.00000000       0.00000000       0.00000000    -867.34509277
Tm       0.00000000       0.00000000       0.99393939       0.00000000       0.00000000     867.34509277
2
Properties=species:S:1:pos:R:3:forces:R:3 energy=67.31498985794335 pbc="F F F"
Tm       0.00000000       0.00000000       0.00000000       0.00000000       0.00000000    -433.76144409
Tm       0.00000000       0.00000000       1.05353535       0.00000000       0.00000000     433.76144409
2
Properties=species:S:1:pos:R:3:forces:R:3 energy=50.425639714436095 pbc="F F F"
Tm       0.00000000       0.00000000       0.00000000       0.00000000       0.00000000     -67.46829224
Tm       0.00000000       0.00000000       1.11313131       0.00000000       0.00000000      67.46829224
2
Properties=species:S:1:pos:R:3:forces:R:3 energy=45.60863936002316 pbc="F F F"
Tm       0.00000000       0.00000000       0.00000000       0.00000000       0.00000000    -104.96176147
Tm       0.00000000       0.00000000       1.17272727       0.00000000       0.00000000     104.96176147
2
Properties=species:S:1:pos:R:3:forces:R:3 energy=39.693761807279756 pbc="F F F"
Tm       0.00000000       0.00000000       0.00000000       0.00000000       0.00000000     -84.58357239
Tm       0.00000000       0.00000000       1.23232323       0.00000000       0.00000000      84.58357239
2
Properties=species:S:1:pos:R:3:forces:R:3 energy=34.85361454143731 pbc="F F F"
Tm       0.00000000       0.00000000       0.00000000       0.00000000       0.00000000     -79.73810577
Tm       0.00000000       0.00000000       1.29191919       0.00000000       0.00000000      79.73810577
2
Properties=species:S:1:pos:R:3:forces:R:3 energy=30.52315895749329 pbc="F F F"
Tm       0.00000000       0.00000000       0.00000000       0.00000000       0.00000000     -65.85282898
Tm       0.00000000       0.00000000       1.35151515       0.00000000       0.00000000      65.85282898
2
Properties=species:S:1:pos:R:3:forces:R:3 energy=26.572397890728737 pbc="F F F"
Tm       0.00000000       0.00000000       0.00000000       0.00000000       0.00000000     -70.66626740
Tm       0.00000000       0.00000000       1.41111111       0.00000000       0.00000000      70.66626740
2
Properties=species:S:1:pos:R:3:forces:R:3 energy=22.23996174998506 pbc="F F F"
Tm       0.00000000       0.00000000       0.00000000       0.00000000       0.00000000     -69.24863434
Tm       0.00000000       0.00000000       1.47070707       0.00000000       0.00000000      69.24863434
2
Properties=species:S:1:pos:R:3:forces:R:3 energy=18.741442105310497 pbc="F F F"
Tm       0.00000000       0.00000000       0.00000000       0.00000000       0.00000000     -50.33613586
Tm       0.00000000       0.00000000       1.53030303       0.00000000       0.00000000      50.33613586
2
Properties=species:S:1:pos:R:3:forces:R:3 energy=15.929824465498006 pbc="F F F"
Tm       0.00000000       0.00000000       0.00000000       0.00000000       0.00000000     -45.26360703
Tm       0.00000000       0.00000000       1.58989899       0.00000000       0.00000000      45.26360703
2
Properties=species:S:1:pos:R:3:forces:R:3 energy=13.405754085924539 pbc="F F F"
Tm       0.00000000       0.00000000       0.00000000       0.00000000       0.00000000     -38.35260010
Tm       0.00000000       0.00000000       1.64949495       0.00000000       0.00000000      38.35260010
2
Properties=species:S:1:pos:R:3:forces:R:3 energy=11.232328131438914 pbc="F F F"
Tm       0.00000000       0.00000000       0.00000000       0.00000000       0.00000000     -35.53453064
Tm       0.00000000       0.00000000       1.70909091       0.00000000       0.00000000      35.53453064
2
Properties=species:S:1:pos:R:3:forces:R:3 energy=9.279858554513586 pbc="F F F"
Tm       0.00000000       0.00000000       0.00000000       0.00000000       0.00000000     -29.30259705
Tm       0.00000000       0.00000000       1.76868687       0.00000000       0.00000000      29.30259705
2
Properties=species:S:1:pos:R:3:forces:R:3 energy=7.717090649467881 pbc="F F F"
Tm       0.00000000       0.00000000       0.00000000       0.00000000       0.00000000     -23.21599388
Tm       0.00000000       0.00000000       1.82828283       0.00000000       0.00000000      23.21599388
2
Properties=species:S:1:pos:R:3:forces:R:3 energy=6.462939489992023 pbc="F F F"
Tm       0.00000000       0.00000000       0.00000000       0.00000000       0.00000000     -19.40704346
Tm       0.00000000       0.00000000       1.88787879       0.00000000       0.00000000      19.40704346
2
Properties=species:S:1:pos:R:3:forces:R:3 energy=5.365464055415885 pbc="F F F"
Tm       0.00000000       0.00000000       0.00000000       0.00000000       0.00000000     -17.48957443
Tm       0.00000000       0.00000000       1.94747475       0.00000000       0.00000000      17.48957443
2
Properties=species:S:1:pos:R:3:forces:R:3 energy=4.376078821483202 pbc="F F F"
Tm       0.00000000       0.00000000       0.00000000       0.00000000       0.00000000     -15.77783680
Tm       0.00000000       0.00000000       2.00707071       0.00000000       0.00000000      15.77783680
2
Properties=species:S:1:pos:R:3:forces:R:3 energy=3.4680927062224773 pbc="F F F"
Tm       0.00000000       0.00000000       0.00000000       0.00000000       0.00000000     -14.73226070
Tm       0.00000000       0.00000000       2.06666667       0.00000000       0.00000000      14.73226070
2
Properties=species:S:1:pos:R:3:forces:R:3 energy=2.6380176378219753 pbc="F F F"
Tm       0.00000000       0.00000000       0.00000000       0.00000000       0.00000000     -12.97495651
Tm       0.00000000       0.00000000       2.12626263       0.00000000       0.00000000      12.97495651
2
Properties=species:S:1:pos:R:3:forces:R:3 energy=1.917756360337929 pbc="F F F"
Tm       0.00000000       0.00000000       0.00000000       0.00000000       0.00000000     -11.32526684
Tm       0.00000000       0.00000000       2.18585859       0.00000000       0.00000000      11.32526684
2
Properties=species:S:1:pos:R:3:forces:R:3 energy=1.283589631038092 pbc="F F F"
Tm       0.00000000       0.00000000       0.00000000       0.00000000       0.00000000      -9.93459606
Tm       0.00000000       0.00000000       2.24545455       0.00000000       0.00000000       9.93459606
2
Properties=species:S:1:pos:R:3:forces:R:3 energy=0.7331490804572095 pbc="F F F"
Tm       0.00000000       0.00000000       0.00000000       0.00000000       0.00000000      -8.54768562
Tm       0.00000000       0.00000000       2.30505051       0.00000000       0.00000000       8.54768562
2
Properties=species:S:1:pos:R:3:forces:R:3 energy=0.2630860506317806 pbc="F F F"
Tm       0.00000000       0.00000000       0.00000000       0.00000000       0.00000000      -7.26971865
Tm       0.00000000       0.00000000       2.36464646       0.00000000       0.00000000       7.26971865
2
Properties=species:S:1:pos:R:3:forces:R:3 energy=-0.13990062355384508 pbc="F F F"
Tm       0.00000000       0.00000000       0.00000000       0.00000000       0.00000000      -6.29421473
Tm       0.00000000       0.00000000       2.42424242       0.00000000       0.00000000       6.29421473
2
Properties=species:S:1:pos:R:3:forces:R:3 energy=-0.4898720969464736 pbc="F F F"
Tm       0.00000000       0.00000000       0.00000000       0.00000000       0.00000000      -5.46119022
Tm       0.00000000       0.00000000       2.48383838       0.00000000       0.00000000       5.46119022
2
Properties=species:S:1:pos:R:3:forces:R:3 energy=-0.7908587145765071 pbc="F F F"
Tm       0.00000000       0.00000000       0.00000000       0.00000000       0.00000000      -4.64382458
Tm       0.00000000       0.00000000       2.54343434       0.00000000       0.00000000       4.64382458
2
Properties=species:S:1:pos:R:3:forces:R:3 energy=-1.0461726413576509 pbc="F F F"
Tm       0.00000000       0.00000000       0.00000000       0.00000000       0.00000000      -3.95976663
Tm       0.00000000       0.00000000       2.60303030       0.00000000       0.00000000       3.95976663
2
Properties=species:S:1:pos:R:3:forces:R:3 energy=-1.2663986611702154 pbc="F F F"
Tm       0.00000000       0.00000000       0.00000000       0.00000000       0.00000000      -3.44942546
Tm       0.00000000       0.00000000       2.66262626       0.00000000       0.00000000       3.44942546
2
Properties=species:S:1:pos:R:3:forces:R:3 energy=-1.4581904870197078 pbc="F F F"
Tm       0.00000000       0.00000000       0.00000000       0.00000000       0.00000000      -2.98657489
Tm       0.00000000       0.00000000       2.72222222       0.00000000       0.00000000       2.98657489
2
Properties=species:S:1:pos:R:3:forces:R:3 energy=-1.6222144744839075 pbc="F F F"
Tm       0.00000000       0.00000000       0.00000000       0.00000000       0.00000000      -2.51901984
Tm       0.00000000       0.00000000       2.78181818       0.00000000       0.00000000       2.51901984
2
Properties=species:S:1:pos:R:3:forces:R:3 energy=-1.7590005910420594 pbc="F F F"
Tm       0.00000000       0.00000000       0.00000000       0.00000000       0.00000000      -2.07935715
Tm       0.00000000       0.00000000       2.84141414       0.00000000       0.00000000       2.07935715
2
Properties=species:S:1:pos:R:3:forces:R:3 energy=-1.8712035018513413 pbc="F F F"
Tm       0.00000000       0.00000000       0.00000000       0.00000000       0.00000000      -1.69633400
Tm       0.00000000       0.00000000       2.90101010       0.00000000       0.00000000       1.69633400
2
Properties=species:S:1:pos:R:3:forces:R:3 energy=-1.9623455636413978 pbc="F F F"
Tm       0.00000000       0.00000000       0.00000000       0.00000000       0.00000000      -1.37074578
Tm       0.00000000       0.00000000       2.96060606       0.00000000       0.00000000       1.37074578
2
Properties=species:S:1:pos:R:3:forces:R:3 energy=-2.0353892629617 pbc="F F F"
Tm       0.00000000       0.00000000       0.00000000       0.00000000       0.00000000      -1.08602655
Tm       0.00000000       0.00000000       3.02020202       0.00000000       0.00000000       1.08602655
2
Properties=species:S:1:pos:R:3:forces:R:3 energy=-2.0924310487121125 pbc="F F F"
Tm       0.00000000       0.00000000       0.00000000       0.00000000       0.00000000      -0.83418012
Tm       0.00000000       0.00000000       3.07979798       0.00000000       0.00000000       0.83418012
2
Properties=species:S:1:pos:R:3:forces:R:3 energy=-2.1356263518803003 pbc="F F F"
Tm       0.00000000       0.00000000       0.00000000       0.00000000       0.00000000      -0.62281811
Tm       0.00000000       0.00000000       3.13939394       0.00000000       0.00000000       0.62281811
2
Properties=species:S:1:pos:R:3:forces:R:3 energy=-2.1675291379478754 pbc="F F F"
Tm       0.00000000       0.00000000       0.00000000       0.00000000       0.00000000      -0.45460367
Tm       0.00000000       0.00000000       3.19898990       0.00000000       0.00000000       0.45460367
2
Properties=species:S:1:pos:R:3:forces:R:3 energy=-2.1904815616635447 pbc="F F F"
Tm       0.00000000       0.00000000       0.00000000       0.00000000       0.00000000      -0.31993192
Tm       0.00000000       0.00000000       3.25858586       0.00000000       0.00000000       0.31993192
2
Properties=species:S:1:pos:R:3:forces:R:3 energy=-2.2060636272704532 pbc="F F F"
Tm       0.00000000       0.00000000       0.00000000       0.00000000       0.00000000      -0.20550159
Tm       0.00000000       0.00000000       3.31818182       0.00000000       0.00000000       0.20550159
2
Properties=species:S:1:pos:R:3:forces:R:3 energy=-2.215208703475714 pbc="F F F"
Tm       0.00000000       0.00000000       0.00000000       0.00000000       0.00000000      -0.10317304
Tm       0.00000000       0.00000000       3.37777778       0.00000000       0.00000000       0.10317304
2
Properties=species:S:1:pos:R:3:forces:R:3 energy=-2.218571508688009 pbc="F F F"
Tm       0.00000000       0.00000000       0.00000000       0.00000000       0.00000000      -0.01139272
Tm       0.00000000       0.00000000       3.43737374       0.00000000       0.00000000       0.01139272
2
Properties=species:S:1:pos:R:3:forces:R:3 energy=-2.2167609659418988 pbc="F F F"
Tm       0.00000000       0.00000000       0.00000000       0.00000000       0.00000000       0.07064315
Tm       0.00000000       0.00000000       3.49696970       0.00000000       0.00000000      -0.07064315
2
Properties=species:S:1:pos:R:3:forces:R:3 energy=-2.2102943441672607 pbc="F F F"
Tm       0.00000000       0.00000000       0.00000000       0.00000000       0.00000000       0.14544284
Tm       0.00000000       0.00000000       3.55656566       0.00000000       0.00000000      -0.14544284
2
Properties=species:S:1:pos:R:3:forces:R:3 energy=-2.1995343980477813 pbc="F F F"
Tm       0.00000000       0.00000000       0.00000000       0.00000000       0.00000000       0.21469370
Tm       0.00000000       0.00000000       3.61616162       0.00000000       0.00000000      -0.21469370
2
Properties=species:S:1:pos:R:3:forces:R:3 energy=-2.1848208673706684 pbc="F F F"
Tm       0.00000000       0.00000000       0.00000000       0.00000000       0.00000000       0.27795821
Tm       0.00000000       0.00000000       3.67575758       0.00000000       0.00000000      -0.27795821
2
Properties=species:S:1:pos:R:3:forces:R:3 energy=-2.1665497333652195 pbc="F F F"
Tm       0.00000000       0.00000000       0.00000000       0.00000000       0.00000000       0.33395404
Tm       0.00000000       0.00000000       3.73535354       0.00000000       0.00000000      -0.33395404
2
Properties=species:S:1:pos:R:3:forces:R:3 energy=-2.1451789660912985 pbc="F F F"
Tm       0.00000000       0.00000000       0.00000000       0.00000000       0.00000000       0.38194481
Tm       0.00000000       0.00000000       3.79494949       0.00000000       0.00000000      -0.38194481
2
Properties=species:S:1:pos:R:3:forces:R:3 energy=-2.12118269105135 pbc="F F F"
Tm       0.00000000       0.00000000       0.00000000       0.00000000       0.00000000       0.42196897
Tm       0.00000000       0.00000000       3.85454545       0.00000000       0.00000000      -0.42196897
2
Properties=species:S:1:pos:R:3:forces:R:3 energy=-2.0950331644130515 pbc="F F F"
Tm       0.00000000       0.00000000       0.00000000       0.00000000       0.00000000       0.45445511
Tm       0.00000000       0.00000000       3.91414141       0.00000000       0.00000000      -0.45445511
2
Properties=species:S:1:pos:R:3:forces:R:3 energy=-2.0671559439807985 pbc="F F F"
Tm       0.00000000       0.00000000       0.00000000       0.00000000       0.00000000       0.47993436
Tm       0.00000000       0.00000000       3.97373737       0.00000000       0.00000000      -0.47993436
2
Properties=species:S:1:pos:R:3:forces:R:3 energy=-2.0379547607556607 pbc="F F F"
Tm       0.00000000       0.00000000       0.00000000       0.00000000       0.00000000       0.49906263
Tm       0.00000000       0.00000000       4.03333333       0.00000000       0.00000000      -0.49906263
2
Properties=species:S:1:pos:R:3:forces:R:3 energy=-2.007780016004723 pbc="F F F"
Tm       0.00000000       0.00000000       0.00000000       0.00000000       0.00000000       0.51269978
Tm       0.00000000       0.00000000       4.09292929       0.00000000       0.00000000      -0.51269978
2
Properties=species:S:1:pos:R:3:forces:R:3 energy=-1.976935571022892 pbc="F F F"
Tm       0.00000000       0.00000000       0.00000000       0.00000000       0.00000000       0.52175176
Tm       0.00000000       0.00000000       4.15252525       0.00000000       0.00000000      -0.52175176
2
Properties=species:S:1:pos:R:3:forces:R:3 energy=-1.9456701513927663 pbc="F F F"
Tm       0.00000000       0.00000000       0.00000000       0.00000000       0.00000000       0.52687138
Tm       0.00000000       0.00000000       4.21212121       0.00000000       0.00000000      -0.52687138
2
Properties=species:S:1:pos:R:3:forces:R:3 energy=-1.9142088879291603 pbc="F F F"
Tm       0.00000000       0.00000000       0.00000000       0.00000000       0.00000000       0.52826267
Tm       0.00000000       0.00000000       4.27171717       0.00000000       0.00000000      -0.52826267
2
Properties=species:S:1:pos:R:3:forces:R:3 energy=-1.8827829122611357 pbc="F F F"
Tm       0.00000000       0.00000000       0.00000000       0.00000000       0.00000000       0.52577120
Tm       0.00000000       0.00000000       4.33131313       0.00000000       0.00000000      -0.52577120
2
Properties=species:S:1:pos:R:3:forces:R:3 energy=-1.8516237234851238 pbc="F F F"
Tm       0.00000000       0.00000000       0.00000000       0.00000000       0.00000000       0.51915526
Tm       0.00000000       0.00000000       4.39090909       0.00000000       0.00000000      -0.51915526
2
Properties=species:S:1:pos:R:3:forces:R:3 energy=-1.8209860446702975 pbc="F F F"
Tm       0.00000000       0.00000000       0.00000000       0.00000000       0.00000000       0.50836754
Tm       0.00000000       0.00000000       4.45050505       0.00000000       0.00000000      -0.50836754
2
Properties=species:S:1:pos:R:3:forces:R:3 energy=-1.7911107752800492 pbc="F F F"
Tm       0.00000000       0.00000000       0.00000000       0.00000000       0.00000000       0.49368227
Tm       0.00000000       0.00000000       4.51010101       0.00000000       0.00000000      -0.49368227
2
Properties=species:S:1:pos:R:3:forces:R:3 energy=-1.762209656355199 pbc="F F F"
Tm       0.00000000       0.00000000       0.00000000       0.00000000       0.00000000       0.47567248
Tm       0.00000000       0.00000000       4.56969697       0.00000000       0.00000000      -0.47567248
2
Properties=species:S:1:pos:R:3:forces:R:3 energy=-1.734464494237716 pbc="F F F"
Tm       0.00000000       0.00000000       0.00000000       0.00000000       0.00000000       0.45511606
Tm       0.00000000       0.00000000       4.62929293       0.00000000       0.00000000      -0.45511606
2
Properties=species:S:1:pos:R:3:forces:R:3 energy=-1.7079956132905474 pbc="F F F"
Tm       0.00000000       0.00000000       0.00000000       0.00000000       0.00000000       0.43290433
Tm       0.00000000       0.00000000       4.68888889       0.00000000       0.00000000      -0.43290433
2
Properties=species:S:1:pos:R:3:forces:R:3 energy=-1.6828781633956604 pbc="F F F"
Tm       0.00000000       0.00000000       0.00000000       0.00000000       0.00000000       0.40995929
Tm       0.00000000       0.00000000       4.74848485       0.00000000       0.00000000      -0.40995929
2
Properties=species:S:1:pos:R:3:forces:R:3 energy=-1.6591296271532654 pbc="F F F"
Tm       0.00000000       0.00000000       0.00000000       0.00000000       0.00000000       0.38720271
Tm       0.00000000       0.00000000       4.80808081       0.00000000       0.00000000      -0.38720271
2
Properties=species:S:1:pos:R:3:forces:R:3 energy=-1.6367071362569068 pbc="F F F"
Tm       0.00000000       0.00000000       0.00000000       0.00000000       0.00000000       0.36546767
Tm       0.00000000       0.00000000       4.86767677       0.00000000       0.00000000      -0.36546767
2
Properties=species:S:1:pos:R:3:forces:R:3 energy=-1.6155321593197365 pbc="F F F"
Tm       0.00000000       0.00000000       0.00000000       0.00000000       0.00000000       0.34541380
Tm       0.00000000       0.00000000       4.92727273       0.00000000       0.00000000      -0.34541380
2
Properties=species:S:1:pos:R:3:forces:R:3 energy=-1.5954971269095741 pbc="F F F"
Tm       0.00000000       0.00000000       0.00000000       0.00000000       0.00000000       0.32736930
Tm       0.00000000       0.00000000       4.98686869       0.00000000       0.00000000      -0.32736930
2
Properties=species:S:1:pos:R:3:forces:R:3 energy=-1.576479831698318 pbc="F F F"
Tm       0.00000000       0.00000000       0.00000000       0.00000000       0.00000000       0.31122997
Tm       0.00000000       0.00000000       5.04646465       0.00000000       0.00000000      -0.31122997
2
Properties=species:S:1:pos:R:3:forces:R:3 energy=-1.558375650648085 pbc="F F F"
Tm       0.00000000       0.00000000       0.00000000       0.00000000       0.00000000       0.29642799
Tm       0.00000000       0.00000000       5.10606061       0.00000000       0.00000000      -0.29642799
2
Properties=species:S:1:pos:R:3:forces:R:3 energy=-1.5411329133242944 pbc="F F F"
Tm       0.00000000       0.00000000       0.00000000       0.00000000       0.00000000       0.28197497
Tm       0.00000000       0.00000000       5.16565657       0.00000000       0.00000000      -0.28197497
2
Properties=species:S:1:pos:R:3:forces:R:3 energy=-1.5247795034062173 pbc="F F F"
Tm       0.00000000       0.00000000       0.00000000       0.00000000       0.00000000       0.26667678
Tm       0.00000000       0.00000000       5.22525253       0.00000000       0.00000000      -0.26667678
2
Properties=species:S:1:pos:R:3:forces:R:3 energy=-1.5093921890533888 pbc="F F F"
Tm       0.00000000       0.00000000       0.00000000       0.00000000       0.00000000       0.24938071
Tm       0.00000000       0.00000000       5.28484848       0.00000000       0.00000000      -0.24938071
2
Properties=species:S:1:pos:R:3:forces:R:3 energy=-1.495112898725431 pbc="F F F"
Tm       0.00000000       0.00000000       0.00000000       0.00000000       0.00000000       0.22924434
Tm       0.00000000       0.00000000       5.34444444       0.00000000       0.00000000      -0.22924434
2
Properties=species:S:1:pos:R:3:forces:R:3 energy=-1.482128446931279 pbc="F F F"
Tm       0.00000000       0.00000000       0.00000000       0.00000000       0.00000000       0.20597517
Tm       0.00000000       0.00000000       5.40404040       0.00000000       0.00000000      -0.20597517
2
Properties=species:S:1:pos:R:3:forces:R:3 energy=-1.4706181201556463 pbc="F F F"
Tm       0.00000000       0.00000000       0.00000000       0.00000000       0.00000000       0.17995073
Tm       0.00000000       0.00000000       5.46363636       0.00000000       0.00000000      -0.17995073
2
Properties=species:S:1:pos:R:3:forces:R:3 energy=-1.4607163315052205 pbc="F F F"
Tm       0.00000000       0.00000000       0.00000000       0.00000000       0.00000000       0.15219182
Tm       0.00000000       0.00000000       5.52323232       0.00000000       0.00000000      -0.15219182
2
Properties=species:S:1:pos:R:3:forces:R:3 energy=-1.4524792040937236 pbc="F F F"
Tm       0.00000000       0.00000000       0.00000000       0.00000000       0.00000000       0.12423277
Tm       0.00000000       0.00000000       5.58282828       0.00000000       0.00000000      -0.12423277
2
Properties=species:S:1:pos:R:3:forces:R:3 energy=-1.4458777115880133 pbc="F F F"
Tm       0.00000000       0.00000000       0.00000000       0.00000000       0.00000000       0.09785816
Tm       0.00000000       0.00000000       5.64242424       0.00000000       0.00000000      -0.09785816
2
Properties=species:S:1:pos:R:3:forces:R:3 energy=-1.4407529030325428 pbc="F F F"
Tm       0.00000000       0.00000000       0.00000000       0.00000000       0.00000000       0.07480223
Tm       0.00000000       0.00000000       5.70202020       0.00000000       0.00000000      -0.07480223
2
Properties=species:S:1:pos:R:3:forces:R:3 energy=-1.436870151411622 pbc="F F F"
Tm       0.00000000       0.00000000       0.00000000       0.00000000       0.00000000       0.05643495
Tm       0.00000000       0.00000000       5.76161616       0.00000000       0.00000000      -0.05643495
2
Properties=species:S:1:pos:R:3:forces:R:3 energy=-1.433919049111286 pbc="F F F"
Tm       0.00000000       0.00000000       0.00000000       0.00000000       0.00000000       0.04344337
Tm       0.00000000       0.00000000       5.82121212       0.00000000       0.00000000      -0.04344337
2
Properties=species:S:1:pos:R:3:forces:R:3 energy=-1.4315849746747138 pbc="F F F"
Tm       0.00000000       0.00000000       0.00000000       0.00000000       0.00000000       0.03570692
Tm       0.00000000       0.00000000       5.88080808       0.00000000       0.00000000      -0.03570692
2
Properties=species:S:1:pos:R:3:forces:R:3 energy=-1.42958044684525 pbc="F F F"
Tm       0.00000000       0.00000000       0.00000000       0.00000000       0.00000000       0.03216302
Tm       0.00000000       0.00000000       5.94040404       0.00000000       0.00000000      -0.03216302
2
Properties=species:S:1:pos:R:3:forces:R:3 energy=-1.4277033588883261 pbc="F F F"
Tm       0.00000000       0.00000000       0.00000000       0.00000000       0.00000000       0.03099215
Tm       0.00000000       0.00000000       6.00000000       0.00000000       0.00000000      -0.03099215
