2
Properties=species:S:1:pos:R:3:forces:R:3 energy=45905451.92099608 pbc="F F F"
Y        0.00000000       0.00000000       0.00000000       0.00000000       0.00000000 -303585952.00000000
Y        0.00000000       0.00000000       0.10000000       0.00000000       0.00000000 303585952.00000000
2
Properties=species:S:1:pos:R:3:forces:R:3 energy=27167065.920996074 pbc="F F F"
Y        0.00000000       0.00000000       0.00000000       0.00000000       0.00000000 -256534912.00000000
Y        0.00000000       0.00000000       0.15959596       0.00000000       0.00000000 256534912.00000000
2
Properties=species:S:1:pos:R:3:forces:R:3 energy=13556435.920996074 pbc="F F F"
Y        0.00000000       0.00000000       0.00000000       0.00000000       0.00000000 -191052512.00000000
Y        0.00000000       0.00000000       0.21919192       0.00000000       0.00000000 191052512.00000000
2
Properties=species:S:1:pos:R:3:forces:R:3 energy=4873306.920996075 pbc="F F F"
Y        0.00000000       0.00000000       0.00000000       0.00000000       0.00000000 -101146712.00000000
Y        0.00000000       0.00000000       0.27878788       0.00000000       0.00000000 101146712.00000000
2
Properties=species:S:1:pos:R:3:forces:R:3 energy=1093299.420996087 pbc="F F F"
Y        0.00000000       0.00000000       0.00000000       0.00000000       0.00000000 -30890342.00000000
Y        0.00000000       0.00000000       0.33838384       0.00000000       0.00000000 30890342.00000000
2
Properties=species:S:1:pos:R:3:forces:R:3 energy=219280.73349608688 pbc="F F F"
Y        0.00000000       0.00000000       0.00000000       0.00000000       0.00000000 -6090572.00000000
Y        0.00000000       0.00000000       0.39797980       0.00000000       0.00000000 6090572.00000000
2
Properties=species:S:1:pos:R:3:forces:R:3 energy=33546.37802733687 pbc="F F F"
Y        0.00000000       0.00000000       0.00000000       0.00000000       0.00000000 -1173682.37500000
Y        0.00000000       0.00000000       0.45757576       0.00000000       0.00000000 1173682.37500000
2
Properties=species:S:1:pos:R:3:forces:R:3 energy=6611.833105474541 pbc="F F F"
Y        0.00000000       0.00000000       0.00000000       0.00000000       0.00000000 -174223.35937500
Y        0.00000000       0.00000000       0.51717172       0.00000000       0.00000000  174223.35937500
2
Properties=species:S:1:pos:R:3:forces:R:3 energy=1586.8028320623837 pbc="F F F"
Y        0.00000000       0.00000000       0.00000000       0.00000000       0.00000000  -36218.00000000
Y        0.00000000       0.00000000       0.57676768       0.00000000       0.00000000   36218.00000000
2
Properties=species:S:1:pos:R:3:forces:R:3 energy=521.8441529011789 pbc="F F F"
Y        0.00000000       0.00000000       0.00000000       0.00000000       0.00000000   -6121.15380859
Y        0.00000000       0.00000000       0.63636364       0.00000000       0.00000000    6121.15380859
2
Properties=species:S:1:pos:R:3:forces:R:3 energy=355.85697034101213 pbc="F F F"
Y        0.00000000       0.00000000       0.00000000       0.00000000       0.00000000   -1153.18127441
Y        0.00000000       0.00000000       0.69595960       0.00000000       0.00000000    1153.18127441
2
Properties=species:S:1:pos:R:3:forces:R:3 energy=297.4991823501093 pbc="F F F"
Y        0.00000000       0.00000000       0.00000000       0.00000000       0.00000000    -808.49060059
Y        0.00000000       0.00000000       0.75555556       0.00000000       0.00000000     808.49060059
2
Properties=species:S:1:pos:R:3:forces:R:3 energy=271.7448489870641 pbc="F F F"
Y        0.00000000       0.00000000       0.00000000       0.00000000       0.00000000    -131.73187256
Y        0.00000000       0.00000000       0.81515152       0.00000000       0.00000000     131.73187256
2
Properties=species:S:1:pos:R:3:forces:R:3 energy=267.55832574596906 pbc="F F F"
Y        0.00000000       0.00000000       0.00000000       0.00000000       0.00000000    -211.91513062
Y        0.00000000       0.00000000       0.87474747       0.00000000       0.00000000     211.91513062
2
Properties=species:S:1:pos:R:3:forces:R:3 energy=225.96660543734706 pbc="F F F"
Y        0.00000000       0.00000000       0.00000000       0.00000000       0.00000000   -1282.22778320
Y        0.00000000       0.00000000       0.93434343       0.00000000       0.00000000    1282.22778320
2
Properties=species:S:1:pos:R:3:forces:R:3 energy=139.80661742050106 pbc="F F F"
Y        0.00000000       0.00000000       0.00000000       0.00000000       0.00000000   -1267.80151367
Y        0.00000000       0.00000000       0.99393939       0.00000000       0.00000000    1267.80151367
2
Properties=species:S:1:pos:R:3:forces:R:3 energy=79.40329762752388 pbc="F F F"
Y        0.00000000       0.00000000       0.00000000       0.00000000       0.00000000    -811.32977295
Y        0.00000000       0.00000000       1.05353535       0.00000000       0.00000000     811.32977295
2
Properties=species:S:1:pos:R:3:forces:R:3 energy=42.984551376202575 pbc="F F F"
Y        0.00000000       0.00000000       0.00000000       0.00000000       0.00000000    -381.76025391
Y        0.00000000       0.00000000       1.11313131       0.00000000       0.00000000     381.76025391
2
Properties=species:S:1:pos:R:3:forces:R:3 energy=30.485074902060745 pbc="F F F"
Y        0.00000000       0.00000000       0.00000000       0.00000000       0.00000000    -120.00757599
Y        0.00000000       0.00000000       1.17272727       0.00000000       0.00000000     120.00757599
2
Properties=species:S:1:pos:R:3:forces:R:3 energy=27.672244214499763 pbc="F F F"
Y        0.00000000       0.00000000       0.00000000       0.00000000       0.00000000      27.29895401
Y        0.00000000       0.00000000       1.23232323       0.00000000       0.00000000     -27.29895401
2
Properties=species:S:1:pos:R:3:forces:R:3 energy=26.442646736030955 pbc="F F F"
Y        0.00000000       0.00000000       0.00000000       0.00000000       0.00000000     -67.24691010
Y        0.00000000       0.00000000       1.29191919       0.00000000       0.00000000      67.24691010
2
Properties=species:S:1:pos:R:3:forces:R:3 energy=21.23795201946467 pbc="F F F"
Y        0.00000000       0.00000000       0.00000000       0.00000000       0.00000000     -92.19753265
Y        0.00000000       0.00000000       1.35151515       0.00000000       0.00000000      92.19753265
2
Properties=species:S:1:pos:R:3:forces:R:3 energy=15.913625088802668 pbc="F F F"
Y        0.00000000       0.00000000       0.00000000       0.00000000       0.00000000     -85.37896729
Y        0.00000000       0.00000000       1.41111111       0.00000000       0.00000000      85.37896729
2
Properties=species:S:1:pos:R:3:forces:R:3 energy=11.344280748320132 pbc="F F F"
Y        0.00000000       0.00000000       0.00000000       0.00000000       0.00000000     -65.18144226
Y        0.00000000       0.00000000       1.47070707       0.00000000       0.00000000      65.18144226
2
Properties=species:S:1:pos:R:3:forces:R:3 energy=8.25992246899226 pbc="F F F"
Y        0.00000000       0.00000000       0.00000000       0.00000000       0.00000000     -40.40394592
Y        0.00000000       0.00000000       1.53030303       0.00000000       0.00000000      40.40394592
2
Properties=species:S:1:pos:R:3:forces:R:3 energy=6.267318057293456 pbc="F F F"
Y        0.00000000       0.00000000       0.00000000       0.00000000       0.00000000     -28.47456932
Y        0.00000000       0.00000000       1.58989899       0.00000000       0.00000000      28.47456932
2
Properties=species:S:1:pos:R:3:forces:R:3 energy=4.743663010884262 pbc="F F F"
Y        0.00000000       0.00000000       0.00000000       0.00000000       0.00000000     -22.49900627
Y        0.00000000       0.00000000       1.64949495       0.00000000       0.00000000      22.49900627
2
Properties=species:S:1:pos:R:3:forces:R:3 energy=3.483698184042604 pbc="F F F"
Y        0.00000000       0.00000000       0.00000000       0.00000000       0.00000000     -20.53015327
Y        0.00000000       0.00000000       1.70909091       0.00000000       0.00000000      20.53015327
2
Properties=species:S:1:pos:R:3:forces:R:3 energy=2.3310402651048 pbc="F F F"
Y        0.00000000       0.00000000       0.00000000       0.00000000       0.00000000     -17.92732811
Y        0.00000000       0.00000000       1.76868687       0.00000000       0.00000000      17.92732811
2
Properties=species:S:1:pos:R:3:forces:R:3 energy=1.319197776599652 pbc="F F F"
Y        0.00000000       0.00000000       0.00000000       0.00000000       0.00000000     -15.94977474
Y        0.00000000       0.00000000       1.82828283       0.00000000       0.00000000      15.94977474
2
Properties=species:S:1:pos:R:3:forces:R:3 energy=0.4475567993575209 pbc="F F F"
Y        0.00000000       0.00000000       0.00000000       0.00000000       0.00000000     -13.52142715
Y        0.00000000       0.00000000       1.88787879       0.00000000       0.00000000      13.52142715
2
Properties=species:S:1:pos:R:3:forces:R:3 energy=-0.31265284730187626 pbc="F F F"
Y        0.00000000       0.00000000       0.00000000       0.00000000       0.00000000     -12.01973343
Y        0.00000000       0.00000000       1.94747475       0.00000000       0.00000000      12.01973343
2
Properties=species:S:1:pos:R:3:forces:R:3 energy=-0.9866879445207393 pbc="F F F"
Y        0.00000000       0.00000000       0.00000000       0.00000000       0.00000000     -10.59520149
Y        0.00000000       0.00000000       2.00707071       0.00000000       0.00000000      10.59520149
2
Properties=species:S:1:pos:R:3:forces:R:3 energy=-1.5785516306050396 pbc="F F F"
Y        0.00000000       0.00000000       0.00000000       0.00000000       0.00000000      -9.29911518
Y        0.00000000       0.00000000       2.06666667       0.00000000       0.00000000       9.29911518
2
Properties=species:S:1:pos:R:3:forces:R:3 energy=-2.0906699199671843 pbc="F F F"
Y        0.00000000       0.00000000       0.00000000       0.00000000       0.00000000      -7.83641529
Y        0.00000000       0.00000000       2.12626263       0.00000000       0.00000000       7.83641529
2
Properties=species:S:1:pos:R:3:forces:R:3 energy=-2.5211100602202823 pbc="F F F"
Y        0.00000000       0.00000000       0.00000000       0.00000000       0.00000000      -6.76948690
Y        0.00000000       0.00000000       2.18585859       0.00000000       0.00000000       6.76948690
2
Properties=species:S:1:pos:R:3:forces:R:3 energy=-2.908703635466877 pbc="F F F"
Y        0.00000000       0.00000000       0.00000000       0.00000000       0.00000000      -6.27017403
Y        0.00000000       0.00000000       2.24545455       0.00000000       0.00000000       6.27017403
2
Properties=species:S:1:pos:R:3:forces:R:3 energy=-3.271045734104046 pbc="F F F"
Y        0.00000000       0.00000000       0.00000000       0.00000000       0.00000000      -5.87868977
Y        0.00000000       0.00000000       2.30505051       0.00000000       0.00000000       5.87868977
2
Properties=species:S:1:pos:R:3:forces:R:3 energy=-3.6060878700357937 pbc="F F F"
Y        0.00000000       0.00000000       0.00000000       0.00000000       0.00000000      -5.35866165
Y        0.00000000       0.00000000       2.36464646       0.00000000       0.00000000       5.35866165
2
Properties=species:S:1:pos:R:3:forces:R:3 energy=-3.911215442089547 pbc="F F F"
Y        0.00000000       0.00000000       0.00000000       0.00000000       0.00000000      -4.88810682
Y        0.00000000       0.00000000       2.42424242       0.00000000       0.00000000       4.88810682
2
Properties=species:S:1:pos:R:3:forces:R:3 energy=-4.188874805292901 pbc="F F F"
Y        0.00000000       0.00000000       0.00000000       0.00000000       0.00000000      -4.42965841
Y        0.00000000       0.00000000       2.48383838       0.00000000       0.00000000       4.42965841
2
Properties=species:S:1:pos:R:3:forces:R:3 energy=-4.438510825839343 pbc="F F F"
Y        0.00000000       0.00000000       0.00000000       0.00000000       0.00000000      -3.94532013
Y        0.00000000       0.00000000       2.54343434       0.00000000       0.00000000       3.94532013
2
Properties=species:S:1:pos:R:3:forces:R:3 energy=-4.660769115259103 pbc="F F F"
Y        0.00000000       0.00000000       0.00000000       0.00000000       0.00000000      -3.53826261
Y        0.00000000       0.00000000       2.60303030       0.00000000       0.00000000       3.53826261
2
Properties=species:S:1:pos:R:3:forces:R:3 energy=-4.862581034545521 pbc="F F F"
Y        0.00000000       0.00000000       0.00000000       0.00000000       0.00000000      -3.24294615
Y        0.00000000       0.00000000       2.66262626       0.00000000       0.00000000       3.24294615
2
Properties=species:S:1:pos:R:3:forces:R:3 energy=-5.046927292839863 pbc="F F F"
Y        0.00000000       0.00000000       0.00000000       0.00000000       0.00000000      -2.93222022
Y        0.00000000       0.00000000       2.72222222       0.00000000       0.00000000       2.93222022
2
Properties=species:S:1:pos:R:3:forces:R:3 energy=-5.210666025211926 pbc="F F F"
Y        0.00000000       0.00000000       0.00000000       0.00000000       0.00000000      -2.55451441
Y        0.00000000       0.00000000       2.78181818       0.00000000       0.00000000       2.55451441
2
Properties=species:S:1:pos:R:3:forces:R:3 energy=-5.351099857039558 pbc="F F F"
Y        0.00000000       0.00000000       0.00000000       0.00000000       0.00000000      -2.16051555
Y        0.00000000       0.00000000       2.84141414       0.00000000       0.00000000       2.16051555
2
Properties=species:S:1:pos:R:3:forces:R:3 energy=-5.468754204062778 pbc="F F F"
Y        0.00000000       0.00000000       0.00000000       0.00000000       0.00000000      -1.79412389
Y        0.00000000       0.00000000       2.90101010       0.00000000       0.00000000       1.79412389
2
Properties=species:S:1:pos:R:3:forces:R:3 energy=-5.565682579812829 pbc="F F F"
Y        0.00000000       0.00000000       0.00000000       0.00000000       0.00000000      -1.46440268
Y        0.00000000       0.00000000       2.96060606       0.00000000       0.00000000       1.46440268
2
Properties=species:S:1:pos:R:3:forces:R:3 energy=-5.6438611522893645 pbc="F F F"
Y        0.00000000       0.00000000       0.00000000       0.00000000       0.00000000      -1.16318786
Y        0.00000000       0.00000000       3.02020202       0.00000000       0.00000000       1.16318786
2
Properties=species:S:1:pos:R:3:forces:R:3 energy=-5.704822722133176 pbc="F F F"
Y        0.00000000       0.00000000       0.00000000       0.00000000       0.00000000      -0.88744098
Y        0.00000000       0.00000000       3.07979798       0.00000000       0.00000000       0.88744098
2
Properties=species:S:1:pos:R:3:forces:R:3 energy=-5.750329844352384 pbc="F F F"
Y        0.00000000       0.00000000       0.00000000       0.00000000       0.00000000      -0.64649051
Y        0.00000000       0.00000000       3.13939394       0.00000000       0.00000000       0.64649051
2
Properties=species:S:1:pos:R:3:forces:R:3 energy=-5.782750917168788 pbc="F F F"
Y        0.00000000       0.00000000       0.00000000       0.00000000       0.00000000      -0.44907469
Y        0.00000000       0.00000000       3.19898990       0.00000000       0.00000000       0.44907469
2
Properties=species:S:1:pos:R:3:forces:R:3 energy=-5.804723452620806 pbc="F F F"
Y        0.00000000       0.00000000       0.00000000       0.00000000       0.00000000      -0.29521289
Y        0.00000000       0.00000000       3.25858586       0.00000000       0.00000000       0.29521289
2
Properties=species:S:1:pos:R:3:forces:R:3 energy=-5.81867252888291 pbc="F F F"
Y        0.00000000       0.00000000       0.00000000       0.00000000       0.00000000      -0.17834124
Y        0.00000000       0.00000000       3.31818182       0.00000000       0.00000000       0.17834124
2
Properties=species:S:1:pos:R:3:forces:R:3 energy=-5.8265460210301745 pbc="F F F"
Y        0.00000000       0.00000000       0.00000000       0.00000000       0.00000000      -0.08981336
Y        0.00000000       0.00000000       3.37777778       0.00000000       0.00000000       0.08981336
2
Properties=species:S:1:pos:R:3:forces:R:3 energy=-5.829727736463708 pbc="F F F"
Y        0.00000000       0.00000000       0.00000000       0.00000000       0.00000000      -0.01872085
Y        0.00000000       0.00000000       3.43737374       0.00000000       0.00000000       0.01872085
2
Properties=species:S:1:pos:R:3:forces:R:3 energy=-5.828819274521448 pbc="F F F"
Y        0.00000000       0.00000000       0.00000000       0.00000000       0.00000000       0.05028047
Y        0.00000000       0.00000000       3.49696970       0.00000000       0.00000000      -0.05028047
2
Properties=species:S:1:pos:R:3:forces:R:3 energy=-5.823517876940937 pbc="F F F"
Y        0.00000000       0.00000000       0.00000000       0.00000000       0.00000000       0.12965292
Y        0.00000000       0.00000000       3.55656566       0.00000000       0.00000000      -0.12965292
2
Properties=species:S:1:pos:R:3:forces:R:3 energy=-5.813172195808846 pbc="F F F"
Y        0.00000000       0.00000000       0.00000000       0.00000000       0.00000000       0.21832010
Y        0.00000000       0.00000000       3.61616162       0.00000000       0.00000000      -0.21832010
2
Properties=species:S:1:pos:R:3:forces:R:3 energy=-5.797537614834561 pbc="F F F"
Y        0.00000000       0.00000000       0.00000000       0.00000000       0.00000000       0.30497587
Y        0.00000000       0.00000000       3.67575758       0.00000000       0.00000000      -0.30497587
2
Properties=species:S:1:pos:R:3:forces:R:3 energy=-5.77704408528484 pbc="F F F"
Y        0.00000000       0.00000000       0.00000000       0.00000000       0.00000000       0.38074294
Y        0.00000000       0.00000000       3.73535354       0.00000000       0.00000000      -0.38074294
2
Properties=species:S:1:pos:R:3:forces:R:3 energy=-5.752409793623539 pbc="F F F"
Y        0.00000000       0.00000000       0.00000000       0.00000000       0.00000000       0.44394395
Y        0.00000000       0.00000000       3.79494949       0.00000000       0.00000000      -0.44394395
2
Properties=species:S:1:pos:R:3:forces:R:3 energy=-5.724339796157292 pbc="F F F"
Y        0.00000000       0.00000000       0.00000000       0.00000000       0.00000000       0.49654499
Y        0.00000000       0.00000000       3.85454545       0.00000000       0.00000000      -0.49654499
2
Properties=species:S:1:pos:R:3:forces:R:3 energy=-5.693396168799179 pbc="F F F"
Y        0.00000000       0.00000000       0.00000000       0.00000000       0.00000000       0.54055452
Y        0.00000000       0.00000000       3.91414141       0.00000000       0.00000000      -0.54055452
2
Properties=species:S:1:pos:R:3:forces:R:3 energy=-5.660058202984294 pbc="F F F"
Y        0.00000000       0.00000000       0.00000000       0.00000000       0.00000000       0.57705271
Y        0.00000000       0.00000000       3.97373737       0.00000000       0.00000000      -0.57705271
2
Properties=species:S:1:pos:R:3:forces:R:3 energy=-5.624751262422279 pbc="F F F"
Y        0.00000000       0.00000000       0.00000000       0.00000000       0.00000000       0.60665816
Y        0.00000000       0.00000000       4.03333333       0.00000000       0.00000000      -0.60665816
2
Properties=species:S:1:pos:R:3:forces:R:3 energy=-5.5878716202324465 pbc="F F F"
Y        0.00000000       0.00000000       0.00000000       0.00000000       0.00000000       0.63004327
Y        0.00000000       0.00000000       4.09292929       0.00000000       0.00000000      -0.63004327
2
Properties=species:S:1:pos:R:3:forces:R:3 energy=-5.549765535579983 pbc="F F F"
Y        0.00000000       0.00000000       0.00000000       0.00000000       0.00000000       0.64798993
Y        0.00000000       0.00000000       4.15252525       0.00000000       0.00000000      -0.64798993
2
Properties=species:S:1:pos:R:3:forces:R:3 energy=-5.510732969051782 pbc="F F F"
Y        0.00000000       0.00000000       0.00000000       0.00000000       0.00000000       0.66110694
Y        0.00000000       0.00000000       4.21212121       0.00000000       0.00000000      -0.66110694
2
Properties=species:S:1:pos:R:3:forces:R:3 energy=-5.471056705753429 pbc="F F F"
Y        0.00000000       0.00000000       0.00000000       0.00000000       0.00000000       0.66958952
Y        0.00000000       0.00000000       4.27171717       0.00000000       0.00000000      -0.66958952
2
Properties=species:S:1:pos:R:3:forces:R:3 energy=-5.431019562468728 pbc="F F F"
Y        0.00000000       0.00000000       0.00000000       0.00000000       0.00000000       0.67325789
Y        0.00000000       0.00000000       4.33131313       0.00000000       0.00000000      -0.67325789
2
Properties=species:S:1:pos:R:3:forces:R:3 energy=-5.390912340172095 pbc="F F F"
Y        0.00000000       0.00000000       0.00000000       0.00000000       0.00000000       0.67180908
Y        0.00000000       0.00000000       4.39090909       0.00000000       0.00000000      -0.67180908
2
Properties=species:S:1:pos:R:3:forces:R:3 energy=-5.351045489867907 pbc="F F F"
Y        0.00000000       0.00000000       0.00000000       0.00000000       0.00000000       0.66509587
Y        0.00000000       0.00000000       4.45050505       0.00000000       0.00000000      -0.66509587
2
Properties=species:S:1:pos:R:3:forces:R:3 energy=-5.31174260793268 pbc="F F F"
Y        0.00000000       0.00000000       0.00000000       0.00000000       0.00000000       0.65325105
Y        0.00000000       0.00000000       4.51010101       0.00000000       0.00000000      -0.65325105
2
Properties=species:S:1:pos:R:3:forces:R:3 energy=-5.273278250879529 pbc="F F F"
Y        0.00000000       0.00000000       0.00000000       0.00000000       0.00000000       0.63671809
Y        0.00000000       0.00000000       4.56969697       0.00000000       0.00000000      -0.63671809
2
Properties=species:S:1:pos:R:3:forces:R:3 energy=-5.235927855876128 pbc="F F F"
Y        0.00000000       0.00000000       0.00000000       0.00000000       0.00000000       0.61619079
Y        0.00000000       0.00000000       4.62929293       0.00000000       0.00000000      -0.61619079
2
Properties=species:S:1:pos:R:3:forces:R:3 energy=-5.199897957792859 pbc="F F F"
Y        0.00000000       0.00000000       0.00000000       0.00000000       0.00000000       0.59259367
Y        0.00000000       0.00000000       4.68888889       0.00000000       0.00000000      -0.59259367
2
Properties=species:S:1:pos:R:3:forces:R:3 energy=-5.165334886313257 pbc="F F F"
Y        0.00000000       0.00000000       0.00000000       0.00000000       0.00000000       0.56701142
Y        0.00000000       0.00000000       4.74848485       0.00000000       0.00000000      -0.56701142
2
Properties=species:S:1:pos:R:3:forces:R:3 energy=-5.132329363243193 pbc="F F F"
Y        0.00000000       0.00000000       0.00000000       0.00000000       0.00000000       0.54068190
Y        0.00000000       0.00000000       4.80808081       0.00000000       0.00000000      -0.54068190
2
Properties=species:S:1:pos:R:3:forces:R:3 energy=-5.100880395935388 pbc="F F F"
Y        0.00000000       0.00000000       0.00000000       0.00000000       0.00000000       0.51483512
Y        0.00000000       0.00000000       4.86767677       0.00000000       0.00000000      -0.51483512
2
Properties=species:S:1:pos:R:3:forces:R:3 energy=-5.070932381888723 pbc="F F F"
Y        0.00000000       0.00000000       0.00000000       0.00000000       0.00000000       0.49052089
Y        0.00000000       0.00000000       4.92727273       0.00000000       0.00000000      -0.49052089
2
Properties=species:S:1:pos:R:3:forces:R:3 energy=-5.042370131300406 pbc="F F F"
Y        0.00000000       0.00000000       0.00000000       0.00000000       0.00000000       0.46832967
Y        0.00000000       0.00000000       4.98686869       0.00000000       0.00000000      -0.46832967
2
Properties=species:S:1:pos:R:3:forces:R:3 energy=-5.015073353214883 pbc="F F F"
Y        0.00000000       0.00000000       0.00000000       0.00000000       0.00000000       0.44819829
Y        0.00000000       0.00000000       5.04646465       0.00000000       0.00000000      -0.44819829
2
Properties=species:S:1:pos:R:3:forces:R:3 energy=-4.98892781451165 pbc="F F F"
Y        0.00000000       0.00000000       0.00000000       0.00000000       0.00000000       0.42933774
Y        0.00000000       0.00000000       5.10606061       0.00000000       0.00000000      -0.42933774
2
Properties=species:S:1:pos:R:3:forces:R:3 energy=-4.963897819153292 pbc="F F F"
Y        0.00000000       0.00000000       0.00000000       0.00000000       0.00000000       0.41029423
Y        0.00000000       0.00000000       5.16565657       0.00000000       0.00000000      -0.41029423
2
Properties=species:S:1:pos:R:3:forces:R:3 energy=-4.940056649735883 pbc="F F F"
Y        0.00000000       0.00000000       0.00000000       0.00000000       0.00000000       0.38928989
Y        0.00000000       0.00000000       5.22525253       0.00000000       0.00000000      -0.38928989
2
Properties=species:S:1:pos:R:3:forces:R:3 energy=-4.9175699748869475 pbc="F F F"
Y        0.00000000       0.00000000       0.00000000       0.00000000       0.00000000       0.36460406
Y        0.00000000       0.00000000       5.28484848       0.00000000       0.00000000      -0.36460406
2
Properties=species:S:1:pos:R:3:forces:R:3 energy=-4.896699879374629 pbc="F F F"
Y        0.00000000       0.00000000       0.00000000       0.00000000       0.00000000       0.33500639
Y        0.00000000       0.00000000       5.34444444       0.00000000       0.00000000      -0.33500639
2
Properties=species:S:1:pos:R:3:forces:R:3 energy=-4.877748388246764 pbc="F F F"
Y        0.00000000       0.00000000       0.00000000       0.00000000       0.00000000       0.30014020
Y        0.00000000       0.00000000       5.40404040       0.00000000       0.00000000      -0.30014020
2
Properties=species:S:1:pos:R:3:forces:R:3 energy=-4.861012365369661 pbc="F F F"
Y        0.00000000       0.00000000       0.00000000       0.00000000       0.00000000       0.26069954
Y        0.00000000       0.00000000       5.46363636       0.00000000       0.00000000      -0.26069954
2
Properties=species:S:1:pos:R:3:forces:R:3 energy=-4.846734933058762 pbc="F F F"
Y        0.00000000       0.00000000       0.00000000       0.00000000       0.00000000       0.21837361
Y        0.00000000       0.00000000       5.52323232       0.00000000       0.00000000      -0.21837361
2
Properties=species:S:1:pos:R:3:forces:R:3 energy=-4.834999519194856 pbc="F F F"
Y        0.00000000       0.00000000       0.00000000       0.00000000       0.00000000       0.17562181
Y        0.00000000       0.00000000       5.58282828       0.00000000       0.00000000      -0.17562181
2
Properties=species:S:1:pos:R:3:forces:R:3 energy=-4.8257525870165665 pbc="F F F"
Y        0.00000000       0.00000000       0.00000000       0.00000000       0.00000000       0.13529354
Y        0.00000000       0.00000000       5.64242424       0.00000000       0.00000000      -0.13529354
2
Properties=species:S:1:pos:R:3:forces:R:3 energy=-4.818769353530118 pbc="F F F"
Y        0.00000000       0.00000000       0.00000000       0.00000000       0.00000000       0.10006364
Y        0.00000000       0.00000000       5.70202020       0.00000000       0.00000000      -0.10006364
2
Properties=species:S:1:pos:R:3:forces:R:3 energy=-4.8136823110398 pbc="F F F"
Y        0.00000000       0.00000000       0.00000000       0.00000000       0.00000000       0.07205621
Y        0.00000000       0.00000000       5.76161616       0.00000000       0.00000000      -0.07205621
2
Properties=species:S:1:pos:R:3:forces:R:3 energy=-4.81001835075423 pbc="F F F"
Y        0.00000000       0.00000000       0.00000000       0.00000000       0.00000000       0.05227989
Y        0.00000000       0.00000000       5.82121212       0.00000000       0.00000000      -0.05227989
2
Properties=species:S:1:pos:R:3:forces:R:3 energy=-4.807288496871107 pbc="F F F"
Y        0.00000000       0.00000000       0.00000000       0.00000000       0.00000000       0.04052740
Y        0.00000000       0.00000000       5.88080808       0.00000000       0.00000000      -0.04052740
2
Properties=species:S:1:pos:R:3:forces:R:3 energy=-4.805058377106321 pbc="F F F"
Y        0.00000000       0.00000000       0.00000000       0.00000000       0.00000000       0.03516700
Y        0.00000000       0.00000000       5.94040404       0.00000000       0.00000000      -0.03516700
2
Properties=species:S:1:pos:R:3:forces:R:3 energy=-4.803025571683893 pbc="F F F"
Y        0.00000000       0.00000000       0.00000000       0.00000000       0.00000000       0.03343363
Y        0.00000000       0.00000000       6.00000000       0.00000000       0.00000000      -0.03343363
