2
Properties=species:S:1:pos:R:3:forces:R:3 energy=-200915.5742596369 pbc="F F F"
Ir       0.00000000       0.00000000       0.00000000       0.00000000       0.00000000 -202562.87500000
Ir       0.00000000       0.00000000       0.18000000       0.00000000       0.00000000  202562.87500000
2
Properties=species:S:1:pos:R:3:forces:R:3 energy=-203068.4805096369 pbc="F F F"
Ir       0.00000000       0.00000000       0.00000000       0.00000000       0.00000000  103026.27343750
Ir       0.00000000       0.00000000       0.23878788       0.00000000       0.00000000 -103026.27343750
2
Properties=species:S:1:pos:R:3:forces:R:3 energy=-189555.0117596369 pbc="F F F"
Ir       0.00000000       0.00000000       0.00000000       0.00000000       0.00000000  359641.56250000
Ir       0.00000000       0.00000000       0.29757576       0.00000000       0.00000000 -359641.56250000
2
Properties=species:S:1:pos:R:3:forces:R:3 energy=-160407.46488463532 pbc="F F F"
Ir       0.00000000       0.00000000       0.00000000       0.00000000       0.00000000  630901.87500000
Ir       0.00000000       0.00000000       0.35636364       0.00000000       0.00000000 -630901.87500000
2
Properties=species:S:1:pos:R:3:forces:R:3 energy=-116623.55082213531 pbc="F F F"
Ir       0.00000000       0.00000000       0.00000000       0.00000000       0.00000000  835923.56250000
Ir       0.00000000       0.00000000       0.41515152       0.00000000       0.00000000 -835923.56250000
2
Properties=species:S:1:pos:R:3:forces:R:3 energy=-66381.05863463531 pbc="F F F"
Ir       0.00000000       0.00000000       0.00000000       0.00000000       0.00000000  819330.37500000
Ir       0.00000000       0.00000000       0.47393939       0.00000000       0.00000000 -819330.37500000
2
Properties=species:S:1:pos:R:3:forces:R:3 energy=-15673.046915882143 pbc="F F F"
Ir       0.00000000       0.00000000       0.00000000       0.00000000       0.00000000  654366.25000000
Ir       0.00000000       0.00000000       0.53272727       0.00000000       0.00000000 -654366.25000000
2
Properties=species:S:1:pos:R:3:forces:R:3 energy=5506.593220839774 pbc="F F F"
Ir       0.00000000       0.00000000       0.00000000       0.00000000       0.00000000   97577.62500000
Ir       0.00000000       0.00000000       0.59151515       0.00000000       0.00000000  -97577.62500000
2
Properties=species:S:1:pos:R:3:forces:R:3 energy=3543.3185626429854 pbc="F F F"
Ir       0.00000000       0.00000000       0.00000000       0.00000000       0.00000000  -88243.10156250
Ir       0.00000000       0.00000000       0.65030303       0.00000000       0.00000000   88243.10156250
2
Properties=species:S:1:pos:R:3:forces:R:3 energy=510.71349063100433 pbc="F F F"
Ir       0.00000000       0.00000000       0.00000000       0.00000000       0.00000000  -19966.33398438
Ir       0.00000000       0.00000000       0.70909091       0.00000000       0.00000000   19966.33398438
2
Properties=species:S:1:pos:R:3:forces:R:3 energy=19.56946293609055 pbc="F F F"
Ir       0.00000000       0.00000000       0.00000000       0.00000000       0.00000000     877.90069580
Ir       0.00000000       0.00000000       0.76787879       0.00000000       0.00000000    -877.90069580
2
Properties=species:S:1:pos:R:3:forces:R:3 energy=25.500165166946005 pbc="F F F"
Ir       0.00000000       0.00000000       0.00000000       0.00000000       0.00000000    -292.66778564
Ir       0.00000000       0.00000000       0.82666667       0.00000000       0.00000000     292.66778564
2
Properties=species:S:1:pos:R:3:forces:R:3 energy=-3.609934595440155 pbc="F F F"
Ir       0.00000000       0.00000000       0.00000000       0.00000000       0.00000000    -653.95959473
Ir       0.00000000       0.00000000       0.88545455       0.00000000       0.00000000     653.95959473
2
Properties=species:S:1:pos:R:3:forces:R:3 energy=-47.20034287786987 pbc="F F F"
Ir       0.00000000       0.00000000       0.00000000       0.00000000       0.00000000    -781.07135010
Ir       0.00000000       0.00000000       0.94424242       0.00000000       0.00000000     781.07135010
2
Properties=species:S:1:pos:R:3:forces:R:3 energy=-91.52320353862251 pbc="F F F"
Ir       0.00000000       0.00000000       0.00000000       0.00000000       0.00000000    -485.23568726
Ir       0.00000000       0.00000000       1.00303030       0.00000000       0.00000000     485.23568726
2
Properties=species:S:1:pos:R:3:forces:R:3 energy=-87.26578005854805 pbc="F F F"
Ir       0.00000000       0.00000000       0.00000000       0.00000000       0.00000000     130.51847839
Ir       0.00000000       0.00000000       1.06181818       0.00000000       0.00000000    -130.51847839
2
Properties=species:S:1:pos:R:3:forces:R:3 energy=-82.09849022170711 pbc="F F F"
Ir       0.00000000       0.00000000       0.00000000       0.00000000       0.00000000      42.78548050
Ir       0.00000000       0.00000000       1.12060606       0.00000000       0.00000000     -42.78548050
2
Properties=species:S:1:pos:R:3:forces:R:3 energy=-81.03237375406685 pbc="F F F"
Ir       0.00000000       0.00000000       0.00000000       0.00000000       0.00000000      -5.02328539
Ir       0.00000000       0.00000000       1.17939394       0.00000000       0.00000000       5.02328539
2
Properties=species:S:1:pos:R:3:forces:R:3 energy=-82.55225578198507 pbc="F F F"
Ir       0.00000000       0.00000000       0.00000000       0.00000000       0.00000000     -33.56858444
Ir       0.00000000       0.00000000       1.23818182       0.00000000       0.00000000      33.56858444
2
Properties=species:S:1:pos:R:3:forces:R:3 energy=-83.85018341668284 pbc="F F F"
Ir       0.00000000       0.00000000       0.00000000       0.00000000       0.00000000      -9.66554356
Ir       0.00000000       0.00000000       1.29696970       0.00000000       0.00000000       9.66554356
2
Properties=species:S:1:pos:R:3:forces:R:3 energy=-84.00050509915566 pbc="F F F"
Ir       0.00000000       0.00000000       0.00000000       0.00000000       0.00000000       1.65158820
Ir       0.00000000       0.00000000       1.35575758       0.00000000       0.00000000      -1.65158820
2
Properties=species:S:1:pos:R:3:forces:R:3 energy=-83.89627959279578 pbc="F F F"
Ir       0.00000000       0.00000000       0.00000000       0.00000000       0.00000000       0.18509161
Ir       0.00000000       0.00000000       1.41454545       0.00000000       0.00000000      -0.18509161
2
Properties=species:S:1:pos:R:3:forces:R:3 energy=-84.15261919357917 pbc="F F F"
Ir       0.00000000       0.00000000       0.00000000       0.00000000       0.00000000      -9.71025848
Ir       0.00000000       0.00000000       1.47333333       0.00000000       0.00000000       9.71025848
2
Properties=species:S:1:pos:R:3:forces:R:3 energy=-85.0304796906699 pbc="F F F"
Ir       0.00000000       0.00000000       0.00000000       0.00000000       0.00000000     -19.52071190
Ir       0.00000000       0.00000000       1.53212121       0.00000000       0.00000000      19.52071190
2
Properties=species:S:1:pos:R:3:forces:R:3 energy=-86.3651500807811 pbc="F F F"
Ir       0.00000000       0.00000000       0.00000000       0.00000000       0.00000000     -25.28375244
Ir       0.00000000       0.00000000       1.59090909       0.00000000       0.00000000      25.28375244
2
Properties=species:S:1:pos:R:3:forces:R:3 energy=-87.94451792448368 pbc="F F F"
Ir       0.00000000       0.00000000       0.00000000       0.00000000       0.00000000     -27.97683144
Ir       0.00000000       0.00000000       1.64969697       0.00000000       0.00000000      27.97683144
2
Properties=species:S:1:pos:R:3:forces:R:3 energy=-89.5943278586034 pbc="F F F"
Ir       0.00000000       0.00000000       0.00000000       0.00000000       0.00000000     -27.60188103
Ir       0.00000000       0.00000000       1.70848485       0.00000000       0.00000000      27.60188103
2
Properties=species:S:1:pos:R:3:forces:R:3 energy=-91.12855238637916 pbc="F F F"
Ir       0.00000000       0.00000000       0.00000000       0.00000000       0.00000000     -24.15486145
Ir       0.00000000       0.00000000       1.76727273       0.00000000       0.00000000      24.15486145
2
Properties=species:S:1:pos:R:3:forces:R:3 energy=-92.39892195110917 pbc="F F F"
Ir       0.00000000       0.00000000       0.00000000       0.00000000       0.00000000     -18.90694809
Ir       0.00000000       0.00000000       1.82606061       0.00000000       0.00000000      18.90694809
2
Properties=species:S:1:pos:R:3:forces:R:3 energy=-93.34721684745001 pbc="F F F"
Ir       0.00000000       0.00000000       0.00000000       0.00000000       0.00000000     -13.40800095
Ir       0.00000000       0.00000000       1.88484848       0.00000000       0.00000000      13.40800095
2
Properties=species:S:1:pos:R:3:forces:R:3 energy=-93.98720091495295 pbc="F F F"
Ir       0.00000000       0.00000000       0.00000000       0.00000000       0.00000000      -8.49966145
Ir       0.00000000       0.00000000       1.94363636       0.00000000       0.00000000       8.49966145
2
Properties=species:S:1:pos:R:3:forces:R:3 energy=-94.36766489350654 pbc="F F F"
Ir       0.00000000       0.00000000       0.00000000       0.00000000       0.00000000      -4.67438555
Ir       0.00000000       0.00000000       2.00242424       0.00000000       0.00000000       4.67438555
2
Properties=species:S:1:pos:R:3:forces:R:3 energy=-94.56670460393751 pbc="F F F"
Ir       0.00000000       0.00000000       0.00000000       0.00000000       0.00000000      -2.34266782
Ir       0.00000000       0.00000000       2.06121212       0.00000000       0.00000000       2.34266782
2
Properties=species:S:1:pos:R:3:forces:R:3 energy=-94.66675028658652 pbc="F F F"
Ir       0.00000000       0.00000000       0.00000000       0.00000000       0.00000000      -1.20159125
Ir       0.00000000       0.00000000       2.12000000       0.00000000       0.00000000       1.20159125
2
Properties=species:S:1:pos:R:3:forces:R:3 energy=-94.7154435904264 pbc="F F F"
Ir       0.00000000       0.00000000       0.00000000       0.00000000       0.00000000      -0.44417882
Ir       0.00000000       0.00000000       2.17878788       0.00000000       0.00000000       0.44417882
2
Properties=species:S:1:pos:R:3:forces:R:3 energy=-94.71330928087833 pbc="F F F"
Ir       0.00000000       0.00000000       0.00000000       0.00000000       0.00000000       0.56597805
Ir       0.00000000       0.00000000       2.23757576       0.00000000       0.00000000      -0.56597805
2
Properties=species:S:1:pos:R:3:forces:R:3 energy=-94.64802771074498 pbc="F F F"
Ir       0.00000000       0.00000000       0.00000000       0.00000000       0.00000000       1.61236477
Ir       0.00000000       0.00000000       2.29636364       0.00000000       0.00000000      -1.61236477
2
Properties=species:S:1:pos:R:3:forces:R:3 energy=-94.53079081118788 pbc="F F F"
Ir       0.00000000       0.00000000       0.00000000       0.00000000       0.00000000       2.34508443
Ir       0.00000000       0.00000000       2.35515152       0.00000000       0.00000000      -2.34508443
2
Properties=species:S:1:pos:R:3:forces:R:3 energy=-94.36641294648352 pbc="F F F"
Ir       0.00000000       0.00000000       0.00000000       0.00000000       0.00000000       3.36053157
Ir       0.00000000       0.00000000       2.41393939       0.00000000       0.00000000      -3.36053157
2
Properties=species:S:1:pos:R:3:forces:R:3 energy=-94.13067465337471 pbc="F F F"
Ir       0.00000000       0.00000000       0.00000000       0.00000000       0.00000000       4.51160860
Ir       0.00000000       0.00000000       2.47272727       0.00000000       0.00000000      -4.51160860
2
Properties=species:S:1:pos:R:3:forces:R:3 energy=-93.88035256760382 pbc="F F F"
Ir       0.00000000       0.00000000       0.00000000       0.00000000       0.00000000       3.52692842
Ir       0.00000000       0.00000000       2.53151515       0.00000000       0.00000000      -3.52692842
2
Properties=species:S:1:pos:R:3:forces:R:3 energy=-93.74910179356056 pbc="F F F"
Ir       0.00000000       0.00000000       0.00000000       0.00000000       0.00000000       0.96783423
Ir       0.00000000       0.00000000       2.59030303       0.00000000       0.00000000      -0.96783423
2
Properties=species:S:1:pos:R:3:forces:R:3 energy=-93.7359999894872 pbc="F F F"
Ir       0.00000000       0.00000000       0.00000000       0.00000000       0.00000000      -0.18157576
Ir       0.00000000       0.00000000       2.64909091       0.00000000       0.00000000       0.18157576
2
Properties=species:S:1:pos:R:3:forces:R:3 energy=-93.73947362605243 pbc="F F F"
Ir       0.00000000       0.00000000       0.00000000       0.00000000       0.00000000       0.22845557
Ir       0.00000000       0.00000000       2.70787879       0.00000000       0.00000000      -0.22845557
2
Properties=species:S:1:pos:R:3:forces:R:3 energy=-93.69734634553821 pbc="F F F"
Ir       0.00000000       0.00000000       0.00000000       0.00000000       0.00000000       1.26630926
Ir       0.00000000       0.00000000       2.76666667       0.00000000       0.00000000      -1.26630926
2
Properties=species:S:1:pos:R:3:forces:R:3 energy=-93.58636355737178 pbc="F F F"
Ir       0.00000000       0.00000000       0.00000000       0.00000000       0.00000000       2.51613927
Ir       0.00000000       0.00000000       2.82545455       0.00000000       0.00000000      -2.51613927
2
Properties=species:S:1:pos:R:3:forces:R:3 energy=-93.40503191228561 pbc="F F F"
Ir       0.00000000       0.00000000       0.00000000       0.00000000       0.00000000       3.58603263
Ir       0.00000000       0.00000000       2.88424242       0.00000000       0.00000000      -3.58603263
2
Properties=species:S:1:pos:R:3:forces:R:3 energy=-93.17547891801767 pbc="F F F"
Ir       0.00000000       0.00000000       0.00000000       0.00000000       0.00000000       4.12128830
Ir       0.00000000       0.00000000       2.94303030       0.00000000       0.00000000      -4.12128830
2
Properties=species:S:1:pos:R:3:forces:R:3 energy=-92.93136099685735 pbc="F F F"
Ir       0.00000000       0.00000000       0.00000000       0.00000000       0.00000000       4.11056900
Ir       0.00000000       0.00000000       3.00181818       0.00000000       0.00000000      -4.11056900
2
Properties=species:S:1:pos:R:3:forces:R:3 energy=-92.69783906260956 pbc="F F F"
Ir       0.00000000       0.00000000       0.00000000       0.00000000       0.00000000       3.80962133
Ir       0.00000000       0.00000000       3.06060606       0.00000000       0.00000000      -3.80962133
2
Properties=species:S:1:pos:R:3:forces:R:3 energy=-92.48418703966537 pbc="F F F"
Ir       0.00000000       0.00000000       0.00000000       0.00000000       0.00000000       3.46563363
Ir       0.00000000       0.00000000       3.11939394       0.00000000       0.00000000      -3.46563363
2
Properties=species:S:1:pos:R:3:forces:R:3 energy=-92.28886483254297 pbc="F F F"
Ir       0.00000000       0.00000000       0.00000000       0.00000000       0.00000000       3.19415712
Ir       0.00000000       0.00000000       3.17818182       0.00000000       0.00000000      -3.19415712
2
Properties=species:S:1:pos:R:3:forces:R:3 energy=-92.1071194583301 pbc="F F F"
Ir       0.00000000       0.00000000       0.00000000       0.00000000       0.00000000       2.99789333
Ir       0.00000000       0.00000000       3.23696970       0.00000000       0.00000000      -2.99789333
2
Properties=species:S:1:pos:R:3:forces:R:3 energy=-91.93591427703524 pbc="F F F"
Ir       0.00000000       0.00000000       0.00000000       0.00000000       0.00000000       2.82581282
Ir       0.00000000       0.00000000       3.29575758       0.00000000       0.00000000      -2.82581282
2
Properties=species:S:1:pos:R:3:forces:R:3 energy=-91.77540165638537 pbc="F F F"
Ir       0.00000000       0.00000000       0.00000000       0.00000000       0.00000000       2.62805390
Ir       0.00000000       0.00000000       3.35454545       0.00000000       0.00000000      -2.62805390
2
Properties=species:S:1:pos:R:3:forces:R:3 energy=-91.62779386578487 pbc="F F F"
Ir       0.00000000       0.00000000       0.00000000       0.00000000       0.00000000       2.38695645
Ir       0.00000000       0.00000000       3.41333333       0.00000000       0.00000000      -2.38695645
2
Properties=species:S:1:pos:R:3:forces:R:3 energy=-91.4953260327274 pbc="F F F"
Ir       0.00000000       0.00000000       0.00000000       0.00000000       0.00000000       2.11696100
Ir       0.00000000       0.00000000       3.47212121       0.00000000       0.00000000      -2.11696100
2
Properties=species:S:1:pos:R:3:forces:R:3 energy=-91.3789133962849 pbc="F F F"
Ir       0.00000000       0.00000000       0.00000000       0.00000000       0.00000000       1.84574318
Ir       0.00000000       0.00000000       3.53090909       0.00000000       0.00000000      -1.84574318
2
Properties=species:S:1:pos:R:3:forces:R:3 energy=-91.27786902267775 pbc="F F F"
Ir       0.00000000       0.00000000       0.00000000       0.00000000       0.00000000       1.59681940
Ir       0.00000000       0.00000000       3.58969697       0.00000000       0.00000000      -1.59681940
2
Properties=species:S:1:pos:R:3:forces:R:3 energy=-91.19046836304703 pbc="F F F"
Ir       0.00000000       0.00000000       0.00000000       0.00000000       0.00000000       1.38314128
Ir       0.00000000       0.00000000       3.64848485       0.00000000       0.00000000      -1.38314128
2
Properties=species:S:1:pos:R:3:forces:R:3 energy=-91.11447569276463 pbc="F F F"
Ir       0.00000000       0.00000000       0.00000000       0.00000000       0.00000000       1.20841897
Ir       0.00000000       0.00000000       3.70727273       0.00000000       0.00000000      -1.20841897
2
Properties=species:S:1:pos:R:3:forces:R:3 energy=-91.04766292293255 pbc="F F F"
Ir       0.00000000       0.00000000       0.00000000       0.00000000       0.00000000       1.07037425
Ir       0.00000000       0.00000000       3.76606061       0.00000000       0.00000000      -1.07037425
2
Properties=species:S:1:pos:R:3:forces:R:3 energy=-90.98801558453191 pbc="F F F"
Ir       0.00000000       0.00000000       0.00000000       0.00000000       0.00000000       0.96349019
Ir       0.00000000       0.00000000       3.82484848       0.00000000       0.00000000      -0.96349019
2
Properties=species:S:1:pos:R:3:forces:R:3 energy=-90.93390067985426 pbc="F F F"
Ir       0.00000000       0.00000000       0.00000000       0.00000000       0.00000000       0.88108426
Ir       0.00000000       0.00000000       3.88363636       0.00000000       0.00000000      -0.88108426
2
Properties=species:S:1:pos:R:3:forces:R:3 energy=-90.8840666872534 pbc="F F F"
Ir       0.00000000       0.00000000       0.00000000       0.00000000       0.00000000       0.81696969
Ir       0.00000000       0.00000000       3.94242424       0.00000000       0.00000000      -0.81696969
2
Properties=species:S:1:pos:R:3:forces:R:3 energy=-90.837582525989 pbc="F F F"
Ir       0.00000000       0.00000000       0.00000000       0.00000000       0.00000000       0.76628894
Ir       0.00000000       0.00000000       4.00121212       0.00000000       0.00000000      -0.76628894
2
Properties=species:S:1:pos:R:3:forces:R:3 energy=-90.79377651948664 pbc="F F F"
Ir       0.00000000       0.00000000       0.00000000       0.00000000       0.00000000       0.72538096
Ir       0.00000000       0.00000000       4.06000000       0.00000000       0.00000000      -0.72538096
2
Properties=species:S:1:pos:R:3:forces:R:3 energy=-90.75216776721679 pbc="F F F"
Ir       0.00000000       0.00000000       0.00000000       0.00000000       0.00000000       0.69113100
Ir       0.00000000       0.00000000       4.11878788       0.00000000       0.00000000      -0.69113100
2
Properties=species:S:1:pos:R:3:forces:R:3 energy=-90.71245083363678 pbc="F F F"
Ir       0.00000000       0.00000000       0.00000000       0.00000000       0.00000000       0.66029882
Ir       0.00000000       0.00000000       4.17757576       0.00000000       0.00000000      -0.66029882
2
Properties=species:S:1:pos:R:3:forces:R:3 energy=-90.67453394901642 pbc="F F F"
Ir       0.00000000       0.00000000       0.00000000       0.00000000       0.00000000       0.62933928
Ir       0.00000000       0.00000000       4.23636364       0.00000000       0.00000000      -0.62933928
2
Properties=species:S:1:pos:R:3:forces:R:3 energy=-90.63853135311697 pbc="F F F"
Ir       0.00000000       0.00000000       0.00000000       0.00000000       0.00000000       0.59461194
Ir       0.00000000       0.00000000       4.29515152       0.00000000       0.00000000      -0.59461194
2
Properties=species:S:1:pos:R:3:forces:R:3 energy=-90.6047556911392 pbc="F F F"
Ir       0.00000000       0.00000000       0.00000000       0.00000000       0.00000000       0.55298334
Ir       0.00000000       0.00000000       4.35393939       0.00000000       0.00000000      -0.55298334
2
Properties=species:S:1:pos:R:3:forces:R:3 energy=-90.57368749456134 pbc="F F F"
Ir       0.00000000       0.00000000       0.00000000       0.00000000       0.00000000       0.50249499
Ir       0.00000000       0.00000000       4.41272727       0.00000000       0.00000000      -0.50249499
2
Properties=species:S:1:pos:R:3:forces:R:3 energy=-90.5458531013231 pbc="F F F"
Ir       0.00000000       0.00000000       0.00000000       0.00000000       0.00000000       0.44301587
Ir       0.00000000       0.00000000       4.47151515       0.00000000       0.00000000      -0.44301587
2
Properties=species:S:1:pos:R:3:forces:R:3 energy=-90.52173312605807 pbc="F F F"
Ir       0.00000000       0.00000000       0.00000000       0.00000000       0.00000000       0.37653250
Ir       0.00000000       0.00000000       4.53030303       0.00000000       0.00000000      -0.37653250
2
Properties=species:S:1:pos:R:3:forces:R:3 energy=-90.5016403842374 pbc="F F F"
Ir       0.00000000       0.00000000       0.00000000       0.00000000       0.00000000       0.30694705
Ir       0.00000000       0.00000000       4.58909091       0.00000000       0.00000000      -0.30694705
2
Properties=species:S:1:pos:R:3:forces:R:3 energy=-90.48560546313136 pbc="F F F"
Ir       0.00000000       0.00000000       0.00000000       0.00000000       0.00000000       0.23934174
Ir       0.00000000       0.00000000       4.64787879       0.00000000       0.00000000      -0.23934174
2
Properties=species:S:1:pos:R:3:forces:R:3 energy=-90.47336145272465 pbc="F F F"
Ir       0.00000000       0.00000000       0.00000000       0.00000000       0.00000000       0.17887232
Ir       0.00000000       0.00000000       4.70666667       0.00000000       0.00000000      -0.17887232
2
Properties=species:S:1:pos:R:3:forces:R:3 energy=-90.46435922034472 pbc="F F F"
Ir       0.00000000       0.00000000       0.00000000       0.00000000       0.00000000       0.12962513
Ir       0.00000000       0.00000000       4.76545455       0.00000000       0.00000000      -0.12962513
2
Properties=species:S:1:pos:R:3:forces:R:3 energy=-90.45785895864432 pbc="F F F"
Ir       0.00000000       0.00000000       0.00000000       0.00000000       0.00000000       0.09368324
Ir       0.00000000       0.00000000       4.82424242       0.00000000       0.00000000      -0.09368324
2
Properties=species:S:1:pos:R:3:forces:R:3 energy=-90.45308278061982 pbc="F F F"
Ir       0.00000000       0.00000000       0.00000000       0.00000000       0.00000000       0.07073071
Ir       0.00000000       0.00000000       4.88303030       0.00000000       0.00000000      -0.07073071
2
Properties=species:S:1:pos:R:3:forces:R:3 energy=-90.44933677804428 pbc="F F F"
Ir       0.00000000       0.00000000       0.00000000       0.00000000       0.00000000       0.05815355
Ir       0.00000000       0.00000000       4.94181818       0.00000000       0.00000000      -0.05815355
2
Properties=species:S:1:pos:R:3:forces:R:3 energy=-90.44612547268089 pbc="F F F"
Ir       0.00000000       0.00000000       0.00000000       0.00000000       0.00000000       0.05172201
Ir       0.00000000       0.00000000       5.00060606       0.00000000       0.00000000      -0.05172201
2
Properties=species:S:1:pos:R:3:forces:R:3 energy=-90.44322810864436 pbc="F F F"
Ir       0.00000000       0.00000000       0.00000000       0.00000000       0.00000000       0.04663964
Ir       0.00000000       0.00000000       5.05939394       0.00000000       0.00000000      -0.04663964
2
Properties=species:S:1:pos:R:3:forces:R:3 energy=-90.44069863735379 pbc="F F F"
Ir       0.00000000       0.00000000       0.00000000       0.00000000       0.00000000       0.03887760
Ir       0.00000000       0.00000000       5.11818182       0.00000000       0.00000000      -0.03887760
2
Properties=species:S:1:pos:R:3:forces:R:3 energy=-90.43875128136638 pbc="F F F"
Ir       0.00000000       0.00000000       0.00000000       0.00000000       0.00000000       0.02646608
Ir       0.00000000       0.00000000       5.17696970       0.00000000       0.00000000      -0.02646608
2
Properties=species:S:1:pos:R:3:forces:R:3 energy=-90.43766135224857 pbc="F F F"
Ir       0.00000000       0.00000000       0.00000000       0.00000000       0.00000000       0.01023561
Ir       0.00000000       0.00000000       5.23575758       0.00000000       0.00000000      -0.01023561
2
Properties=species:S:1:pos:R:3:forces:R:3 energy=-90.43755923078916 pbc="F F F"
Ir       0.00000000       0.00000000       0.00000000       0.00000000       0.00000000      -0.00660070
Ir       0.00000000       0.00000000       5.29454545       0.00000000       0.00000000       0.00660070
2
Properties=species:S:1:pos:R:3:forces:R:3 energy=-90.43836934689021 pbc="F F F"
Ir       0.00000000       0.00000000       0.00000000       0.00000000       0.00000000      -0.02006223
Ir       0.00000000       0.00000000       5.35333333       0.00000000       0.00000000       0.02006223
2
Properties=species:S:1:pos:R:3:forces:R:3 energy=-90.43979490256297 pbc="F F F"
Ir       0.00000000       0.00000000       0.00000000       0.00000000       0.00000000      -0.02721039
Ir       0.00000000       0.00000000       5.41212121       0.00000000       0.00000000       0.02721039
2
Properties=species:S:1:pos:R:3:forces:R:3 energy=-90.44142466602833 pbc="F F F"
Ir       0.00000000       0.00000000       0.00000000       0.00000000       0.00000000      -0.02706105
Ir       0.00000000       0.00000000       5.47090909       0.00000000       0.00000000       0.02706105
2
Properties=species:S:1:pos:R:3:forces:R:3 energy=-90.44285504836498 pbc="F F F"
Ir       0.00000000       0.00000000       0.00000000       0.00000000       0.00000000      -0.02073794
Ir       0.00000000       0.00000000       5.52969697       0.00000000       0.00000000       0.02073794
2
Properties=species:S:1:pos:R:3:forces:R:3 energy=-90.44384267793671 pbc="F F F"
Ir       0.00000000       0.00000000       0.00000000       0.00000000       0.00000000      -0.01356160
Ir       0.00000000       0.00000000       5.58848485       0.00000000       0.00000000       0.01356160
2
Properties=species:S:1:pos:R:3:forces:R:3 energy=-90.44455615536494 pbc="F F F"
Ir       0.00000000       0.00000000       0.00000000       0.00000000       0.00000000      -0.01155190
Ir       0.00000000       0.00000000       5.64727273       0.00000000       0.00000000       0.01155190
2
Properties=species:S:1:pos:R:3:forces:R:3 energy=-90.44519457746628 pbc="F F F"
Ir       0.00000000       0.00000000       0.00000000       0.00000000       0.00000000      -0.00882924
Ir       0.00000000       0.00000000       5.70606061       0.00000000       0.00000000       0.00882924
2
Properties=species:S:1:pos:R:3:forces:R:3 energy=-90.44535429909062 pbc="F F F"
Ir       0.00000000       0.00000000       0.00000000       0.00000000       0.00000000       0.00570735
Ir       0.00000000       0.00000000       5.76484848       0.00000000       0.00000000      -0.00570735
2
Properties=species:S:1:pos:R:3:forces:R:3 energy=-90.44444090537843 pbc="F F F"
Ir       0.00000000       0.00000000       0.00000000       0.00000000       0.00000000       0.02367921
Ir       0.00000000       0.00000000       5.82363636       0.00000000       0.00000000      -0.02367921
2
Properties=species:S:1:pos:R:3:forces:R:3 energy=-90.44295093737085 pbc="F F F"
Ir       0.00000000       0.00000000       0.00000000       0.00000000       0.00000000       0.02378967
Ir       0.00000000       0.00000000       5.88242424       0.00000000       0.00000000      -0.02378967
2
Properties=species:S:1:pos:R:3:forces:R:3 energy=-90.44190733106956 pbc="F F F"
Ir       0.00000000       0.00000000       0.00000000       0.00000000       0.00000000       0.01103406
Ir       0.00000000       0.00000000       5.94121212       0.00000000       0.00000000      -0.01103406
2
Properties=species:S:1:pos:R:3:forces:R:3 energy=-90.44151661786469 pbc="F F F"
Ir       0.00000000       0.00000000       0.00000000       0.00000000       0.00000000       0.00439968
Ir       0.00000000       0.00000000       6.00000000       0.00000000       0.00000000      -0.00439968
