2
Properties=species:S:1:pos:R:3:forces:R:3 energy=-28764764.021632496 pbc="F F F"
La       0.00000000       0.00000000       0.00000000       0.00000000       0.00000000 1749135.37500000
La       0.00000000       0.00000000       0.18000000       0.00000000       0.00000000 -1749135.37500000
2
Properties=species:S:1:pos:R:3:forces:R:3 energy=-28571570.021632496 pbc="F F F"
La       0.00000000       0.00000000       0.00000000       0.00000000       0.00000000 5199678.50000000
La       0.00000000       0.00000000       0.23878788       0.00000000       0.00000000 -5199678.50000000
2
Properties=species:S:1:pos:R:3:forces:R:3 energy=-28100058.021632496 pbc="F F F"
La       0.00000000       0.00000000       0.00000000       0.00000000       0.00000000 11358308.00000000
La       0.00000000       0.00000000       0.29757576       0.00000000       0.00000000 -11358308.00000000
2
Properties=species:S:1:pos:R:3:forces:R:3 energy=-27166734.021632496 pbc="F F F"
La       0.00000000       0.00000000       0.00000000       0.00000000       0.00000000 21012434.00000000
La       0.00000000       0.00000000       0.35636364       0.00000000       0.00000000 -21012434.00000000
2
Properties=species:S:1:pos:R:3:forces:R:3 energy=-25557934.021632496 pbc="F F F"
La       0.00000000       0.00000000       0.00000000       0.00000000       0.00000000 34293920.00000000
La       0.00000000       0.00000000       0.41515152       0.00000000       0.00000000 -34293920.00000000
2
Properties=species:S:1:pos:R:3:forces:R:3 energy=-23084246.021632496 pbc="F F F"
La       0.00000000       0.00000000       0.00000000       0.00000000       0.00000000 50116788.00000000
La       0.00000000       0.00000000       0.47393939       0.00000000       0.00000000 -50116788.00000000
2
Properties=species:S:1:pos:R:3:forces:R:3 energy=-19669650.021632496 pbc="F F F"
La       0.00000000       0.00000000       0.00000000       0.00000000       0.00000000 65653168.00000000
La       0.00000000       0.00000000       0.53272727       0.00000000       0.00000000 -65653168.00000000
2
Properties=species:S:1:pos:R:3:forces:R:3 energy=-15457904.021632494 pbc="F F F"
La       0.00000000       0.00000000       0.00000000       0.00000000       0.00000000 76398984.00000000
La       0.00000000       0.00000000       0.59151515       0.00000000       0.00000000 -76398984.00000000
2
Properties=species:S:1:pos:R:3:forces:R:3 energy=-10877514.021632494 pbc="F F F"
La       0.00000000       0.00000000       0.00000000       0.00000000       0.00000000 77491088.00000000
La       0.00000000       0.00000000       0.65030303       0.00000000       0.00000000 -77491088.00000000
2
Properties=species:S:1:pos:R:3:forces:R:3 energy=-6588384.521632489 pbc="F F F"
La       0.00000000       0.00000000       0.00000000       0.00000000       0.00000000 66451008.00000000
La       0.00000000       0.00000000       0.70909091       0.00000000       0.00000000 -66451008.00000000
2
Properties=species:S:1:pos:R:3:forces:R:3 energy=-3253038.5216324823 pbc="F F F"
La       0.00000000       0.00000000       0.00000000       0.00000000       0.00000000 45991916.00000000
La       0.00000000       0.00000000       0.76787879       0.00000000       0.00000000 -45991916.00000000
2
Properties=species:S:1:pos:R:3:forces:R:3 energy=-1212398.5216324746 pbc="F F F"
La       0.00000000       0.00000000       0.00000000       0.00000000       0.00000000 23941584.00000000
La       0.00000000       0.00000000       0.82666667       0.00000000       0.00000000 -23941584.00000000
2
Properties=species:S:1:pos:R:3:forces:R:3 energy=-305997.1466324635 pbc="F F F"
La       0.00000000       0.00000000       0.00000000       0.00000000       0.00000000 8409138.00000000
La       0.00000000       0.00000000       0.88545455       0.00000000       0.00000000 -8409138.00000000
2
Properties=species:S:1:pos:R:3:forces:R:3 energy=-47540.384913696056 pbc="F F F"
La       0.00000000       0.00000000       0.00000000       0.00000000       0.00000000 1701232.37500000
La       0.00000000       0.00000000       0.94424242       0.00000000       0.00000000 -1701232.37500000
2
Properties=species:S:1:pos:R:3:forces:R:3 energy=-5050.746241798884 pbc="F F F"
La       0.00000000       0.00000000       0.00000000       0.00000000       0.00000000  192840.26562500
La       0.00000000       0.00000000       1.00303030       0.00000000       0.00000000 -192840.26562500
2
Properties=species:S:1:pos:R:3:forces:R:3 energy=-693.9460708719361 pbc="F F F"
La       0.00000000       0.00000000       0.00000000       0.00000000       0.00000000   13960.64453125
La       0.00000000       0.00000000       1.06181818       0.00000000       0.00000000  -13960.64453125
2
Properties=species:S:1:pos:R:3:forces:R:3 energy=-436.17635647845344 pbc="F F F"
La       0.00000000       0.00000000       0.00000000       0.00000000       0.00000000    1560.50927734
La       0.00000000       0.00000000       1.12060606       0.00000000       0.00000000   -1560.50927734
2
Properties=species:S:1:pos:R:3:forces:R:3 energy=-344.0413771781375 pbc="F F F"
La       0.00000000       0.00000000       0.00000000       0.00000000       0.00000000    1442.95043945
La       0.00000000       0.00000000       1.17939394       0.00000000       0.00000000   -1442.95043945
2
Properties=species:S:1:pos:R:3:forces:R:3 energy=-267.5764418088788 pbc="F F F"
La       0.00000000       0.00000000       0.00000000       0.00000000       0.00000000    1195.78295898
La       0.00000000       0.00000000       1.23818182       0.00000000       0.00000000   -1195.78295898
2
Properties=species:S:1:pos:R:3:forces:R:3 energy=-201.08808418098624 pbc="F F F"
La       0.00000000       0.00000000       0.00000000       0.00000000       0.00000000    1059.39965820
La       0.00000000       0.00000000       1.29696970       0.00000000       0.00000000   -1059.39965820
2
Properties=species:S:1:pos:R:3:forces:R:3 energy=-144.8500011875381 pbc="F F F"
La       0.00000000       0.00000000       0.00000000       0.00000000       0.00000000     839.50646973
La       0.00000000       0.00000000       1.35575758       0.00000000       0.00000000    -839.50646973
2
Properties=species:S:1:pos:R:3:forces:R:3 energy=-103.20553083964582 pbc="F F F"
La       0.00000000       0.00000000       0.00000000       0.00000000       0.00000000     578.38592529
La       0.00000000       0.00000000       1.41454545       0.00000000       0.00000000    -578.38592529
2
Properties=species:S:1:pos:R:3:forces:R:3 energy=-75.96874478941501 pbc="F F F"
La       0.00000000       0.00000000       0.00000000       0.00000000       0.00000000     359.70324707
La       0.00000000       0.00000000       1.47333333       0.00000000       0.00000000    -359.70324707
2
Properties=species:S:1:pos:R:3:forces:R:3 energy=-59.48021156823878 pbc="F F F"
La       0.00000000       0.00000000       0.00000000       0.00000000       0.00000000     212.81849670
La       0.00000000       0.00000000       1.53212121       0.00000000       0.00000000    -212.81849670
2
Properties=species:S:1:pos:R:3:forces:R:3 energy=-49.74450881125195 pbc="F F F"
La       0.00000000       0.00000000       0.00000000       0.00000000       0.00000000     122.35776520
La       0.00000000       0.00000000       1.59090909       0.00000000       0.00000000    -122.35776520
2
Properties=species:S:1:pos:R:3:forces:R:3 energy=-45.49463440165425 pbc="F F F"
La       0.00000000       0.00000000       0.00000000       0.00000000       0.00000000      45.67830276
La       0.00000000       0.00000000       1.64969697       0.00000000       0.00000000     -45.67830276
2
Properties=species:S:1:pos:R:3:forces:R:3 energy=-43.259255781477314 pbc="F F F"
La       0.00000000       0.00000000       0.00000000       0.00000000       0.00000000      21.79153252
La       0.00000000       0.00000000       1.70848485       0.00000000       0.00000000     -21.79153252
2
Properties=species:S:1:pos:R:3:forces:R:3 energy=-43.16175932744213 pbc="F F F"
La       0.00000000       0.00000000       0.00000000       0.00000000       0.00000000     -16.09432220
La       0.00000000       0.00000000       1.76727273       0.00000000       0.00000000      16.09432220
2
Properties=species:S:1:pos:R:3:forces:R:3 energy=-44.75153391237544 pbc="F F F"
La       0.00000000       0.00000000       0.00000000       0.00000000       0.00000000     -34.55576324
La       0.00000000       0.00000000       1.82606061       0.00000000       0.00000000      34.55576324
2
Properties=species:S:1:pos:R:3:forces:R:3 energy=-46.90210705046145 pbc="F F F"
La       0.00000000       0.00000000       0.00000000       0.00000000       0.00000000     -36.65970993
La       0.00000000       0.00000000       1.88484848       0.00000000       0.00000000      36.65970993
2
Properties=species:S:1:pos:R:3:forces:R:3 energy=-48.91499240090386 pbc="F F F"
La       0.00000000       0.00000000       0.00000000       0.00000000       0.00000000     -31.16815376
La       0.00000000       0.00000000       1.94363636       0.00000000       0.00000000      31.16815376
2
Properties=species:S:1:pos:R:3:forces:R:3 energy=-50.53771039780872 pbc="F F F"
La       0.00000000       0.00000000       0.00000000       0.00000000       0.00000000     -24.05586433
La       0.00000000       0.00000000       2.00242424       0.00000000       0.00000000      24.05586433
2
Properties=species:S:1:pos:R:3:forces:R:3 energy=-51.76150248041506 pbc="F F F"
La       0.00000000       0.00000000       0.00000000       0.00000000       0.00000000     -17.84042358
La       0.00000000       0.00000000       2.06121212       0.00000000       0.00000000      17.84042358
2
Properties=species:S:1:pos:R:3:forces:R:3 energy=-52.673912125184316 pbc="F F F"
La       0.00000000       0.00000000       0.00000000       0.00000000       0.00000000     -13.53826714
La       0.00000000       0.00000000       2.12000000       0.00000000       0.00000000      13.53826714
2
Properties=species:S:1:pos:R:3:forces:R:3 energy=-53.38355135781732 pbc="F F F"
La       0.00000000       0.00000000       0.00000000       0.00000000       0.00000000     -10.75200081
La       0.00000000       0.00000000       2.17878788       0.00000000       0.00000000      10.75200081
2
Properties=species:S:1:pos:R:3:forces:R:3 energy=-53.94472239547416 pbc="F F F"
La       0.00000000       0.00000000       0.00000000       0.00000000       0.00000000      -8.33987427
La       0.00000000       0.00000000       2.23757576       0.00000000       0.00000000       8.33987427
2
Properties=species:S:1:pos:R:3:forces:R:3 energy=-54.36369275250013 pbc="F F F"
La       0.00000000       0.00000000       0.00000000       0.00000000       0.00000000      -5.93045282
La       0.00000000       0.00000000       2.29636364       0.00000000       0.00000000       5.93045282
2
Properties=species:S:1:pos:R:3:forces:R:3 energy=-54.6484237052564 pbc="F F F"
La       0.00000000       0.00000000       0.00000000       0.00000000       0.00000000      -3.84888577
La       0.00000000       0.00000000       2.35515152       0.00000000       0.00000000       3.84888577
2
Properties=species:S:1:pos:R:3:forces:R:3 energy=-54.8298676994367 pbc="F F F"
La       0.00000000       0.00000000       0.00000000       0.00000000       0.00000000      -2.44686604
La       0.00000000       0.00000000       2.41393939       0.00000000       0.00000000       2.44686604
2
Properties=species:S:1:pos:R:3:forces:R:3 energy=-54.94841094449567 pbc="F F F"
La       0.00000000       0.00000000       0.00000000       0.00000000       0.00000000      -1.66030407
La       0.00000000       0.00000000       2.47272727       0.00000000       0.00000000       1.66030407
2
Properties=species:S:1:pos:R:3:forces:R:3 energy=-55.02963483831046 pbc="F F F"
La       0.00000000       0.00000000       0.00000000       0.00000000       0.00000000      -1.11084962
La       0.00000000       0.00000000       2.53151515       0.00000000       0.00000000       1.11084962
2
Properties=species:S:1:pos:R:3:forces:R:3 energy=-55.07791493684722 pbc="F F F"
La       0.00000000       0.00000000       0.00000000       0.00000000       0.00000000      -0.51545948
La       0.00000000       0.00000000       2.59030303       0.00000000       0.00000000       0.51545948
2
Properties=species:S:1:pos:R:3:forces:R:3 energy=-55.088971308165036 pbc="F F F"
La       0.00000000       0.00000000       0.00000000       0.00000000       0.00000000       0.14010589
La       0.00000000       0.00000000       2.64909091       0.00000000       0.00000000      -0.14010589
2
Properties=species:S:1:pos:R:3:forces:R:3 energy=-55.06268216388757 pbc="F F F"
La       0.00000000       0.00000000       0.00000000       0.00000000       0.00000000       0.73404354
La       0.00000000       0.00000000       2.70787879       0.00000000       0.00000000      -0.73404354
2
Properties=species:S:1:pos:R:3:forces:R:3 energy=-55.00566645993708 pbc="F F F"
La       0.00000000       0.00000000       0.00000000       0.00000000       0.00000000       1.17818463
La       0.00000000       0.00000000       2.76666667       0.00000000       0.00000000      -1.17818463
2
Properties=species:S:1:pos:R:3:forces:R:3 energy=-54.92716409001178 pbc="F F F"
La       0.00000000       0.00000000       0.00000000       0.00000000       0.00000000       1.47045481
La       0.00000000       0.00000000       2.82545455       0.00000000       0.00000000      -1.47045481
2
Properties=species:S:1:pos:R:3:forces:R:3 energy=-54.83485510726343 pbc="F F F"
La       0.00000000       0.00000000       0.00000000       0.00000000       0.00000000       1.65646863
La       0.00000000       0.00000000       2.88424242       0.00000000       0.00000000      -1.65646863
2
Properties=species:S:1:pos:R:3:forces:R:3 energy=-54.733646796286706 pbc="F F F"
La       0.00000000       0.00000000       0.00000000       0.00000000       0.00000000       1.77821362
La       0.00000000       0.00000000       2.94303030       0.00000000       0.00000000      -1.77821362
2
Properties=species:S:1:pos:R:3:forces:R:3 energy=-54.62668856790942 pbc="F F F"
La       0.00000000       0.00000000       0.00000000       0.00000000       0.00000000       1.85295093
La       0.00000000       0.00000000       3.00181818       0.00000000       0.00000000      -1.85295093
2
Properties=species:S:1:pos:R:3:forces:R:3 energy=-54.51672260911471 pbc="F F F"
La       0.00000000       0.00000000       0.00000000       0.00000000       0.00000000       1.87959349
La       0.00000000       0.00000000       3.06060606       0.00000000       0.00000000      -1.87959349
2
Properties=species:S:1:pos:R:3:forces:R:3 energy=-54.4067289517693 pbc="F F F"
La       0.00000000       0.00000000       0.00000000       0.00000000       0.00000000       1.85362875
La       0.00000000       0.00000000       3.11939394       0.00000000       0.00000000      -1.85362875
2
Properties=species:S:1:pos:R:3:forces:R:3 energy=-54.29975797440426 pbc="F F F"
La       0.00000000       0.00000000       0.00000000       0.00000000       0.00000000       1.77825534
La       0.00000000       0.00000000       3.17818182       0.00000000       0.00000000      -1.77825534
2
Properties=species:S:1:pos:R:3:forces:R:3 energy=-54.19834356448095 pbc="F F F"
La       0.00000000       0.00000000       0.00000000       0.00000000       0.00000000       1.66771865
La       0.00000000       0.00000000       3.23696970       0.00000000       0.00000000      -1.66771865
2
Properties=species:S:1:pos:R:3:forces:R:3 energy=-54.103950669953235 pbc="F F F"
La       0.00000000       0.00000000       0.00000000       0.00000000       0.00000000       1.54305422
La       0.00000000       0.00000000       3.29575758       0.00000000       0.00000000      -1.54305422
2
Properties=species:S:1:pos:R:3:forces:R:3 energy=-54.016793052278466 pbc="F F F"
La       0.00000000       0.00000000       0.00000000       0.00000000       0.00000000       1.42461371
La       0.00000000       0.00000000       3.35454545       0.00000000       0.00000000      -1.42461371
2
Properties=species:S:1:pos:R:3:forces:R:3 energy=-53.9360250634943 pbc="F F F"
La       0.00000000       0.00000000       0.00000000       0.00000000       0.00000000       1.32784057
La       0.00000000       0.00000000       3.41333333       0.00000000       0.00000000      -1.32784057
2
Properties=species:S:1:pos:R:3:forces:R:3 energy=-53.86001349075632 pbc="F F F"
La       0.00000000       0.00000000       0.00000000       0.00000000       0.00000000       1.26452255
La       0.00000000       0.00000000       3.47212121       0.00000000       0.00000000      -1.26452255
2
Properties=species:S:1:pos:R:3:forces:R:3 energy=-53.78649818544012 pbc="F F F"
La       0.00000000       0.00000000       0.00000000       0.00000000       0.00000000       1.24442172
La       0.00000000       0.00000000       3.53090909       0.00000000       0.00000000      -1.24442172
2
Properties=species:S:1:pos:R:3:forces:R:3 energy=-53.71275089133638 pbc="F F F"
La       0.00000000       0.00000000       0.00000000       0.00000000       0.00000000       1.27239597
La       0.00000000       0.00000000       3.58969697       0.00000000       0.00000000      -1.27239597
2
Properties=species:S:1:pos:R:3:forces:R:3 energy=-53.63604621025078 pbc="F F F"
La       0.00000000       0.00000000       0.00000000       0.00000000       0.00000000       1.34324324
La       0.00000000       0.00000000       3.64848485       0.00000000       0.00000000      -1.34324324
2
Properties=species:S:1:pos:R:3:forces:R:3 energy=-53.55429538600527 pbc="F F F"
La       0.00000000       0.00000000       0.00000000       0.00000000       0.00000000       1.44055295
La       0.00000000       0.00000000       3.70727273       0.00000000       0.00000000      -1.44055295
2
Properties=species:S:1:pos:R:3:forces:R:3 energy=-53.46658536440985 pbc="F F F"
La       0.00000000       0.00000000       0.00000000       0.00000000       0.00000000       1.54230964
La       0.00000000       0.00000000       3.76606061       0.00000000       0.00000000      -1.54230964
2
Properties=species:S:1:pos:R:3:forces:R:3 energy=-53.373245330344886 pbc="F F F"
La       0.00000000       0.00000000       0.00000000       0.00000000       0.00000000       1.62975645
La       0.00000000       0.00000000       3.82484848       0.00000000       0.00000000      -1.62975645
2
Properties=species:S:1:pos:R:3:forces:R:3 energy=-53.27544361286745 pbc="F F F"
La       0.00000000       0.00000000       0.00000000       0.00000000       0.00000000       1.69298840
La       0.00000000       0.00000000       3.88363636       0.00000000       0.00000000      -1.69298840
2
Properties=species:S:1:pos:R:3:forces:R:3 energy=-53.17471145682687 pbc="F F F"
La       0.00000000       0.00000000       0.00000000       0.00000000       0.00000000       1.72962606
La       0.00000000       0.00000000       3.94242424       0.00000000       0.00000000      -1.72962606
2
Properties=species:S:1:pos:R:3:forces:R:3 energy=-53.07260426354702 pbc="F F F"
La       0.00000000       0.00000000       0.00000000       0.00000000       0.00000000       1.73979664
La       0.00000000       0.00000000       4.00121212       0.00000000       0.00000000      -1.73979664
2
Properties=species:S:1:pos:R:3:forces:R:3 energy=-52.97068477213161 pbc="F F F"
La       0.00000000       0.00000000       0.00000000       0.00000000       0.00000000       1.72288156
La       0.00000000       0.00000000       4.06000000       0.00000000       0.00000000      -1.72288156
2
Properties=species:S:1:pos:R:3:forces:R:3 energy=-52.87059443256127 pbc="F F F"
La       0.00000000       0.00000000       0.00000000       0.00000000       0.00000000       1.67742896
La       0.00000000       0.00000000       4.11878788       0.00000000       0.00000000      -1.67742896
2
Properties=species:S:1:pos:R:3:forces:R:3 energy=-52.774038832520375 pbc="F F F"
La       0.00000000       0.00000000       0.00000000       0.00000000       0.00000000       1.60256660
La       0.00000000       0.00000000       4.17757576       0.00000000       0.00000000      -1.60256660
2
Properties=species:S:1:pos:R:3:forces:R:3 energy=-52.68272261001525 pbc="F F F"
La       0.00000000       0.00000000       0.00000000       0.00000000       0.00000000       1.49951124
La       0.00000000       0.00000000       4.23636364       0.00000000       0.00000000      -1.49951124
2
Properties=species:S:1:pos:R:3:forces:R:3 energy=-52.59819863123923 pbc="F F F"
La       0.00000000       0.00000000       0.00000000       0.00000000       0.00000000       1.37263191
La       0.00000000       0.00000000       4.29515152       0.00000000       0.00000000      -1.37263191
2
Properties=species:S:1:pos:R:3:forces:R:3 energy=-52.52165150823206 pbc="F F F"
La       0.00000000       0.00000000       0.00000000       0.00000000       0.00000000       1.22969031
La       0.00000000       0.00000000       4.35393939       0.00000000       0.00000000      -1.22969031
2
Properties=species:S:1:pos:R:3:forces:R:3 energy=-52.45373150589487 pbc="F F F"
La       0.00000000       0.00000000       0.00000000       0.00000000       0.00000000       1.08109617
La       0.00000000       0.00000000       4.41272727       0.00000000       0.00000000      -1.08109617
2
Properties=species:S:1:pos:R:3:forces:R:3 energy=-52.3944233806383 pbc="F F F"
La       0.00000000       0.00000000       0.00000000       0.00000000       0.00000000       0.93844622
La       0.00000000       0.00000000       4.47151515       0.00000000       0.00000000      -0.93844622
2
Properties=species:S:1:pos:R:3:forces:R:3 energy=-52.34306091310092 pbc="F F F"
La       0.00000000       0.00000000       0.00000000       0.00000000       0.00000000       0.81244069
La       0.00000000       0.00000000       4.53030303       0.00000000       0.00000000      -0.81244069
2
Properties=species:S:1:pos:R:3:forces:R:3 energy=-52.29841994976002 pbc="F F F"
La       0.00000000       0.00000000       0.00000000       0.00000000       0.00000000       0.71078289
La       0.00000000       0.00000000       4.58909091       0.00000000       0.00000000      -0.71078289
2
Properties=species:S:1:pos:R:3:forces:R:3 energy=-52.25894785180768 pbc="F F F"
La       0.00000000       0.00000000       0.00000000       0.00000000       0.00000000       0.63670576
La       0.00000000       0.00000000       4.64787879       0.00000000       0.00000000      -0.63670576
2
Properties=species:S:1:pos:R:3:forces:R:3 energy=-52.22304602033513 pbc="F F F"
La       0.00000000       0.00000000       0.00000000       0.00000000       0.00000000       0.58863848
La       0.00000000       0.00000000       4.70666667       0.00000000       0.00000000      -0.58863848
2
Properties=species:S:1:pos:R:3:forces:R:3 energy=-52.18933323082129 pbc="F F F"
La       0.00000000       0.00000000       0.00000000       0.00000000       0.00000000       0.56133962
La       0.00000000       0.00000000       4.76545455       0.00000000       0.00000000      -0.56133962
2
Properties=species:S:1:pos:R:3:forces:R:3 energy=-52.156771549820746 pbc="F F F"
La       0.00000000       0.00000000       0.00000000       0.00000000       0.00000000       0.54809439
La       0.00000000       0.00000000       4.82424242       0.00000000       0.00000000      -0.54809439
2
Properties=species:S:1:pos:R:3:forces:R:3 energy=-52.12472738912698 pbc="F F F"
La       0.00000000       0.00000000       0.00000000       0.00000000       0.00000000       0.54318810
La       0.00000000       0.00000000       4.88303030       0.00000000       0.00000000      -0.54318810
2
Properties=species:S:1:pos:R:3:forces:R:3 energy=-52.09280748012556 pbc="F F F"
La       0.00000000       0.00000000       0.00000000       0.00000000       0.00000000       0.54347914
La       0.00000000       0.00000000       4.94181818       0.00000000       0.00000000      -0.54347914
2
Properties=species:S:1:pos:R:3:forces:R:3 energy=-52.06073680348162 pbc="F F F"
La       0.00000000       0.00000000       0.00000000       0.00000000       0.00000000       0.54839855
La       0.00000000       0.00000000       5.00060606       0.00000000       0.00000000      -0.54839855
2
Properties=species:S:1:pos:R:3:forces:R:3 energy=-52.02822511274947 pbc="F F F"
La       0.00000000       0.00000000       0.00000000       0.00000000       0.00000000       0.55846924
La       0.00000000       0.00000000       5.05939394       0.00000000       0.00000000      -0.55846924
2
Properties=species:S:1:pos:R:3:forces:R:3 energy=-51.994982142476495 pbc="F F F"
La       0.00000000       0.00000000       0.00000000       0.00000000       0.00000000       0.57311565
La       0.00000000       0.00000000       5.11818182       0.00000000       0.00000000      -0.57311565
2
Properties=species:S:1:pos:R:3:forces:R:3 energy=-51.960816828345905 pbc="F F F"
La       0.00000000       0.00000000       0.00000000       0.00000000       0.00000000       0.58890879
La       0.00000000       0.00000000       5.17696970       0.00000000       0.00000000      -0.58890879
2
Properties=species:S:1:pos:R:3:forces:R:3 energy=-51.92586239015454 pbc="F F F"
La       0.00000000       0.00000000       0.00000000       0.00000000       0.00000000       0.59849739
La       0.00000000       0.00000000       5.23575758       0.00000000       0.00000000      -0.59849739
2
Properties=species:S:1:pos:R:3:forces:R:3 energy=-51.890770827520434 pbc="F F F"
La       0.00000000       0.00000000       0.00000000       0.00000000       0.00000000       0.59179336
La       0.00000000       0.00000000       5.29454545       0.00000000       0.00000000      -0.59179336
2
Properties=species:S:1:pos:R:3:forces:R:3 energy=-51.85669391925638 pbc="F F F"
La       0.00000000       0.00000000       0.00000000       0.00000000       0.00000000       0.56484556
La       0.00000000       0.00000000       5.35333333       0.00000000       0.00000000      -0.56484556
2
Properties=species:S:1:pos:R:3:forces:R:3 energy=-51.82438672516303 pbc="F F F"
La       0.00000000       0.00000000       0.00000000       0.00000000       0.00000000       0.53744566
La       0.00000000       0.00000000       5.41212121       0.00000000       0.00000000      -0.53744566
2
Properties=species:S:1:pos:R:3:forces:R:3 energy=-51.79285720537158 pbc="F F F"
La       0.00000000       0.00000000       0.00000000       0.00000000       0.00000000       0.54079455
La       0.00000000       0.00000000       5.47090909       0.00000000       0.00000000      -0.54079455
2
Properties=species:S:1:pos:R:3:forces:R:3 energy=-51.760590741333914 pbc="F F F"
La       0.00000000       0.00000000       0.00000000       0.00000000       0.00000000       0.55293804
La       0.00000000       0.00000000       5.52969697       0.00000000       0.00000000      -0.55293804
2
Properties=species:S:1:pos:R:3:forces:R:3 energy=-51.72882314607644 pbc="F F F"
La       0.00000000       0.00000000       0.00000000       0.00000000       0.00000000       0.51826108
La       0.00000000       0.00000000       5.58848485       0.00000000       0.00000000      -0.51826108
2
Properties=species:S:1:pos:R:3:forces:R:3 energy=-51.700350478653256 pbc="F F F"
La       0.00000000       0.00000000       0.00000000       0.00000000       0.00000000       0.45155078
La       0.00000000       0.00000000       5.64727273       0.00000000       0.00000000      -0.45155078
2
Properties=species:S:1:pos:R:3:forces:R:3 energy=-51.67478357341901 pbc="F F F"
La       0.00000000       0.00000000       0.00000000       0.00000000       0.00000000       0.43220237
La       0.00000000       0.00000000       5.70606061       0.00000000       0.00000000      -0.43220237
2
Properties=species:S:1:pos:R:3:forces:R:3 energy=-51.6479186054766 pbc="F F F"
La       0.00000000       0.00000000       0.00000000       0.00000000       0.00000000       0.48526505
La       0.00000000       0.00000000       5.76484848       0.00000000       0.00000000      -0.48526505
2
Properties=species:S:1:pos:R:3:forces:R:3 energy=-51.61889349442566 pbc="F F F"
La       0.00000000       0.00000000       0.00000000       0.00000000       0.00000000       0.47841123
La       0.00000000       0.00000000       5.82363636       0.00000000       0.00000000      -0.47841123
2
Properties=species:S:1:pos:R:3:forces:R:3 energy=-51.59516986097767 pbc="F F F"
La       0.00000000       0.00000000       0.00000000       0.00000000       0.00000000       0.30898634
La       0.00000000       0.00000000       5.88242424       0.00000000       0.00000000      -0.30898634
2
Properties=species:S:1:pos:R:3:forces:R:3 energy=-51.58346170220084 pbc="F F F"
La       0.00000000       0.00000000       0.00000000       0.00000000       0.00000000       0.09611791
La       0.00000000       0.00000000       5.94121212       0.00000000       0.00000000      -0.09611791
2
Properties=species:S:1:pos:R:3:forces:R:3 energy=-51.58132018519126 pbc="F F F"
La       0.00000000       0.00000000       0.00000000       0.00000000       0.00000000       0.00635574
La       0.00000000       0.00000000       6.00000000       0.00000000       0.00000000      -0.00635574
