2
Properties=species:S:1:pos:R:3:forces:R:3 energy=-13735.201202861255 pbc="F F F"
Li       0.00000000       0.00000000       0.00000000       0.00000000       0.00000000    3169.00732422
Li       0.00000000       0.00000000       0.18000000       0.00000000       0.00000000   -3169.00732422
2
Properties=species:S:1:pos:R:3:forces:R:3 energy=-13320.644562236255 pbc="F F F"
Li       0.00000000       0.00000000       0.00000000       0.00000000       0.00000000   11609.30273438
Li       0.00000000       0.00000000       0.23878788       0.00000000       0.00000000  -11609.30273438
2
Properties=species:S:1:pos:R:3:forces:R:3 energy=-12280.198273173755 pbc="F F F"
Li       0.00000000       0.00000000       0.00000000       0.00000000       0.00000000   24527.33789062
Li       0.00000000       0.00000000       0.29757576       0.00000000       0.00000000  -24527.33789062
2
Properties=species:S:1:pos:R:3:forces:R:3 energy=-10380.175812236255 pbc="F F F"
Li       0.00000000       0.00000000       0.00000000       0.00000000       0.00000000   40164.18750000
Li       0.00000000       0.00000000       0.35636364       0.00000000       0.00000000  -40164.18750000
2
Properties=species:S:1:pos:R:3:forces:R:3 energy=-7630.681183329609 pbc="F F F"
Li       0.00000000       0.00000000       0.00000000       0.00000000       0.00000000   51970.34765625
Li       0.00000000       0.00000000       0.41515152       0.00000000       0.00000000  -51970.34765625
2
Properties=species:S:1:pos:R:3:forces:R:3 energy=-4523.615265360462 pbc="F F F"
Li       0.00000000       0.00000000       0.00000000       0.00000000       0.00000000   51035.06250000
Li       0.00000000       0.00000000       0.47393939       0.00000000       0.00000000  -51035.06250000
2
Properties=species:S:1:pos:R:3:forces:R:3 energy=-1956.285065163566 pbc="F F F"
Li       0.00000000       0.00000000       0.00000000       0.00000000       0.00000000   34547.93750000
Li       0.00000000       0.00000000       0.53272727       0.00000000       0.00000000  -34547.93750000
2
Properties=species:S:1:pos:R:3:forces:R:3 energy=-531.2972721924402 pbc="F F F"
Li       0.00000000       0.00000000       0.00000000       0.00000000       0.00000000   14494.94531250
Li       0.00000000       0.00000000       0.59151515       0.00000000       0.00000000  -14494.94531250
2
Properties=species:S:1:pos:R:3:forces:R:3 energy=-73.4567799403413 pbc="F F F"
Li       0.00000000       0.00000000       0.00000000       0.00000000       0.00000000    2969.16503906
Li       0.00000000       0.00000000       0.65030303       0.00000000       0.00000000   -2969.16503906
2
Properties=species:S:1:pos:R:3:forces:R:3 energy=-21.24119994782937 pbc="F F F"
Li       0.00000000       0.00000000       0.00000000       0.00000000       0.00000000     176.43699646
Li       0.00000000       0.00000000       0.70909091       0.00000000       0.00000000    -176.43699646
2
Properties=species:S:1:pos:R:3:forces:R:3 energy=-12.802963702545593 pbc="F F F"
Li       0.00000000       0.00000000       0.00000000       0.00000000       0.00000000     120.87796783
Li       0.00000000       0.00000000       0.76787879       0.00000000       0.00000000    -120.87796783
2
Properties=species:S:1:pos:R:3:forces:R:3 energy=-5.721755460809363 pbc="F F F"
Li       0.00000000       0.00000000       0.00000000       0.00000000       0.00000000     116.96335602
Li       0.00000000       0.00000000       0.82666667       0.00000000       0.00000000    -116.96335602
2
Properties=species:S:1:pos:R:3:forces:R:3 energy=-0.26161700206626687 pbc="F F F"
Li       0.00000000       0.00000000       0.00000000       0.00000000       0.00000000      58.44522095
Li       0.00000000       0.00000000       0.88545455       0.00000000       0.00000000     -58.44522095
2
Properties=species:S:1:pos:R:3:forces:R:3 energy=1.6345274133825114 pbc="F F F"
Li       0.00000000       0.00000000       0.00000000       0.00000000       0.00000000      15.48815155
Li       0.00000000       0.00000000       0.94424242       0.00000000       0.00000000     -15.48815155
2
Properties=species:S:1:pos:R:3:forces:R:3 energy=2.1922389306725676 pbc="F F F"
Li       0.00000000       0.00000000       0.00000000       0.00000000       0.00000000       5.43897200
Li       0.00000000       0.00000000       1.00303030       0.00000000       0.00000000      -5.43897200
2
Properties=species:S:1:pos:R:3:forces:R:3 energy=2.3105222495834727 pbc="F F F"
Li       0.00000000       0.00000000       0.00000000       0.00000000       0.00000000      -1.74322605
Li       0.00000000       0.00000000       1.06181818       0.00000000       0.00000000       1.74322605
2
Properties=species:S:1:pos:R:3:forces:R:3 energy=2.010268920882091 pbc="F F F"
Li       0.00000000       0.00000000       0.00000000       0.00000000       0.00000000      -7.60406065
Li       0.00000000       0.00000000       1.12060606       0.00000000       0.00000000       7.60406065
2
Properties=species:S:1:pos:R:3:forces:R:3 energy=1.5245375195517352 pbc="F F F"
Li       0.00000000       0.00000000       0.00000000       0.00000000       0.00000000      -8.29271793
Li       0.00000000       0.00000000       1.17939394       0.00000000       0.00000000       8.29271793
2
Properties=species:S:1:pos:R:3:forces:R:3 energy=1.076196492879539 pbc="F F F"
Li       0.00000000       0.00000000       0.00000000       0.00000000       0.00000000      -6.78960752
Li       0.00000000       0.00000000       1.23818182       0.00000000       0.00000000       6.78960752
2
Properties=species:S:1:pos:R:3:forces:R:3 energy=0.7308034458728567 pbc="F F F"
Li       0.00000000       0.00000000       0.00000000       0.00000000       0.00000000      -5.04335880
Li       0.00000000       0.00000000       1.29696970       0.00000000       0.00000000       5.04335880
2
Properties=species:S:1:pos:R:3:forces:R:3 energy=0.4665950581498952 pbc="F F F"
Li       0.00000000       0.00000000       0.00000000       0.00000000       0.00000000      -4.09072590
Li       0.00000000       0.00000000       1.35575758       0.00000000       0.00000000       4.09072590
2
Properties=species:S:1:pos:R:3:forces:R:3 energy=0.23793408807959324 pbc="F F F"
Li       0.00000000       0.00000000       0.00000000       0.00000000       0.00000000      -3.74144435
Li       0.00000000       0.00000000       1.41454545       0.00000000       0.00000000       3.74144435
2
Properties=species:S:1:pos:R:3:forces:R:3 energy=0.024113889194579973 pbc="F F F"
Li       0.00000000       0.00000000       0.00000000       0.00000000       0.00000000      -3.53789854
Li       0.00000000       0.00000000       1.47333333       0.00000000       0.00000000       3.53789854
2
Properties=species:S:1:pos:R:3:forces:R:3 energy=-0.17819659417959563 pbc="F F F"
Li       0.00000000       0.00000000       0.00000000       0.00000000       0.00000000      -3.34580445
Li       0.00000000       0.00000000       1.53212121       0.00000000       0.00000000       3.34580445
2
Properties=species:S:1:pos:R:3:forces:R:3 energy=-0.3695175810871112 pbc="F F F"
Li       0.00000000       0.00000000       0.00000000       0.00000000       0.00000000      -3.16661882
Li       0.00000000       0.00000000       1.59090909       0.00000000       0.00000000       3.16661882
2
Properties=species:S:1:pos:R:3:forces:R:3 energy=-0.5511310367444405 pbc="F F F"
Li       0.00000000       0.00000000       0.00000000       0.00000000       0.00000000      -3.01879215
Li       0.00000000       0.00000000       1.64969697       0.00000000       0.00000000       3.01879215
2
Properties=species:S:1:pos:R:3:forces:R:3 energy=-0.7253503843499178 pbc="F F F"
Li       0.00000000       0.00000000       0.00000000       0.00000000       0.00000000      -2.91591477
Li       0.00000000       0.00000000       1.70848485       0.00000000       0.00000000       2.91591477
2
Properties=species:S:1:pos:R:3:forces:R:3 energy=-0.8947383717470616 pbc="F F F"
Li       0.00000000       0.00000000       0.00000000       0.00000000       0.00000000      -2.85160589
Li       0.00000000       0.00000000       1.76727273       0.00000000       0.00000000       2.85160589
2
Properties=species:S:1:pos:R:3:forces:R:3 energy=-1.0609534243169028 pbc="F F F"
Li       0.00000000       0.00000000       0.00000000       0.00000000       0.00000000      -2.80365443
Li       0.00000000       0.00000000       1.82606061       0.00000000       0.00000000       2.80365443
2
Properties=species:S:1:pos:R:3:forces:R:3 energy=-1.2241896025075192 pbc="F F F"
Li       0.00000000       0.00000000       0.00000000       0.00000000       0.00000000      -2.74614024
Li       0.00000000       0.00000000       1.88484848       0.00000000       0.00000000       2.74614024
2
Properties=species:S:1:pos:R:3:forces:R:3 energy=-1.383214574348513 pbc="F F F"
Li       0.00000000       0.00000000       0.00000000       0.00000000       0.00000000      -2.65743494
Li       0.00000000       0.00000000       1.94363636       0.00000000       0.00000000       2.65743494
2
Properties=species:S:1:pos:R:3:forces:R:3 energy=-1.5357920939651344 pbc="F F F"
Li       0.00000000       0.00000000       0.00000000       0.00000000       0.00000000      -2.52595425
Li       0.00000000       0.00000000       2.00242424       0.00000000       0.00000000       2.52595425
2
Properties=species:S:1:pos:R:3:forces:R:3 energy=-1.679389935843723 pbc="F F F"
Li       0.00000000       0.00000000       0.00000000       0.00000000       0.00000000      -2.35320306
Li       0.00000000       0.00000000       2.06121212       0.00000000       0.00000000       2.35320306
2
Properties=species:S:1:pos:R:3:forces:R:3 energy=-1.8118913513148802 pbc="F F F"
Li       0.00000000       0.00000000       0.00000000       0.00000000       0.00000000      -2.15096021
Li       0.00000000       0.00000000       2.12000000       0.00000000       0.00000000       2.15096021
2
Properties=species:S:1:pos:R:3:forces:R:3 energy=-1.9320081461647838 pbc="F F F"
Li       0.00000000       0.00000000       0.00000000       0.00000000       0.00000000      -1.93419731
Li       0.00000000       0.00000000       2.17878788       0.00000000       0.00000000       1.93419731
2
Properties=species:S:1:pos:R:3:forces:R:3 energy=-2.0392636669689153 pbc="F F F"
Li       0.00000000       0.00000000       0.00000000       0.00000000       0.00000000      -1.71508288
Li       0.00000000       0.00000000       2.23757576       0.00000000       0.00000000       1.71508288
2
Properties=species:S:1:pos:R:3:forces:R:3 energy=-2.133765272927928 pbc="F F F"
Li       0.00000000       0.00000000       0.00000000       0.00000000       0.00000000      -1.50126636
Li       0.00000000       0.00000000       2.29636364       0.00000000       0.00000000       1.50126636
2
Properties=species:S:1:pos:R:3:forces:R:3 energy=-2.215970275347236 pbc="F F F"
Li       0.00000000       0.00000000       0.00000000       0.00000000       0.00000000      -1.29733849
Li       0.00000000       0.00000000       2.35515152       0.00000000       0.00000000       1.29733849
2
Properties=species:S:1:pos:R:3:forces:R:3 energy=-2.286560868461337 pbc="F F F"
Li       0.00000000       0.00000000       0.00000000       0.00000000       0.00000000      -1.10663629
Li       0.00000000       0.00000000       2.41393939       0.00000000       0.00000000       1.10663629
2
Properties=species:S:1:pos:R:3:forces:R:3 energy=-2.346398033036665 pbc="F F F"
Li       0.00000000       0.00000000       0.00000000       0.00000000       0.00000000      -0.93191034
Li       0.00000000       0.00000000       2.47272727       0.00000000       0.00000000       0.93191034
2
Properties=species:S:1:pos:R:3:forces:R:3 energy=-2.3964817323082483 pbc="F F F"
Li       0.00000000       0.00000000       0.00000000       0.00000000       0.00000000      -0.77502698
Li       0.00000000       0.00000000       2.53151515       0.00000000       0.00000000       0.77502698
2
Properties=species:S:1:pos:R:3:forces:R:3 energy=-2.4378831653853235 pbc="F F F"
Li       0.00000000       0.00000000       0.00000000       0.00000000       0.00000000      -0.63651121
Li       0.00000000       0.00000000       2.59030303       0.00000000       0.00000000       0.63651121
2
Properties=species:S:1:pos:R:3:forces:R:3 energy=-2.4716611669494237 pbc="F F F"
Li       0.00000000       0.00000000       0.00000000       0.00000000       0.00000000      -0.51540226
Li       0.00000000       0.00000000       2.64909091       0.00000000       0.00000000       0.51540226
2
Properties=species:S:1:pos:R:3:forces:R:3 energy=-2.4987855332466875 pbc="F F F"
Li       0.00000000       0.00000000       0.00000000       0.00000000       0.00000000      -0.40975034
Li       0.00000000       0.00000000       2.70787879       0.00000000       0.00000000       0.40975034
2
Properties=species:S:1:pos:R:3:forces:R:3 energy=-2.52009309236117 pbc="F F F"
Li       0.00000000       0.00000000       0.00000000       0.00000000       0.00000000      -0.31710169
Li       0.00000000       0.00000000       2.76666667       0.00000000       0.00000000       0.31710169
2
Properties=species:S:1:pos:R:3:forces:R:3 energy=-2.5362757949181547 pbc="F F F"
Li       0.00000000       0.00000000       0.00000000       0.00000000       0.00000000      -0.23500827
Li       0.00000000       0.00000000       2.82545455       0.00000000       0.00000000       0.23500827
2
Properties=species:S:1:pos:R:3:forces:R:3 energy=-2.5478912569885903 pbc="F F F"
Li       0.00000000       0.00000000       0.00000000       0.00000000       0.00000000      -0.16146807
Li       0.00000000       0.00000000       2.88424242       0.00000000       0.00000000       0.16146807
2
Properties=species:S:1:pos:R:3:forces:R:3 energy=-2.5554056436350674 pbc="F F F"
Li       0.00000000       0.00000000       0.00000000       0.00000000       0.00000000      -0.09540305
Li       0.00000000       0.00000000       2.94303030       0.00000000       0.00000000       0.09540305
2
Properties=species:S:1:pos:R:3:forces:R:3 energy=-2.55926231619912 pbc="F F F"
Li       0.00000000       0.00000000       0.00000000       0.00000000       0.00000000      -0.03725519
Li       0.00000000       0.00000000       3.00181818       0.00000000       0.00000000       0.03725519
2
Properties=species:S:1:pos:R:3:forces:R:3 energy=-2.559982709541516 pbc="F F F"
Li       0.00000000       0.00000000       0.00000000       0.00000000       0.00000000       0.01086351
Li       0.00000000       0.00000000       3.06060606       0.00000000       0.00000000      -0.01086351
2
Properties=species:S:1:pos:R:3:forces:R:3 energy=-2.5582053719011695 pbc="F F F"
Li       0.00000000       0.00000000       0.00000000       0.00000000       0.00000000       0.04808862
Li       0.00000000       0.00000000       3.11939394       0.00000000       0.00000000      -0.04808862
2
Properties=species:S:1:pos:R:3:forces:R:3 energy=-2.5543866283275958 pbc="F F F"
Li       0.00000000       0.00000000       0.00000000       0.00000000       0.00000000       0.08282495
Li       0.00000000       0.00000000       3.17818182       0.00000000       0.00000000      -0.08282495
2
Properties=species:S:1:pos:R:3:forces:R:3 energy=-2.5481555392610105 pbc="F F F"
Li       0.00000000       0.00000000       0.00000000       0.00000000       0.00000000       0.13303074
Li       0.00000000       0.00000000       3.23696970       0.00000000       0.00000000      -0.13303074
2
Properties=species:S:1:pos:R:3:forces:R:3 energy=-2.538286671709726 pbc="F F F"
Li       0.00000000       0.00000000       0.00000000       0.00000000       0.00000000       0.20583263
Li       0.00000000       0.00000000       3.29575758       0.00000000       0.00000000      -0.20583263
2
Properties=species:S:1:pos:R:3:forces:R:3 energy=-2.523752779243087 pbc="F F F"
Li       0.00000000       0.00000000       0.00000000       0.00000000       0.00000000       0.28893572
Li       0.00000000       0.00000000       3.35454545       0.00000000       0.00000000      -0.28893572
2
Properties=species:S:1:pos:R:3:forces:R:3 energy=-2.50440144858058 pbc="F F F"
Li       0.00000000       0.00000000       0.00000000       0.00000000       0.00000000       0.36794928
Li       0.00000000       0.00000000       3.41333333       0.00000000       0.00000000      -0.36794928
2
Properties=species:S:1:pos:R:3:forces:R:3 energy=-2.4806893364822793 pbc="F F F"
Li       0.00000000       0.00000000       0.00000000       0.00000000       0.00000000       0.43700188
Li       0.00000000       0.00000000       3.47212121       0.00000000       0.00000000      -0.43700188
2
Properties=species:S:1:pos:R:3:forces:R:3 energy=-2.4532161303657603 pbc="F F F"
Li       0.00000000       0.00000000       0.00000000       0.00000000       0.00000000       0.49614167
Li       0.00000000       0.00000000       3.53090909       0.00000000       0.00000000      -0.49614167
2
Properties=species:S:1:pos:R:3:forces:R:3 energy=-2.4225150657638514 pbc="F F F"
Li       0.00000000       0.00000000       0.00000000       0.00000000       0.00000000       0.54710293
Li       0.00000000       0.00000000       3.58969697       0.00000000       0.00000000      -0.54710293
2
Properties=species:S:1:pos:R:3:forces:R:3 energy=-2.389020280573263 pbc="F F F"
Li       0.00000000       0.00000000       0.00000000       0.00000000       0.00000000       0.59138274
Li       0.00000000       0.00000000       3.64848485       0.00000000       0.00000000      -0.59138274
2
Properties=species:S:1:pos:R:3:forces:R:3 energy=-2.35309749701059 pbc="F F F"
Li       0.00000000       0.00000000       0.00000000       0.00000000       0.00000000       0.62979585
Li       0.00000000       0.00000000       3.70727273       0.00000000       0.00000000      -0.62979585
2
Properties=species:S:1:pos:R:3:forces:R:3 energy=-2.315082057235134 pbc="F F F"
Li       0.00000000       0.00000000       0.00000000       0.00000000       0.00000000       0.66255206
Li       0.00000000       0.00000000       3.76606061       0.00000000       0.00000000      -0.66255206
2
Properties=species:S:1:pos:R:3:forces:R:3 energy=-2.275311891607911 pbc="F F F"
Li       0.00000000       0.00000000       0.00000000       0.00000000       0.00000000       0.68945694
Li       0.00000000       0.00000000       3.82484848       0.00000000       0.00000000      -0.68945694
2
Properties=species:S:1:pos:R:3:forces:R:3 energy=-2.2341409385780384 pbc="F F F"
Li       0.00000000       0.00000000       0.00000000       0.00000000       0.00000000       0.71010566
Li       0.00000000       0.00000000       3.88363636       0.00000000       0.00000000      -0.71010566
2
Properties=species:S:1:pos:R:3:forces:R:3 energy=-2.1919519016297055 pbc="F F F"
Li       0.00000000       0.00000000       0.00000000       0.00000000       0.00000000       0.72403556
Li       0.00000000       0.00000000       3.94242424       0.00000000       0.00000000      -0.72403556
2
Properties=species:S:1:pos:R:3:forces:R:3 energy=-2.149152863937401 pbc="F F F"
Li       0.00000000       0.00000000       0.00000000       0.00000000       0.00000000       0.73083007
Li       0.00000000       0.00000000       4.00121212       0.00000000       0.00000000      -0.73083007
2
Properties=species:S:1:pos:R:3:forces:R:3 energy=-2.1061706034946037 pbc="F F F"
Li       0.00000000       0.00000000       0.00000000       0.00000000       0.00000000       0.73017454
Li       0.00000000       0.00000000       4.06000000       0.00000000       0.00000000      -0.73017454
2
Properties=species:S:1:pos:R:3:forces:R:3 energy=-2.063451261364402 pbc="F F F"
Li       0.00000000       0.00000000       0.00000000       0.00000000       0.00000000       0.72190589
Li       0.00000000       0.00000000       4.11878788       0.00000000       0.00000000      -0.72190589
2
Properties=species:S:1:pos:R:3:forces:R:3 energy=-2.0214406573157104 pbc="F F F"
Li       0.00000000       0.00000000       0.00000000       0.00000000       0.00000000       0.70604545
Li       0.00000000       0.00000000       4.17757576       0.00000000       0.00000000      -0.70604545
2
Properties=species:S:1:pos:R:3:forces:R:3 energy=-1.9805807288878126 pbc="F F F"
Li       0.00000000       0.00000000       0.00000000       0.00000000       0.00000000       0.68283653
Li       0.00000000       0.00000000       4.23636364       0.00000000       0.00000000      -0.68283653
2
Properties=species:S:1:pos:R:3:forces:R:3 energy=-1.9412885235489836 pbc="F F F"
Li       0.00000000       0.00000000       0.00000000       0.00000000       0.00000000       0.65280813
Li       0.00000000       0.00000000       4.29515152       0.00000000       0.00000000      -0.65280813
2
Properties=species:S:1:pos:R:3:forces:R:3 energy=-1.903943954153794 pbc="F F F"
Li       0.00000000       0.00000000       0.00000000       0.00000000       0.00000000       0.61681628
Li       0.00000000       0.00000000       4.35393939       0.00000000       0.00000000      -0.61681628
2
Properties=species:S:1:pos:R:3:forces:R:3 energy=-1.868860701541074 pbc="F F F"
Li       0.00000000       0.00000000       0.00000000       0.00000000       0.00000000       0.57604384
Li       0.00000000       0.00000000       4.41272727       0.00000000       0.00000000      -0.57604384
2
Properties=species:S:1:pos:R:3:forces:R:3 energy=-1.8362793827584958 pbc="F F F"
Li       0.00000000       0.00000000       0.00000000       0.00000000       0.00000000       0.53196210
Li       0.00000000       0.00000000       4.47151515       0.00000000       0.00000000      -0.53196210
2
Properties=species:S:1:pos:R:3:forces:R:3 energy=-1.8063471801133013 pbc="F F F"
Li       0.00000000       0.00000000       0.00000000       0.00000000       0.00000000       0.48619944
Li       0.00000000       0.00000000       4.53030303       0.00000000       0.00000000      -0.48619944
2
Properties=species:S:1:pos:R:3:forces:R:3 energy=-1.7791162102561133 pbc="F F F"
Li       0.00000000       0.00000000       0.00000000       0.00000000       0.00000000       0.44034481
Li       0.00000000       0.00000000       4.58909091       0.00000000       0.00000000      -0.44034481
2
Properties=species:S:1:pos:R:3:forces:R:3 energy=-1.7545490521577656 pbc="F F F"
Li       0.00000000       0.00000000       0.00000000       0.00000000       0.00000000       0.39575669
Li       0.00000000       0.00000000       4.64787879       0.00000000       0.00000000      -0.39575669
2
Properties=species:S:1:pos:R:3:forces:R:3 energy=-1.732540304983779 pbc="F F F"
Li       0.00000000       0.00000000       0.00000000       0.00000000       0.00000000       0.35340670
Li       0.00000000       0.00000000       4.70666667       0.00000000       0.00000000      -0.35340670
2
Properties=species:S:1:pos:R:3:forces:R:3 energy=-1.7129418236178315 pbc="F F F"
Li       0.00000000       0.00000000       0.00000000       0.00000000       0.00000000       0.31385681
Li       0.00000000       0.00000000       4.76545455       0.00000000       0.00000000      -0.31385681
2
Properties=species:S:1:pos:R:3:forces:R:3 energy=-1.6955782527153147 pbc="F F F"
Li       0.00000000       0.00000000       0.00000000       0.00000000       0.00000000       0.27733549
Li       0.00000000       0.00000000       4.82424242       0.00000000       0.00000000      -0.27733549
2
Properties=species:S:1:pos:R:3:forces:R:3 energy=-1.680272205206005 pbc="F F F"
Li       0.00000000       0.00000000       0.00000000       0.00000000       0.00000000       0.24398208
Li       0.00000000       0.00000000       4.88303030       0.00000000       0.00000000      -0.24398208
2
Properties=species:S:1:pos:R:3:forces:R:3 energy=-1.6668265844731673 pbc="F F F"
Li       0.00000000       0.00000000       0.00000000       0.00000000       0.00000000       0.21400872
Li       0.00000000       0.00000000       4.94181818       0.00000000       0.00000000      -0.21400872
2
Properties=species:S:1:pos:R:3:forces:R:3 energy=-1.6550349080444138 pbc="F F F"
Li       0.00000000       0.00000000       0.00000000       0.00000000       0.00000000       0.18783766
Li       0.00000000       0.00000000       5.00060606       0.00000000       0.00000000      -0.18783766
2
Properties=species:S:1:pos:R:3:forces:R:3 energy=-1.6446570142392118 pbc="F F F"
Li       0.00000000       0.00000000       0.00000000       0.00000000       0.00000000       0.16593896
Li       0.00000000       0.00000000       5.05939394       0.00000000       0.00000000      -0.16593896
2
Properties=species:S:1:pos:R:3:forces:R:3 energy=-1.6354363621870287 pbc="F F F"
Li       0.00000000       0.00000000       0.00000000       0.00000000       0.00000000       0.14850879
Li       0.00000000       0.00000000       5.11818182       0.00000000       0.00000000      -0.14850879
2
Properties=species:S:1:pos:R:3:forces:R:3 energy=-1.6271189829365469 pbc="F F F"
Li       0.00000000       0.00000000       0.00000000       0.00000000       0.00000000       0.13500112
Li       0.00000000       0.00000000       5.17696970       0.00000000       0.00000000      -0.13500112
2
Properties=species:S:1:pos:R:3:forces:R:3 energy=-1.6195188172337167 pbc="F F F"
Li       0.00000000       0.00000000       0.00000000       0.00000000       0.00000000       0.12374327
Li       0.00000000       0.00000000       5.23575758       0.00000000       0.00000000      -0.12374327
2
Properties=species:S:1:pos:R:3:forces:R:3 energy=-1.6125797907154371 pbc="F F F"
Li       0.00000000       0.00000000       0.00000000       0.00000000       0.00000000       0.11199374
Li       0.00000000       0.00000000       5.29454545       0.00000000       0.00000000      -0.11199374
2
Properties=species:S:1:pos:R:3:forces:R:3 energy=-1.6064052613559394 pbc="F F F"
Li       0.00000000       0.00000000       0.00000000       0.00000000       0.00000000       0.09764049
Li       0.00000000       0.00000000       5.35333333       0.00000000       0.00000000      -0.09764049
2
Properties=species:S:1:pos:R:3:forces:R:3 energy=-1.6010958778259343 pbc="F F F"
Li       0.00000000       0.00000000       0.00000000       0.00000000       0.00000000       0.08379906
Li       0.00000000       0.00000000       5.41212121       0.00000000       0.00000000      -0.08379906
2
Properties=species:S:1:pos:R:3:forces:R:3 energy=-1.59635274919072 pbc="F F F"
Li       0.00000000       0.00000000       0.00000000       0.00000000       0.00000000       0.07977118
Li       0.00000000       0.00000000       5.47090909       0.00000000       0.00000000      -0.07977118
2
Properties=species:S:1:pos:R:3:forces:R:3 energy=-1.5915445375654433 pbc="F F F"
Li       0.00000000       0.00000000       0.00000000       0.00000000       0.00000000       0.08362399
Li       0.00000000       0.00000000       5.52969697       0.00000000       0.00000000      -0.08362399
2
Properties=species:S:1:pos:R:3:forces:R:3 energy=-1.5867474573801634 pbc="F F F"
Li       0.00000000       0.00000000       0.00000000       0.00000000       0.00000000       0.07676519
Li       0.00000000       0.00000000       5.58848485       0.00000000       0.00000000      -0.07676519
2
Properties=species:S:1:pos:R:3:forces:R:3 energy=-1.5827578656311228 pbc="F F F"
Li       0.00000000       0.00000000       0.00000000       0.00000000       0.00000000       0.05865012
Li       0.00000000       0.00000000       5.64727273       0.00000000       0.00000000      -0.05865012
2
Properties=species:S:1:pos:R:3:forces:R:3 energy=-1.5796579325410494 pbc="F F F"
Li       0.00000000       0.00000000       0.00000000       0.00000000       0.00000000       0.05013717
Li       0.00000000       0.00000000       5.70606061       0.00000000       0.00000000      -0.05013717
2
Properties=species:S:1:pos:R:3:forces:R:3 energy=-1.5764483034691161 pbc="F F F"
Li       0.00000000       0.00000000       0.00000000       0.00000000       0.00000000       0.06097223
Li       0.00000000       0.00000000       5.76484848       0.00000000       0.00000000      -0.06097223
2
Properties=species:S:1:pos:R:3:forces:R:3 energy=-1.5725874979841121 pbc="F F F"
Li       0.00000000       0.00000000       0.00000000       0.00000000       0.00000000       0.06690128
Li       0.00000000       0.00000000       5.82363636       0.00000000       0.00000000      -0.06690128
2
Properties=species:S:1:pos:R:3:forces:R:3 energy=-1.56910369529657 pbc="F F F"
Li       0.00000000       0.00000000       0.00000000       0.00000000       0.00000000       0.04856346
Li       0.00000000       0.00000000       5.88242424       0.00000000       0.00000000      -0.04856346
2
Properties=species:S:1:pos:R:3:forces:R:3 energy=-1.5670318161095091 pbc="F F F"
Li       0.00000000       0.00000000       0.00000000       0.00000000       0.00000000       0.02264982
Li       0.00000000       0.00000000       5.94121212       0.00000000       0.00000000      -0.02264982
2
Properties=species:S:1:pos:R:3:forces:R:3 energy=-1.5661392675959394 pbc="F F F"
Li       0.00000000       0.00000000       0.00000000       0.00000000       0.00000000       0.01132155
Li       0.00000000       0.00000000       6.00000000       0.00000000       0.00000000      -0.01132155
