2
Properties=species:S:1:pos:R:3:forces:R:3 energy=1575.608698963715 pbc="F F F"
Na       0.00000000       0.00000000       0.00000000       0.00000000       0.00000000  -13272.25097656
Na       0.00000000       0.00000000       0.18000000       0.00000000       0.00000000   13272.25097656
2
Properties=species:S:1:pos:R:3:forces:R:3 energy=1067.7130690809024 pbc="F F F"
Na       0.00000000       0.00000000       0.00000000       0.00000000       0.00000000   -5511.74365234
Na       0.00000000       0.00000000       0.23878788       0.00000000       0.00000000    5511.74365234
2
Properties=species:S:1:pos:R:3:forces:R:3 energy=828.5814772840273 pbc="F F F"
Na       0.00000000       0.00000000       0.00000000       0.00000000       0.00000000   -3088.58227539
Na       0.00000000       0.00000000       0.29757576       0.00000000       0.00000000    3088.58227539
2
Properties=species:S:1:pos:R:3:forces:R:3 energy=670.3606520887148 pbc="F F F"
Na       0.00000000       0.00000000       0.00000000       0.00000000       0.00000000   -2473.32421875
Na       0.00000000       0.00000000       0.35636364       0.00000000       0.00000000    2473.32421875
2
Properties=species:S:1:pos:R:3:forces:R:3 energy=524.4417067762148 pbc="F F F"
Na       0.00000000       0.00000000       0.00000000       0.00000000       0.00000000   -2552.14257812
Na       0.00000000       0.00000000       0.41515152       0.00000000       0.00000000    2552.14257812
2
Properties=species:S:1:pos:R:3:forces:R:3 energy=368.21639549731395 pbc="F F F"
Na       0.00000000       0.00000000       0.00000000       0.00000000       0.00000000   -2738.47680664
Na       0.00000000       0.00000000       0.47393939       0.00000000       0.00000000    2738.47680664
2
Properties=species:S:1:pos:R:3:forces:R:3 energy=209.76513206997552 pbc="F F F"
Na       0.00000000       0.00000000       0.00000000       0.00000000       0.00000000   -2557.50952148
Na       0.00000000       0.00000000       0.53272727       0.00000000       0.00000000    2557.50952148
2
Properties=species:S:1:pos:R:3:forces:R:3 energy=79.04329216677428 pbc="F F F"
Na       0.00000000       0.00000000       0.00000000       0.00000000       0.00000000   -1835.27587891
Na       0.00000000       0.00000000       0.59151515       0.00000000       0.00000000    1835.27587891
2
Properties=species:S:1:pos:R:3:forces:R:3 energy=27.56314576027714 pbc="F F F"
Na       0.00000000       0.00000000       0.00000000       0.00000000       0.00000000    -124.80553436
Na       0.00000000       0.00000000       0.65030303       0.00000000       0.00000000     124.80553436
2
Properties=species:S:1:pos:R:3:forces:R:3 energy=22.411437159747734 pbc="F F F"
Na       0.00000000       0.00000000       0.00000000       0.00000000       0.00000000    -104.19300842
Na       0.00000000       0.00000000       0.70909091       0.00000000       0.00000000     104.19300842
2
Properties=species:S:1:pos:R:3:forces:R:3 energy=16.580823073741694 pbc="F F F"
Na       0.00000000       0.00000000       0.00000000       0.00000000       0.00000000     -88.69526672
Na       0.00000000       0.00000000       0.76787879       0.00000000       0.00000000      88.69526672
2
Properties=species:S:1:pos:R:3:forces:R:3 energy=12.242756979003119 pbc="F F F"
Na       0.00000000       0.00000000       0.00000000       0.00000000       0.00000000     -59.85145569
Na       0.00000000       0.00000000       0.82666667       0.00000000       0.00000000      59.85145569
2
Properties=species:S:1:pos:R:3:forces:R:3 energy=9.15365901103006 pbc="F F F"
Na       0.00000000       0.00000000       0.00000000       0.00000000       0.00000000     -59.10840607
Na       0.00000000       0.00000000       0.88545455       0.00000000       0.00000000      59.10840607
2
Properties=species:S:1:pos:R:3:forces:R:3 energy=6.08932844505905 pbc="F F F"
Na       0.00000000       0.00000000       0.00000000       0.00000000       0.00000000     -44.22841263
Na       0.00000000       0.00000000       0.94424242       0.00000000       0.00000000      44.22841263
2
Properties=species:S:1:pos:R:3:forces:R:3 energy=3.922715836568046 pbc="F F F"
Na       0.00000000       0.00000000       0.00000000       0.00000000       0.00000000     -31.73442268
Na       0.00000000       0.00000000       1.00303030       0.00000000       0.00000000      31.73442268
2
Properties=species:S:1:pos:R:3:forces:R:3 energy=2.24740143271666 pbc="F F F"
Na       0.00000000       0.00000000       0.00000000       0.00000000       0.00000000     -25.03092575
Na       0.00000000       0.00000000       1.06181818       0.00000000       0.00000000      25.03092575
2
Properties=species:S:1:pos:R:3:forces:R:3 energy=0.9769880636723168 pbc="F F F"
Na       0.00000000       0.00000000       0.00000000       0.00000000       0.00000000     -18.57250214
Na       0.00000000       0.00000000       1.12060606       0.00000000       0.00000000      18.57250214
2
Properties=species:S:1:pos:R:3:forces:R:3 energy=0.0171425595704233 pbc="F F F"
Na       0.00000000       0.00000000       0.00000000       0.00000000       0.00000000     -14.38113976
Na       0.00000000       0.00000000       1.17939394       0.00000000       0.00000000      14.38113976
2
Properties=species:S:1:pos:R:3:forces:R:3 energy=-0.740882560700892 pbc="F F F"
Na       0.00000000       0.00000000       0.00000000       0.00000000       0.00000000     -11.59290886
Na       0.00000000       0.00000000       1.23818182       0.00000000       0.00000000      11.59290886
2
Properties=species:S:1:pos:R:3:forces:R:3 energy=-1.3615327883913424 pbc="F F F"
Na       0.00000000       0.00000000       0.00000000       0.00000000       0.00000000      -9.58759212
Na       0.00000000       0.00000000       1.29696970       0.00000000       0.00000000       9.58759212
2
Properties=species:S:1:pos:R:3:forces:R:3 energy=-1.867713948881598 pbc="F F F"
Na       0.00000000       0.00000000       0.00000000       0.00000000       0.00000000      -7.57692337
Na       0.00000000       0.00000000       1.35575758       0.00000000       0.00000000       7.57692337
2
Properties=species:S:1:pos:R:3:forces:R:3 energy=-2.245272558078074 pbc="F F F"
Na       0.00000000       0.00000000       0.00000000       0.00000000       0.00000000      -5.23818159
Na       0.00000000       0.00000000       1.41454545       0.00000000       0.00000000       5.23818159
2
Properties=species:S:1:pos:R:3:forces:R:3 energy=-2.487615622261141 pbc="F F F"
Na       0.00000000       0.00000000       0.00000000       0.00000000       0.00000000      -3.10715961
Na       0.00000000       0.00000000       1.47333333       0.00000000       0.00000000       3.10715961
2
Properties=species:S:1:pos:R:3:forces:R:3 energy=-2.628329401523616 pbc="F F F"
Na       0.00000000       0.00000000       0.00000000       0.00000000       0.00000000      -1.86359942
Na       0.00000000       0.00000000       1.53212121       0.00000000       0.00000000       1.86359942
2
Properties=species:S:1:pos:R:3:forces:R:3 energy=-2.7286147482762413 pbc="F F F"
Na       0.00000000       0.00000000       0.00000000       0.00000000       0.00000000      -1.71545911
Na       0.00000000       0.00000000       1.59090909       0.00000000       0.00000000       1.71545911
2
Properties=species:S:1:pos:R:3:forces:R:3 energy=-2.844275193552147 pbc="F F F"
Na       0.00000000       0.00000000       0.00000000       0.00000000       0.00000000      -2.28474641
Na       0.00000000       0.00000000       1.64969697       0.00000000       0.00000000       2.28474641
2
Properties=species:S:1:pos:R:3:forces:R:3 energy=-2.9988157046615074 pbc="F F F"
Na       0.00000000       0.00000000       0.00000000       0.00000000       0.00000000      -2.94645500
Na       0.00000000       0.00000000       1.70848485       0.00000000       0.00000000       2.94645500
2
Properties=species:S:1:pos:R:3:forces:R:3 energy=-3.185542195239333 pbc="F F F"
Na       0.00000000       0.00000000       0.00000000       0.00000000       0.00000000      -3.35686088
Na       0.00000000       0.00000000       1.76727273       0.00000000       0.00000000       3.35686088
2
Properties=species:S:1:pos:R:3:forces:R:3 energy=-3.3883969280409767 pbc="F F F"
Na       0.00000000       0.00000000       0.00000000       0.00000000       0.00000000      -3.50987720
Na       0.00000000       0.00000000       1.82606061       0.00000000       0.00000000       3.50987720
2
Properties=species:S:1:pos:R:3:forces:R:3 energy=-3.595248441398525 pbc="F F F"
Na       0.00000000       0.00000000       0.00000000       0.00000000       0.00000000      -3.50992393
Na       0.00000000       0.00000000       1.88484848       0.00000000       0.00000000       3.50992393
2
Properties=species:S:1:pos:R:3:forces:R:3 energy=-3.799605542365848 pbc="F F F"
Na       0.00000000       0.00000000       0.00000000       0.00000000       0.00000000      -3.43291998
Na       0.00000000       0.00000000       1.94363636       0.00000000       0.00000000       3.43291998
2
Properties=species:S:1:pos:R:3:forces:R:3 energy=-3.9978497398926103 pbc="F F F"
Na       0.00000000       0.00000000       0.00000000       0.00000000       0.00000000      -3.30273461
Na       0.00000000       0.00000000       2.00242424       0.00000000       0.00000000       3.30273461
2
Properties=species:S:1:pos:R:3:forces:R:3 energy=-4.186869900832627 pbc="F F F"
Na       0.00000000       0.00000000       0.00000000       0.00000000       0.00000000      -3.11876678
Na       0.00000000       0.00000000       2.06121212       0.00000000       0.00000000       3.11876678
2
Properties=species:S:1:pos:R:3:forces:R:3 energy=-4.363553459152372 pbc="F F F"
Na       0.00000000       0.00000000       0.00000000       0.00000000       0.00000000      -2.88484383
Na       0.00000000       0.00000000       2.12000000       0.00000000       0.00000000       2.88484383
2
Properties=species:S:1:pos:R:3:forces:R:3 energy=-4.525388661657765 pbc="F F F"
Na       0.00000000       0.00000000       0.00000000       0.00000000       0.00000000      -2.61694932
Na       0.00000000       0.00000000       2.17878788       0.00000000       0.00000000       2.61694932
2
Properties=species:S:1:pos:R:3:forces:R:3 energy=-4.670991717412237 pbc="F F F"
Na       0.00000000       0.00000000       0.00000000       0.00000000       0.00000000      -2.33609295
Na       0.00000000       0.00000000       2.23757576       0.00000000       0.00000000       2.33609295
2
Properties=species:S:1:pos:R:3:forces:R:3 energy=-4.800167116053322 pbc="F F F"
Na       0.00000000       0.00000000       0.00000000       0.00000000       0.00000000      -2.06077480
Na       0.00000000       0.00000000       2.29636364       0.00000000       0.00000000       2.06077480
2
Properties=species:S:1:pos:R:3:forces:R:3 energy=-4.913663966380692 pbc="F F F"
Na       0.00000000       0.00000000       0.00000000       0.00000000       0.00000000      -1.80444300
Na       0.00000000       0.00000000       2.35515152       0.00000000       0.00000000       1.80444300
2
Properties=species:S:1:pos:R:3:forces:R:3 energy=-5.012862719094945 pbc="F F F"
Na       0.00000000       0.00000000       0.00000000       0.00000000       0.00000000      -1.57528484
Na       0.00000000       0.00000000       2.41393939       0.00000000       0.00000000       1.57528484
2
Properties=species:S:1:pos:R:3:forces:R:3 energy=-5.099469043677682 pbc="F F F"
Na       0.00000000       0.00000000       0.00000000       0.00000000       0.00000000      -1.37603450
Na       0.00000000       0.00000000       2.47272727       0.00000000       0.00000000       1.37603450
2
Properties=species:S:1:pos:R:3:forces:R:3 energy=-5.175191492412235 pbc="F F F"
Na       0.00000000       0.00000000       0.00000000       0.00000000       0.00000000      -1.20422840
Na       0.00000000       0.00000000       2.53151515       0.00000000       0.00000000       1.20422840
2
Properties=species:S:1:pos:R:3:forces:R:3 energy=-5.2414778256702625 pbc="F F F"
Na       0.00000000       0.00000000       0.00000000       0.00000000       0.00000000      -1.05384660
Na       0.00000000       0.00000000       2.59030303       0.00000000       0.00000000       1.05384660
2
Properties=species:S:1:pos:R:3:forces:R:3 energy=-5.299381031757672 pbc="F F F"
Na       0.00000000       0.00000000       0.00000000       0.00000000       0.00000000      -0.91795802
Na       0.00000000       0.00000000       2.64909091       0.00000000       0.00000000       0.91795802
2
Properties=species:S:1:pos:R:3:forces:R:3 energy=-5.34958367293216 pbc="F F F"
Na       0.00000000       0.00000000       0.00000000       0.00000000       0.00000000      -0.79115385
Na       0.00000000       0.00000000       2.70787879       0.00000000       0.00000000       0.79115385
2
Properties=species:S:1:pos:R:3:forces:R:3 energy=-5.392525231810712 pbc="F F F"
Na       0.00000000       0.00000000       0.00000000       0.00000000       0.00000000      -0.67077392
Na       0.00000000       0.00000000       2.76666667       0.00000000       0.00000000       0.67077392
2
Properties=species:S:1:pos:R:3:forces:R:3 energy=-5.428574771166364 pbc="F F F"
Na       0.00000000       0.00000000       0.00000000       0.00000000       0.00000000      -0.55684143
Na       0.00000000       0.00000000       2.82545455       0.00000000       0.00000000       0.55684143
2
Properties=species:S:1:pos:R:3:forces:R:3 energy=-5.45815784230437 pbc="F F F"
Na       0.00000000       0.00000000       0.00000000       0.00000000       0.00000000      -0.45116547
Na       0.00000000       0.00000000       2.88424242       0.00000000       0.00000000       0.45116547
2
Properties=species:S:1:pos:R:3:forces:R:3 energy=-5.481830499755833 pbc="F F F"
Na       0.00000000       0.00000000       0.00000000       0.00000000       0.00000000      -0.35615033
Na       0.00000000       0.00000000       2.94303030       0.00000000       0.00000000       0.35615033
2
Properties=species:S:1:pos:R:3:forces:R:3 energy=-5.500280411363237 pbc="F F F"
Na       0.00000000       0.00000000       0.00000000       0.00000000       0.00000000      -0.27371788
Na       0.00000000       0.00000000       3.00181818       0.00000000       0.00000000       0.27371788
2
Properties=species:S:1:pos:R:3:forces:R:3 energy=-5.514276123392429 pbc="F F F"
Na       0.00000000       0.00000000       0.00000000       0.00000000       0.00000000      -0.20467013
Na       0.00000000       0.00000000       3.06060606       0.00000000       0.00000000       0.20467013
2
Properties=species:S:1:pos:R:3:forces:R:3 energy=-5.5245983713512885 pbc="F F F"
Na       0.00000000       0.00000000       0.00000000       0.00000000       0.00000000      -0.14857137
Na       0.00000000       0.00000000       3.11939394       0.00000000       0.00000000       0.14857137
2
Properties=species:S:1:pos:R:3:forces:R:3 energy=-5.531970807373294 pbc="F F F"
Na       0.00000000       0.00000000       0.00000000       0.00000000       0.00000000      -0.10399313
Na       0.00000000       0.00000000       3.17818182       0.00000000       0.00000000       0.10399313
2
Properties=species:S:1:pos:R:3:forces:R:3 energy=-5.537011861995505 pbc="F F F"
Na       0.00000000       0.00000000       0.00000000       0.00000000       0.00000000      -0.06888096
Na       0.00000000       0.00000000       3.23696970       0.00000000       0.00000000       0.06888096
2
Properties=species:S:1:pos:R:3:forces:R:3 energy=-5.540208308559052 pbc="F F F"
Na       0.00000000       0.00000000       0.00000000       0.00000000       0.00000000      -0.04088855
Na       0.00000000       0.00000000       3.29575758       0.00000000       0.00000000       0.04088855
2
Properties=species:S:1:pos:R:3:forces:R:3 energy=-5.54191240930649 pbc="F F F"
Na       0.00000000       0.00000000       0.00000000       0.00000000       0.00000000      -0.01769482
Na       0.00000000       0.00000000       3.35454545       0.00000000       0.00000000       0.01769482
2
Properties=species:S:1:pos:R:3:forces:R:3 energy=-5.542344684287189 pbc="F F F"
Na       0.00000000       0.00000000       0.00000000       0.00000000       0.00000000       0.00262830
Na       0.00000000       0.00000000       3.41333333       0.00000000       0.00000000      -0.00262830
2
Properties=species:S:1:pos:R:3:forces:R:3 energy=-5.541637532075949 pbc="F F F"
Na       0.00000000       0.00000000       0.00000000       0.00000000       0.00000000       0.02120196
Na       0.00000000       0.00000000       3.47212121       0.00000000       0.00000000      -0.02120196
2
Properties=species:S:1:pos:R:3:forces:R:3 energy=-5.539884475435739 pbc="F F F"
Na       0.00000000       0.00000000       0.00000000       0.00000000       0.00000000       0.03811698
Na       0.00000000       0.00000000       3.53090909       0.00000000       0.00000000      -0.03811698
2
Properties=species:S:1:pos:R:3:forces:R:3 energy=-5.537199157958509 pbc="F F F"
Na       0.00000000       0.00000000       0.00000000       0.00000000       0.00000000       0.05285379
Na       0.00000000       0.00000000       3.58969697       0.00000000       0.00000000      -0.05285379
2
Properties=species:S:1:pos:R:3:forces:R:3 energy=-5.533705178960018 pbc="F F F"
Na       0.00000000       0.00000000       0.00000000       0.00000000       0.00000000       0.06591527
Na       0.00000000       0.00000000       3.64848485       0.00000000       0.00000000      -0.06591527
2
Properties=species:S:1:pos:R:3:forces:R:3 energy=-5.529409954630999 pbc="F F F"
Na       0.00000000       0.00000000       0.00000000       0.00000000       0.00000000       0.08109792
Na       0.00000000       0.00000000       3.70727273       0.00000000       0.00000000      -0.08109792
2
Properties=species:S:1:pos:R:3:forces:R:3 energy=-5.524000814189566 pbc="F F F"
Na       0.00000000       0.00000000       0.00000000       0.00000000       0.00000000       0.10478995
Na       0.00000000       0.00000000       3.76606061       0.00000000       0.00000000      -0.10478995
2
Properties=species:S:1:pos:R:3:forces:R:3 energy=-5.516849648275178 pbc="F F F"
Na       0.00000000       0.00000000       0.00000000       0.00000000       0.00000000       0.14043599
Na       0.00000000       0.00000000       3.82484848       0.00000000       0.00000000      -0.14043599
2
Properties=species:S:1:pos:R:3:forces:R:3 energy=-5.507308494705967 pbc="F F F"
Na       0.00000000       0.00000000       0.00000000       0.00000000       0.00000000       0.18517943
Na       0.00000000       0.00000000       3.88363636       0.00000000       0.00000000      -0.18517943
2
Properties=species:S:1:pos:R:3:forces:R:3 energy=-5.495012832935254 pbc="F F F"
Na       0.00000000       0.00000000       0.00000000       0.00000000       0.00000000       0.23327205
Na       0.00000000       0.00000000       3.94242424       0.00000000       0.00000000      -0.23327205
2
Properties=species:S:1:pos:R:3:forces:R:3 energy=-5.479905259024734 pbc="F F F"
Na       0.00000000       0.00000000       0.00000000       0.00000000       0.00000000       0.28026709
Na       0.00000000       0.00000000       4.00121212       0.00000000       0.00000000      -0.28026709
2
Properties=species:S:1:pos:R:3:forces:R:3 energy=-5.462128345111532 pbc="F F F"
Na       0.00000000       0.00000000       0.00000000       0.00000000       0.00000000       0.32379436
Na       0.00000000       0.00000000       4.06000000       0.00000000       0.00000000      -0.32379436
2
Properties=species:S:1:pos:R:3:forces:R:3 energy=-5.441927413664457 pbc="F F F"
Na       0.00000000       0.00000000       0.00000000       0.00000000       0.00000000       0.36260036
Na       0.00000000       0.00000000       4.11878788       0.00000000       0.00000000      -0.36260036
2
Properties=species:S:1:pos:R:3:forces:R:3 energy=-5.419606616509093 pbc="F F F"
Na       0.00000000       0.00000000       0.00000000       0.00000000       0.00000000       0.39574516
Na       0.00000000       0.00000000       4.17757576       0.00000000       0.00000000      -0.39574516
2
Properties=species:S:1:pos:R:3:forces:R:3 energy=-5.395525671426094 pbc="F F F"
Na       0.00000000       0.00000000       0.00000000       0.00000000       0.00000000       0.42230836
Na       0.00000000       0.00000000       4.23636364       0.00000000       0.00000000      -0.42230836
2
Properties=species:S:1:pos:R:3:forces:R:3 energy=-5.3700990105519235 pbc="F F F"
Na       0.00000000       0.00000000       0.00000000       0.00000000       0.00000000       0.44141418
Na       0.00000000       0.00000000       4.29515152       0.00000000       0.00000000      -0.44141418
2
Properties=species:S:1:pos:R:3:forces:R:3 energy=-5.343787054983186 pbc="F F F"
Na       0.00000000       0.00000000       0.00000000       0.00000000       0.00000000       0.45236105
Na       0.00000000       0.00000000       4.35393939       0.00000000       0.00000000      -0.45236105
2
Properties=species:S:1:pos:R:3:forces:R:3 energy=-5.3170804495210655 pbc="F F F"
Na       0.00000000       0.00000000       0.00000000       0.00000000       0.00000000       0.45477900
Na       0.00000000       0.00000000       4.41272727       0.00000000       0.00000000      -0.45477900
2
Properties=species:S:1:pos:R:3:forces:R:3 energy=-5.2904815507541025 pbc="F F F"
Na       0.00000000       0.00000000       0.00000000       0.00000000       0.00000000       0.44874907
Na       0.00000000       0.00000000       4.47151515       0.00000000       0.00000000      -0.44874907
2
Properties=species:S:1:pos:R:3:forces:R:3 energy=-5.264471784576145 pbc="F F F"
Na       0.00000000       0.00000000       0.00000000       0.00000000       0.00000000       0.43488643
Na       0.00000000       0.00000000       4.53030303       0.00000000       0.00000000      -0.43488643
2
Properties=species:S:1:pos:R:3:forces:R:3 energy=-5.239481334196959 pbc="F F F"
Na       0.00000000       0.00000000       0.00000000       0.00000000       0.00000000       0.41432333
Na       0.00000000       0.00000000       4.58909091       0.00000000       0.00000000      -0.41432333
2
Properties=species:S:1:pos:R:3:forces:R:3 energy=-5.21585905006025 pbc="F F F"
Na       0.00000000       0.00000000       0.00000000       0.00000000       0.00000000       0.38860863
Na       0.00000000       0.00000000       4.64787879       0.00000000       0.00000000      -0.38860863
2
Properties=species:S:1:pos:R:3:forces:R:3 energy=-5.193856129514478 pbc="F F F"
Na       0.00000000       0.00000000       0.00000000       0.00000000       0.00000000       0.35950676
Na       0.00000000       0.00000000       4.70666667       0.00000000       0.00000000      -0.35950676
2
Properties=species:S:1:pos:R:3:forces:R:3 energy=-5.173621495665079 pbc="F F F"
Na       0.00000000       0.00000000       0.00000000       0.00000000       0.00000000       0.32879448
Na       0.00000000       0.00000000       4.76545455       0.00000000       0.00000000      -0.32879448
2
Properties=species:S:1:pos:R:3:forces:R:3 energy=-5.155197402805897 pbc="F F F"
Na       0.00000000       0.00000000       0.00000000       0.00000000       0.00000000       0.29807344
Na       0.00000000       0.00000000       4.82424242       0.00000000       0.00000000      -0.29807344
2
Properties=species:S:1:pos:R:3:forces:R:3 energy=-5.138548814925479 pbc="F F F"
Na       0.00000000       0.00000000       0.00000000       0.00000000       0.00000000       0.26871577
Na       0.00000000       0.00000000       4.88303030       0.00000000       0.00000000      -0.26871577
2
Properties=species:S:1:pos:R:3:forces:R:3 energy=-5.123554952518923 pbc="F F F"
Na       0.00000000       0.00000000       0.00000000       0.00000000       0.00000000       0.24183781
Na       0.00000000       0.00000000       4.94181818       0.00000000       0.00000000      -0.24183781
2
Properties=species:S:1:pos:R:3:forces:R:3 energy=-5.110046199118397 pbc="F F F"
Na       0.00000000       0.00000000       0.00000000       0.00000000       0.00000000       0.21840610
Na       0.00000000       0.00000000       5.00060606       0.00000000       0.00000000      -0.21840610
2
Properties=species:S:1:pos:R:3:forces:R:3 energy=-5.097792730061251 pbc="F F F"
Na       0.00000000       0.00000000       0.00000000       0.00000000       0.00000000       0.19918275
Na       0.00000000       0.00000000       5.05939394       0.00000000       0.00000000      -0.19918275
2
Properties=species:S:1:pos:R:3:forces:R:3 energy=-5.086535562342184 pbc="F F F"
Na       0.00000000       0.00000000       0.00000000       0.00000000       0.00000000       0.18459603
Na       0.00000000       0.00000000       5.11818182       0.00000000       0.00000000      -0.18459603
2
Properties=species:S:1:pos:R:3:forces:R:3 energy=-5.0760023235016005 pbc="F F F"
Na       0.00000000       0.00000000       0.00000000       0.00000000       0.00000000       0.17441213
Na       0.00000000       0.00000000       5.17696970       0.00000000       0.00000000      -0.17441213
2
Properties=species:S:1:pos:R:3:forces:R:3 energy=-5.065968826975462 pbc="F F F"
Na       0.00000000       0.00000000       0.00000000       0.00000000       0.00000000       0.16724347
Na       0.00000000       0.00000000       5.23575758       0.00000000       0.00000000      -0.16724347
2
Properties=species:S:1:pos:R:3:forces:R:3 energy=-5.056335823870822 pbc="F F F"
Na       0.00000000       0.00000000       0.00000000       0.00000000       0.00000000       0.16020183
Na       0.00000000       0.00000000       5.29454545       0.00000000       0.00000000      -0.16020183
2
Properties=species:S:1:pos:R:3:forces:R:3 energy=-5.047194404100321 pbc="F F F"
Na       0.00000000       0.00000000       0.00000000       0.00000000       0.00000000       0.15016600
Na       0.00000000       0.00000000       5.35333333       0.00000000       0.00000000      -0.15016600
2
Properties=species:S:1:pos:R:3:forces:R:3 energy=-5.0387114873560455 pbc="F F F"
Na       0.00000000       0.00000000       0.00000000       0.00000000       0.00000000       0.13888317
Na       0.00000000       0.00000000       5.41212121       0.00000000       0.00000000      -0.13888317
2
Properties=species:S:1:pos:R:3:forces:R:3 energy=-5.030707855486644 pbc="F F F"
Na       0.00000000       0.00000000       0.00000000       0.00000000       0.00000000       0.13530841
Na       0.00000000       0.00000000       5.47090909       0.00000000       0.00000000      -0.13530841
2
Properties=species:S:1:pos:R:3:forces:R:3 energy=-5.02263384172182 pbc="F F F"
Na       0.00000000       0.00000000       0.00000000       0.00000000       0.00000000       0.13945587
Na       0.00000000       0.00000000       5.52969697       0.00000000       0.00000000      -0.13945587
2
Properties=species:S:1:pos:R:3:forces:R:3 energy=-5.014480549058634 pbc="F F F"
Na       0.00000000       0.00000000       0.00000000       0.00000000       0.00000000       0.13560514
Na       0.00000000       0.00000000       5.58848485       0.00000000       0.00000000      -0.13560514
2
Properties=species:S:1:pos:R:3:forces:R:3 energy=-5.006909523042045 pbc="F F F"
Na       0.00000000       0.00000000       0.00000000       0.00000000       0.00000000       0.12157665
Na       0.00000000       0.00000000       5.64727273       0.00000000       0.00000000      -0.12157665
2
Properties=species:S:1:pos:R:3:forces:R:3 energy=-5.00003920594902 pbc="F F F"
Na       0.00000000       0.00000000       0.00000000       0.00000000       0.00000000       0.11488870
Na       0.00000000       0.00000000       5.70606061       0.00000000       0.00000000      -0.11488870
2
Properties=species:S:1:pos:R:3:forces:R:3 energy=-4.993065369658868 pbc="F F F"
Na       0.00000000       0.00000000       0.00000000       0.00000000       0.00000000       0.12290670
Na       0.00000000       0.00000000       5.76484848       0.00000000       0.00000000      -0.12290670
2
Properties=species:S:1:pos:R:3:forces:R:3 energy=-4.985869930962887 pbc="F F F"
Na       0.00000000       0.00000000       0.00000000       0.00000000       0.00000000       0.11657664
Na       0.00000000       0.00000000       5.82363636       0.00000000       0.00000000      -0.11657664
2
Properties=species:S:1:pos:R:3:forces:R:3 energy=-4.9800928609051605 pbc="F F F"
Na       0.00000000       0.00000000       0.00000000       0.00000000       0.00000000       0.07624219
Na       0.00000000       0.00000000       5.88242424       0.00000000       0.00000000      -0.07624219
2
Properties=species:S:1:pos:R:3:forces:R:3 energy=-4.977039853426671 pbc="F F F"
Na       0.00000000       0.00000000       0.00000000       0.00000000       0.00000000       0.02946973
Na       0.00000000       0.00000000       5.94121212       0.00000000       0.00000000      -0.02946973
2
Properties=species:S:1:pos:R:3:forces:R:3 energy=-4.9760662545440635 pbc="F F F"
Na       0.00000000       0.00000000       0.00000000       0.00000000       0.00000000       0.01004879
Na       0.00000000       0.00000000       6.00000000       0.00000000       0.00000000      -0.01004879
