2
Properties=species:S:1:pos:R:3:forces:R:3 energy=799.3464318752535 pbc="F F F"
Ne       0.00000000       0.00000000       0.00000000       0.00000000       0.00000000  -11240.26074219
Ne       0.00000000       0.00000000       0.18000000       0.00000000       0.00000000   11240.26074219
2
Properties=species:S:1:pos:R:3:forces:R:3 energy=374.43090453160255 pbc="F F F"
Ne       0.00000000       0.00000000       0.00000000       0.00000000       0.00000000   -4464.08837891
Ne       0.00000000       0.00000000       0.23878788       0.00000000       0.00000000    4464.08837891
2
Properties=species:S:1:pos:R:3:forces:R:3 energy=193.51620116246193 pbc="F F F"
Ne       0.00000000       0.00000000       0.00000000       0.00000000       0.00000000   -2060.10815430
Ne       0.00000000       0.00000000       0.29757576       0.00000000       0.00000000    2060.10815430
2
Properties=species:S:1:pos:R:3:forces:R:3 energy=105.9041863923501 pbc="F F F"
Ne       0.00000000       0.00000000       0.00000000       0.00000000       0.00000000   -1053.29553223
Ne       0.00000000       0.00000000       0.35636364       0.00000000       0.00000000    1053.29553223
2
Properties=species:S:1:pos:R:3:forces:R:3 energy=59.57447447888156 pbc="F F F"
Ne       0.00000000       0.00000000       0.00000000       0.00000000       0.00000000    -577.74090576
Ne       0.00000000       0.00000000       0.41515152       0.00000000       0.00000000     577.74090576
2
Properties=species:S:1:pos:R:3:forces:R:3 energy=33.56965651742301 pbc="F F F"
Ne       0.00000000       0.00000000       0.00000000       0.00000000       0.00000000    -332.31372070
Ne       0.00000000       0.00000000       0.47393939       0.00000000       0.00000000     332.31372070
2
Properties=species:S:1:pos:R:3:forces:R:3 energy=18.3764611767813 pbc="F F F"
Ne       0.00000000       0.00000000       0.00000000       0.00000000       0.00000000    -197.28945923
Ne       0.00000000       0.00000000       0.53272727       0.00000000       0.00000000     197.28945923
2
Properties=species:S:1:pos:R:3:forces:R:3 energy=9.280201109940299 pbc="F F F"
Ne       0.00000000       0.00000000       0.00000000       0.00000000       0.00000000    -118.97026062
Ne       0.00000000       0.00000000       0.59151515       0.00000000       0.00000000     118.97026062
2
Properties=species:S:1:pos:R:3:forces:R:3 energy=3.7775205764880866 pbc="F F F"
Ne       0.00000000       0.00000000       0.00000000       0.00000000       0.00000000     -72.15985107
Ne       0.00000000       0.00000000       0.65030303       0.00000000       0.00000000      72.15985107
2
Properties=species:S:1:pos:R:3:forces:R:3 energy=0.4437026279517215 pbc="F F F"
Ne       0.00000000       0.00000000       0.00000000       0.00000000       0.00000000     -43.52391052
Ne       0.00000000       0.00000000       0.70909091       0.00000000       0.00000000      43.52391052
2
Properties=species:S:1:pos:R:3:forces:R:3 energy=-1.5505505147785037 pbc="F F F"
Ne       0.00000000       0.00000000       0.00000000       0.00000000       0.00000000     -25.74111748
Ne       0.00000000       0.00000000       0.76787879       0.00000000       0.00000000      25.74111748
2
Properties=species:S:1:pos:R:3:forces:R:3 energy=-2.7155912231428525 pbc="F F F"
Ne       0.00000000       0.00000000       0.00000000       0.00000000       0.00000000     -14.77885246
Ne       0.00000000       0.00000000       0.82666667       0.00000000       0.00000000      14.77885246
2
Properties=species:S:1:pos:R:3:forces:R:3 energy=-3.3707921483306618 pbc="F F F"
Ne       0.00000000       0.00000000       0.00000000       0.00000000       0.00000000      -8.06643581
Ne       0.00000000       0.00000000       0.88545455       0.00000000       0.00000000       8.06643581
2
Properties=species:S:1:pos:R:3:forces:R:3 energy=-3.716469954829867 pbc="F F F"
Ne       0.00000000       0.00000000       0.00000000       0.00000000       0.00000000      -4.04993582
Ne       0.00000000       0.00000000       0.94424242       0.00000000       0.00000000       4.04993582
2
Properties=species:S:1:pos:R:3:forces:R:3 energy=-3.880681880417493 pbc="F F F"
Ne       0.00000000       0.00000000       0.00000000       0.00000000       0.00000000      -1.76421189
Ne       0.00000000       0.00000000       1.00303030       0.00000000       0.00000000       1.76421189
2
Properties=species:S:1:pos:R:3:forces:R:3 energy=-3.9452269503487782 pbc="F F F"
Ne       0.00000000       0.00000000       0.00000000       0.00000000       0.00000000      -0.57427090
Ne       0.00000000       0.00000000       1.06181818       0.00000000       0.00000000       0.57427090
2
Properties=species:S:1:pos:R:3:forces:R:3 energy=-3.9615117812110063 pbc="F F F"
Ne       0.00000000       0.00000000       0.00000000       0.00000000       0.00000000      -0.06848774
Ne       0.00000000       0.00000000       1.12060606       0.00000000       0.00000000       0.06848774
2
Properties=species:S:1:pos:R:3:forces:R:3 energy=-3.9613869428713007 pbc="F F F"
Ne       0.00000000       0.00000000       0.00000000       0.00000000       0.00000000       0.03119056
Ne       0.00000000       0.00000000       1.17939394       0.00000000       0.00000000      -0.03119056
2
Properties=species:S:1:pos:R:3:forces:R:3 energy=-3.95856268799933 pbc="F F F"
Ne       0.00000000       0.00000000       0.00000000       0.00000000       0.00000000       0.06669841
Ne       0.00000000       0.00000000       1.23818182       0.00000000       0.00000000      -0.06669841
2
Properties=species:S:1:pos:R:3:forces:R:3 energy=-3.9534138012959654 pbc="F F F"
Ne       0.00000000       0.00000000       0.00000000       0.00000000       0.00000000       0.10889696
Ne       0.00000000       0.00000000       1.29696970       0.00000000       0.00000000      -0.10889696
2
Properties=species:S:1:pos:R:3:forces:R:3 energy=-3.9457845853316194 pbc="F F F"
Ne       0.00000000       0.00000000       0.00000000       0.00000000       0.00000000       0.14984082
Ne       0.00000000       0.00000000       1.35575758       0.00000000       0.00000000      -0.14984082
2
Properties=species:S:1:pos:R:3:forces:R:3 energy=-3.935948970877364 pbc="F F F"
Ne       0.00000000       0.00000000       0.00000000       0.00000000       0.00000000       0.18307431
Ne       0.00000000       0.00000000       1.41454545       0.00000000       0.00000000      -0.18307431
2
Properties=species:S:1:pos:R:3:forces:R:3 energy=-3.9244848711056965 pbc="F F F"
Ne       0.00000000       0.00000000       0.00000000       0.00000000       0.00000000       0.20492606
Ne       0.00000000       0.00000000       1.47333333       0.00000000       0.00000000      -0.20492606
2
Properties=species:S:1:pos:R:3:forces:R:3 energy=-3.912085114964354 pbc="F F F"
Ne       0.00000000       0.00000000       0.00000000       0.00000000       0.00000000       0.21509604
Ne       0.00000000       0.00000000       1.53212121       0.00000000       0.00000000      -0.21509604
2
Properties=species:S:1:pos:R:3:forces:R:3 energy=-3.899386024019947 pbc="F F F"
Ne       0.00000000       0.00000000       0.00000000       0.00000000       0.00000000       0.21553415
Ne       0.00000000       0.00000000       1.59090909       0.00000000       0.00000000      -0.21553415
2
Properties=species:S:1:pos:R:3:forces:R:3 energy=-3.8868830128749274 pbc="F F F"
Ne       0.00000000       0.00000000       0.00000000       0.00000000       0.00000000       0.20884469
Ne       0.00000000       0.00000000       1.64969697       0.00000000       0.00000000      -0.20884469
2
Properties=species:S:1:pos:R:3:forces:R:3 energy=-3.874923912457427 pbc="F F F"
Ne       0.00000000       0.00000000       0.00000000       0.00000000       0.00000000       0.19739494
Ne       0.00000000       0.00000000       1.70848485       0.00000000       0.00000000      -0.19739494
2
Properties=species:S:1:pos:R:3:forces:R:3 energy=-3.863730189274798 pbc="F F F"
Ne       0.00000000       0.00000000       0.00000000       0.00000000       0.00000000       0.18307506
Ne       0.00000000       0.00000000       1.76727273       0.00000000       0.00000000      -0.18307506
2
Properties=species:S:1:pos:R:3:forces:R:3 energy=-3.853425794853641 pbc="F F F"
Ne       0.00000000       0.00000000       0.00000000       0.00000000       0.00000000       0.16734877
Ne       0.00000000       0.00000000       1.82606061       0.00000000       0.00000000      -0.16734877
2
Properties=species:S:1:pos:R:3:forces:R:3 energy=-3.8440590987641636 pbc="F F F"
Ne       0.00000000       0.00000000       0.00000000       0.00000000       0.00000000       0.15135153
Ne       0.00000000       0.00000000       1.88484848       0.00000000       0.00000000      -0.15135153
2
Properties=species:S:1:pos:R:3:forces:R:3 energy=-3.8356195791086534 pbc="F F F"
Ne       0.00000000       0.00000000       0.00000000       0.00000000       0.00000000       0.13591267
Ne       0.00000000       0.00000000       1.94363636       0.00000000       0.00000000      -0.13591267
2
Properties=species:S:1:pos:R:3:forces:R:3 energy=-3.8280578485931818 pbc="F F F"
Ne       0.00000000       0.00000000       0.00000000       0.00000000       0.00000000       0.12153907
Ne       0.00000000       0.00000000       2.00242424       0.00000000       0.00000000      -0.12153907
2
Properties=species:S:1:pos:R:3:forces:R:3 energy=-3.8213044906842915 pbc="F F F"
Ne       0.00000000       0.00000000       0.00000000       0.00000000       0.00000000       0.10844132
Ne       0.00000000       0.00000000       2.06121212       0.00000000       0.00000000      -0.10844132
2
Properties=species:S:1:pos:R:3:forces:R:3 energy=-3.815282456484162 pbc="F F F"
Ne       0.00000000       0.00000000       0.00000000       0.00000000       0.00000000       0.09663491
Ne       0.00000000       0.00000000       2.12000000       0.00000000       0.00000000      -0.09663491
2
Properties=species:S:1:pos:R:3:forces:R:3 energy=-3.8099182707998027 pbc="F F F"
Ne       0.00000000       0.00000000       0.00000000       0.00000000       0.00000000       0.08605403
Ne       0.00000000       0.00000000       2.17878788       0.00000000       0.00000000      -0.08605403
2
Properties=species:S:1:pos:R:3:forces:R:3 energy=-3.805142270759623 pbc="F F F"
Ne       0.00000000       0.00000000       0.00000000       0.00000000       0.00000000       0.07661911
Ne       0.00000000       0.00000000       2.23757576       0.00000000       0.00000000      -0.07661911
2
Properties=species:S:1:pos:R:3:forces:R:3 energy=-3.8008888450239655 pbc="F F F"
Ne       0.00000000       0.00000000       0.00000000       0.00000000       0.00000000       0.06825472
Ne       0.00000000       0.00000000       2.29636364       0.00000000       0.00000000      -0.06825472
2
Properties=species:S:1:pos:R:3:forces:R:3 energy=-3.7970976248880572 pbc="F F F"
Ne       0.00000000       0.00000000       0.00000000       0.00000000       0.00000000       0.06088399
Ne       0.00000000       0.00000000       2.35515152       0.00000000       0.00000000      -0.06088399
2
Properties=species:S:1:pos:R:3:forces:R:3 energy=-3.793712532191605 pbc="F F F"
Ne       0.00000000       0.00000000       0.00000000       0.00000000       0.00000000       0.05442200
Ne       0.00000000       0.00000000       2.41393939       0.00000000       0.00000000      -0.05442200
2
Properties=species:S:1:pos:R:3:forces:R:3 energy=-3.7906829714116905 pbc="F F F"
Ne       0.00000000       0.00000000       0.00000000       0.00000000       0.00000000       0.04877513
Ne       0.00000000       0.00000000       2.47272727       0.00000000       0.00000000      -0.04877513
2
Properties=species:S:1:pos:R:3:forces:R:3 energy=-3.7879638305537204 pbc="F F F"
Ne       0.00000000       0.00000000       0.00000000       0.00000000       0.00000000       0.04384566
Ne       0.00000000       0.00000000       2.53151515       0.00000000       0.00000000      -0.04384566
2
Properties=species:S:1:pos:R:3:forces:R:3 energy=-3.785515719866989 pbc="F F F"
Ne       0.00000000       0.00000000       0.00000000       0.00000000       0.00000000       0.03953904
Ne       0.00000000       0.00000000       2.59030303       0.00000000       0.00000000      -0.03953904
2
Properties=species:S:1:pos:R:3:forces:R:3 energy=-3.783304496096457 pbc="F F F"
Ne       0.00000000       0.00000000       0.00000000       0.00000000       0.00000000       0.03576883
Ne       0.00000000       0.00000000       2.64909091       0.00000000       0.00000000      -0.03576883
2
Properties=species:S:1:pos:R:3:forces:R:3 energy=-3.781301024955126 pbc="F F F"
Ne       0.00000000       0.00000000       0.00000000       0.00000000       0.00000000       0.03245984
Ne       0.00000000       0.00000000       2.70787879       0.00000000       0.00000000      -0.03245984
2
Properties=species:S:1:pos:R:3:forces:R:3 energy=-3.7794802284396636 pbc="F F F"
Ne       0.00000000       0.00000000       0.00000000       0.00000000       0.00000000       0.02954908
Ne       0.00000000       0.00000000       2.76666667       0.00000000       0.00000000      -0.02954908
2
Properties=species:S:1:pos:R:3:forces:R:3 energy=-3.777819893826447 pbc="F F F"
Ne       0.00000000       0.00000000       0.00000000       0.00000000       0.00000000       0.02698465
Ne       0.00000000       0.00000000       2.82545455       0.00000000       0.00000000      -0.02698465
2
Properties=species:S:1:pos:R:3:forces:R:3 energy=-3.7763013903132245 pbc="F F F"
Ne       0.00000000       0.00000000       0.00000000       0.00000000       0.00000000       0.02472446
Ne       0.00000000       0.00000000       2.88424242       0.00000000       0.00000000      -0.02472446
2
Properties=species:S:1:pos:R:3:forces:R:3 energy=-3.774907762462435 pbc="F F F"
Ne       0.00000000       0.00000000       0.00000000       0.00000000       0.00000000       0.02273344
Ne       0.00000000       0.00000000       2.94303030       0.00000000       0.00000000      -0.02273344
2
Properties=species:S:1:pos:R:3:forces:R:3 energy=-3.773623731686129 pbc="F F F"
Ne       0.00000000       0.00000000       0.00000000       0.00000000       0.00000000       0.02098238
Ne       0.00000000       0.00000000       3.00181818       0.00000000       0.00000000      -0.02098238
2
Properties=species:S:1:pos:R:3:forces:R:3 energy=-3.7724364128876235 pbc="F F F"
Ne       0.00000000       0.00000000       0.00000000       0.00000000       0.00000000       0.01944535
Ne       0.00000000       0.00000000       3.06060606       0.00000000       0.00000000      -0.01944535
2
Properties=species:S:1:pos:R:3:forces:R:3 energy=-3.7713338845439965 pbc="F F F"
Ne       0.00000000       0.00000000       0.00000000       0.00000000       0.00000000       0.01809929
Ne       0.00000000       0.00000000       3.11939394       0.00000000       0.00000000      -0.01809929
2
Properties=species:S:1:pos:R:3:forces:R:3 energy=-3.7703051900920097 pbc="F F F"
Ne       0.00000000       0.00000000       0.00000000       0.00000000       0.00000000       0.01692302
Ne       0.00000000       0.00000000       3.17818182       0.00000000       0.00000000      -0.01692302
2
Properties=species:S:1:pos:R:3:forces:R:3 energy=-3.7693410540747934 pbc="F F F"
Ne       0.00000000       0.00000000       0.00000000       0.00000000       0.00000000       0.01589712
Ne       0.00000000       0.00000000       3.23696970       0.00000000       0.00000000      -0.01589712
2
Properties=species:S:1:pos:R:3:forces:R:3 energy=-3.768433405205697 pbc="F F F"
Ne       0.00000000       0.00000000       0.00000000       0.00000000       0.00000000       0.01500402
Ne       0.00000000       0.00000000       3.29575758       0.00000000       0.00000000      -0.01500402
2
Properties=species:S:1:pos:R:3:forces:R:3 energy=-3.767574662102493 pbc="F F F"
Ne       0.00000000       0.00000000       0.00000000       0.00000000       0.00000000       0.01422839
Ne       0.00000000       0.00000000       3.35454545       0.00000000       0.00000000      -0.01422839
2
Properties=species:S:1:pos:R:3:forces:R:3 energy=-3.766758448345128 pbc="F F F"
Ne       0.00000000       0.00000000       0.00000000       0.00000000       0.00000000       0.01355802
Ne       0.00000000       0.00000000       3.41333333       0.00000000       0.00000000      -0.01355802
2
Properties=species:S:1:pos:R:3:forces:R:3 energy=-3.7659786380094493 pbc="F F F"
Ne       0.00000000       0.00000000       0.00000000       0.00000000       0.00000000       0.01298441
Ne       0.00000000       0.00000000       3.47212121       0.00000000       0.00000000      -0.01298441
2
Properties=species:S:1:pos:R:3:forces:R:3 energy=-3.765230070576462 pbc="F F F"
Ne       0.00000000       0.00000000       0.00000000       0.00000000       0.00000000       0.01250347
Ne       0.00000000       0.00000000       3.53090909       0.00000000       0.00000000      -0.01250347
2
Properties=species:S:1:pos:R:3:forces:R:3 energy=-3.764506880517358 pbc="F F F"
Ne       0.00000000       0.00000000       0.00000000       0.00000000       0.00000000       0.01211522
Ne       0.00000000       0.00000000       3.58969697       0.00000000       0.00000000      -0.01211522
2
Properties=species:S:1:pos:R:3:forces:R:3 energy=-3.763803687851999 pbc="F F F"
Ne       0.00000000       0.00000000       0.00000000       0.00000000       0.00000000       0.01182319
Ne       0.00000000       0.00000000       3.64848485       0.00000000       0.00000000      -0.01182319
2
Properties=species:S:1:pos:R:3:forces:R:3 energy=-3.7631146428411912 pbc="F F F"
Ne       0.00000000       0.00000000       0.00000000       0.00000000       0.00000000       0.01163199
Ne       0.00000000       0.00000000       3.70727273       0.00000000       0.00000000      -0.01163199
2
Properties=species:S:1:pos:R:3:forces:R:3 energy=-3.7624339005469714 pbc="F F F"
Ne       0.00000000       0.00000000       0.00000000       0.00000000       0.00000000       0.01154403
Ne       0.00000000       0.00000000       3.76606061       0.00000000       0.00000000      -0.01154403
2
Properties=species:S:1:pos:R:3:forces:R:3 energy=-3.7617553797906735 pbc="F F F"
Ne       0.00000000       0.00000000       0.00000000       0.00000000       0.00000000       0.01155548
Ne       0.00000000       0.00000000       3.82484848       0.00000000       0.00000000      -0.01155548
2
Properties=species:S:1:pos:R:3:forces:R:3 energy=-3.761073715045349 pbc="F F F"
Ne       0.00000000       0.00000000       0.00000000       0.00000000       0.00000000       0.01165245
Ne       0.00000000       0.00000000       3.88363636       0.00000000       0.00000000      -0.01165245
2
Properties=species:S:1:pos:R:3:forces:R:3 energy=-3.760384254010398 pbc="F F F"
Ne       0.00000000       0.00000000       0.00000000       0.00000000       0.00000000       0.01180882
Ne       0.00000000       0.00000000       3.94242424       0.00000000       0.00000000      -0.01180882
2
Properties=species:S:1:pos:R:3:forces:R:3 energy=-3.759684723819281 pbc="F F F"
Ne       0.00000000       0.00000000       0.00000000       0.00000000       0.00000000       0.01198685
Ne       0.00000000       0.00000000       4.00121212       0.00000000       0.00000000      -0.01198685
2
Properties=species:S:1:pos:R:3:forces:R:3 energy=-3.758975230000072 pbc="F F F"
Ne       0.00000000       0.00000000       0.00000000       0.00000000       0.00000000       0.01214036
Ne       0.00000000       0.00000000       4.06000000       0.00000000       0.00000000      -0.01214036
2
Properties=species:S:1:pos:R:3:forces:R:3 energy=-3.7582587304912796 pbc="F F F"
Ne       0.00000000       0.00000000       0.00000000       0.00000000       0.00000000       0.01222157
Ne       0.00000000       0.00000000       4.11878788       0.00000000       0.00000000      -0.01222157
2
Properties=species:S:1:pos:R:3:forces:R:3 energy=-3.7575405586066974 pbc="F F F"
Ne       0.00000000       0.00000000       0.00000000       0.00000000       0.00000000       0.01218857
Ne       0.00000000       0.00000000       4.17757576       0.00000000       0.00000000      -0.01218857
2
Properties=species:S:1:pos:R:3:forces:R:3 energy=-3.756828421550489 pbc="F F F"
Ne       0.00000000       0.00000000       0.00000000       0.00000000       0.00000000       0.01201301
Ne       0.00000000       0.00000000       4.23636364       0.00000000       0.00000000      -0.01201301
2
Properties=species:S:1:pos:R:3:forces:R:3 energy=-3.7561312077303226 pbc="F F F"
Ne       0.00000000       0.00000000       0.00000000       0.00000000       0.00000000       0.01168454
Ne       0.00000000       0.00000000       4.29515152       0.00000000       0.00000000      -0.01168454
2
Properties=species:S:1:pos:R:3:forces:R:3 energy=-3.7554575565923813 pbc="F F F"
Ne       0.00000000       0.00000000       0.00000000       0.00000000       0.00000000       0.01121181
Ne       0.00000000       0.00000000       4.35393939       0.00000000       0.00000000      -0.01121181
2
Properties=species:S:1:pos:R:3:forces:R:3 energy=-3.754815380794258 pbc="F F F"
Ne       0.00000000       0.00000000       0.00000000       0.00000000       0.00000000       0.01061851
Ne       0.00000000       0.00000000       4.41272727       0.00000000       0.00000000      -0.01061851
2
Properties=species:S:1:pos:R:3:forces:R:3 energy=-3.7542106756959712 pbc="F F F"
Ne       0.00000000       0.00000000       0.00000000       0.00000000       0.00000000       0.00993718
Ne       0.00000000       0.00000000       4.47151515       0.00000000       0.00000000      -0.00993718
2
Properties=species:S:1:pos:R:3:forces:R:3 energy=-3.7536479961476252 pbc="F F F"
Ne       0.00000000       0.00000000       0.00000000       0.00000000       0.00000000       0.00920086
Ne       0.00000000       0.00000000       4.53030303       0.00000000       0.00000000      -0.00920086
2
Properties=species:S:1:pos:R:3:forces:R:3 energy=-3.7531295033100687 pbc="F F F"
Ne       0.00000000       0.00000000       0.00000000       0.00000000       0.00000000       0.00843568
Ne       0.00000000       0.00000000       4.58909091       0.00000000       0.00000000      -0.00843568
2
Properties=species:S:1:pos:R:3:forces:R:3 energy=-3.7526563971957514 pbc="F F F"
Ne       0.00000000       0.00000000       0.00000000       0.00000000       0.00000000       0.00765620
Ne       0.00000000       0.00000000       4.64787879       0.00000000       0.00000000      -0.00765620
2
Properties=species:S:1:pos:R:3:forces:R:3 energy=-3.7522296313057506 pbc="F F F"
Ne       0.00000000       0.00000000       0.00000000       0.00000000       0.00000000       0.00686369
Ne       0.00000000       0.00000000       4.70666667       0.00000000       0.00000000      -0.00686369
2
Properties=species:S:1:pos:R:3:forces:R:3 energy=-3.7518499146839015 pbc="F F F"
Ne       0.00000000       0.00000000       0.00000000       0.00000000       0.00000000       0.00604940
Ne       0.00000000       0.00000000       4.76545455       0.00000000       0.00000000      -0.00604940
2
Properties=species:S:1:pos:R:3:forces:R:3 energy=-3.7515189045046684 pbc="F F F"
Ne       0.00000000       0.00000000       0.00000000       0.00000000       0.00000000       0.00520111
Ne       0.00000000       0.00000000       4.82424242       0.00000000       0.00000000      -0.00520111
2
Properties=species:S:1:pos:R:3:forces:R:3 energy=-3.751239207434316 pbc="F F F"
Ne       0.00000000       0.00000000       0.00000000       0.00000000       0.00000000       0.00431232
Ne       0.00000000       0.00000000       4.88303030       0.00000000       0.00000000      -0.00431232
2
Properties=species:S:1:pos:R:3:forces:R:3 energy=-3.7510127106513593 pbc="F F F"
Ne       0.00000000       0.00000000       0.00000000       0.00000000       0.00000000       0.00338909
Ne       0.00000000       0.00000000       4.94181818       0.00000000       0.00000000      -0.00338909
2
Properties=species:S:1:pos:R:3:forces:R:3 energy=-3.7508408215768196 pbc="F F F"
Ne       0.00000000       0.00000000       0.00000000       0.00000000       0.00000000       0.00245435
Ne       0.00000000       0.00000000       5.00060606       0.00000000       0.00000000      -0.00245435
2
Properties=species:S:1:pos:R:3:forces:R:3 energy=-3.750723753732174 pbc="F F F"
Ne       0.00000000       0.00000000       0.00000000       0.00000000       0.00000000       0.00154261
Ne       0.00000000       0.00000000       5.05939394       0.00000000       0.00000000      -0.00154261
2
Properties=species:S:1:pos:R:3:forces:R:3 energy=-3.7506583807741536 pbc="F F F"
Ne       0.00000000       0.00000000       0.00000000       0.00000000       0.00000000       0.00069001
Ne       0.00000000       0.00000000       5.11818182       0.00000000       0.00000000      -0.00069001
2
Properties=species:S:1:pos:R:3:forces:R:3 energy=-3.750640859928195 pbc="F F F"
Ne       0.00000000       0.00000000       0.00000000       0.00000000       0.00000000      -0.00008060
Ne       0.00000000       0.00000000       5.17696970       0.00000000       0.00000000       0.00008060
2
Properties=species:S:1:pos:R:3:forces:R:3 energy=-3.750666156029855 pbc="F F F"
Ne       0.00000000       0.00000000       0.00000000       0.00000000       0.00000000      -0.00076914
Ne       0.00000000       0.00000000       5.23575758       0.00000000       0.00000000       0.00076914
2
Properties=species:S:1:pos:R:3:forces:R:3 energy=-3.7507301868836715 pbc="F F F"
Ne       0.00000000       0.00000000       0.00000000       0.00000000       0.00000000      -0.00139765
Ne       0.00000000       0.00000000       5.29454545       0.00000000       0.00000000       0.00139765
2
Properties=species:S:1:pos:R:3:forces:R:3 energy=-3.750829824389225 pbc="F F F"
Ne       0.00000000       0.00000000       0.00000000       0.00000000       0.00000000      -0.00198763
Ne       0.00000000       0.00000000       5.35333333       0.00000000       0.00000000       0.00198763
2
Properties=species:S:1:pos:R:3:forces:R:3 energy=-3.7509626559616938 pbc="F F F"
Ne       0.00000000       0.00000000       0.00000000       0.00000000       0.00000000      -0.00250846
Ne       0.00000000       0.00000000       5.41212121       0.00000000       0.00000000       0.00250846
2
Properties=species:S:1:pos:R:3:forces:R:3 energy=-3.7511210241911193 pbc="F F F"
Ne       0.00000000       0.00000000       0.00000000       0.00000000       0.00000000      -0.00283113
Ne       0.00000000       0.00000000       5.47090909       0.00000000       0.00000000       0.00283113
2
Properties=species:S:1:pos:R:3:forces:R:3 energy=-3.7512889277844823 pbc="F F F"
Ne       0.00000000       0.00000000       0.00000000       0.00000000       0.00000000      -0.00282818
Ne       0.00000000       0.00000000       5.52969697       0.00000000       0.00000000       0.00282818
2
Properties=species:S:1:pos:R:3:forces:R:3 energy=-3.7514479822776643 pbc="F F F"
Ne       0.00000000       0.00000000       0.00000000       0.00000000       0.00000000      -0.00254949
Ne       0.00000000       0.00000000       5.58848485       0.00000000       0.00000000       0.00254949
2
Properties=species:S:1:pos:R:3:forces:R:3 energy=-3.751585526056776 pbc="F F F"
Ne       0.00000000       0.00000000       0.00000000       0.00000000       0.00000000      -0.00211203
Ne       0.00000000       0.00000000       5.64727273       0.00000000       0.00000000       0.00211203
2
Properties=species:S:1:pos:R:3:forces:R:3 energy=-3.7516943820509447 pbc="F F F"
Ne       0.00000000       0.00000000       0.00000000       0.00000000       0.00000000      -0.00157610
Ne       0.00000000       0.00000000       5.70606061       0.00000000       0.00000000       0.00157610
2
Properties=species:S:1:pos:R:3:forces:R:3 energy=-3.7517695202063166 pbc="F F F"
Ne       0.00000000       0.00000000       0.00000000       0.00000000       0.00000000      -0.00096633
Ne       0.00000000       0.00000000       5.76484848       0.00000000       0.00000000       0.00096633
2
Properties=species:S:1:pos:R:3:forces:R:3 energy=-3.7518094878057253 pbc="F F F"
Ne       0.00000000       0.00000000       0.00000000       0.00000000       0.00000000      -0.00042895
Ne       0.00000000       0.00000000       5.82363636       0.00000000       0.00000000       0.00042895
2
Properties=species:S:1:pos:R:3:forces:R:3 energy=-3.751824277139501 pbc="F F F"
Ne       0.00000000       0.00000000       0.00000000       0.00000000       0.00000000      -0.00010761
Ne       0.00000000       0.00000000       5.88242424       0.00000000       0.00000000       0.00010761
2
Properties=species:S:1:pos:R:3:forces:R:3 energy=-3.7518255507273306 pbc="F F F"
Ne       0.00000000       0.00000000       0.00000000       0.00000000       0.00000000       0.00003680
Ne       0.00000000       0.00000000       5.94121212       0.00000000       0.00000000      -0.00003680
2
Properties=species:S:1:pos:R:3:forces:R:3 energy=-3.7518218725940042 pbc="F F F"
Ne       0.00000000       0.00000000       0.00000000       0.00000000       0.00000000       0.00007640
Ne       0.00000000       0.00000000       6.00000000       0.00000000       0.00000000      -0.00007640
