2
Properties=species:S:1:pos:R:3:forces:R:3 energy=76131.12958990263 pbc="F F F"
Pb       0.00000000       0.00000000       0.00000000       0.00000000       0.00000000 -314138.71875000
Pb       0.00000000       0.00000000       0.18000000       0.00000000       0.00000000  314138.71875000
2
Properties=species:S:1:pos:R:3:forces:R:3 energy=64365.39521490264 pbc="F F F"
Pb       0.00000000       0.00000000       0.00000000       0.00000000       0.00000000 -131895.95312500
Pb       0.00000000       0.00000000       0.23878788       0.00000000       0.00000000  131895.95312500
2
Properties=species:S:1:pos:R:3:forces:R:3 energy=57703.47724615264 pbc="F F F"
Pb       0.00000000       0.00000000       0.00000000       0.00000000       0.00000000 -108564.29687500
Pb       0.00000000       0.00000000       0.29757576       0.00000000       0.00000000  108564.29687500
2
Properties=species:S:1:pos:R:3:forces:R:3 energy=50529.37568365264 pbc="F F F"
Pb       0.00000000       0.00000000       0.00000000       0.00000000       0.00000000 -141530.40625000
Pb       0.00000000       0.00000000       0.35636364       0.00000000       0.00000000  141530.40625000
2
Properties=species:S:1:pos:R:3:forces:R:3 energy=40517.25458990343 pbc="F F F"
Pb       0.00000000       0.00000000       0.00000000       0.00000000       0.00000000 -203178.78125000
Pb       0.00000000       0.00000000       0.41515152       0.00000000       0.00000000  203178.78125000
2
Properties=species:S:1:pos:R:3:forces:R:3 energy=26830.38349615422 pbc="F F F"
Pb       0.00000000       0.00000000       0.00000000       0.00000000       0.00000000 -261988.70312500
Pb       0.00000000       0.00000000       0.47393939       0.00000000       0.00000000  261988.70312500
2
Properties=species:S:1:pos:R:3:forces:R:3 energy=11186.949902405011 pbc="F F F"
Pb       0.00000000       0.00000000       0.00000000       0.00000000       0.00000000 -258537.54687500
Pb       0.00000000       0.00000000       0.53272727       0.00000000       0.00000000  258537.54687500
2
Properties=species:S:1:pos:R:3:forces:R:3 energy=-1210.3690673191759 pbc="F F F"
Pb       0.00000000       0.00000000       0.00000000       0.00000000       0.00000000 -102911.96875000
Pb       0.00000000       0.00000000       0.59151515       0.00000000       0.00000000  102911.96875000
2
Properties=species:S:1:pos:R:3:forces:R:3 energy=-1246.4358397769454 pbc="F F F"
Pb       0.00000000       0.00000000       0.00000000       0.00000000       0.00000000    4629.53417969
Pb       0.00000000       0.00000000       0.65030303       0.00000000       0.00000000   -4629.53417969
2
Properties=species:S:1:pos:R:3:forces:R:3 energy=-976.21226799485 pbc="F F F"
Pb       0.00000000       0.00000000       0.00000000       0.00000000       0.00000000    5194.19726562
Pb       0.00000000       0.00000000       0.70909091       0.00000000       0.00000000   -5194.19726562
2
Properties=species:S:1:pos:R:3:forces:R:3 energy=-361.8806029494518 pbc="F F F"
Pb       0.00000000       0.00000000       0.00000000       0.00000000       0.00000000   15469.57714844
Pb       0.00000000       0.00000000       0.76787879       0.00000000       0.00000000  -15469.57714844
2
Properties=species:S:1:pos:R:3:forces:R:3 energy=-526.2012816493019 pbc="F F F"
Pb       0.00000000       0.00000000       0.00000000       0.00000000       0.00000000     153.44808960
Pb       0.00000000       0.00000000       0.82666667       0.00000000       0.00000000    -153.44808960
2
Properties=species:S:1:pos:R:3:forces:R:3 energy=-360.5668822194003 pbc="F F F"
Pb       0.00000000       0.00000000       0.00000000       0.00000000       0.00000000    4242.63427734
Pb       0.00000000       0.00000000       0.88545455       0.00000000       0.00000000   -4242.63427734
2
Properties=species:S:1:pos:R:3:forces:R:3 energy=-120.50009447908293 pbc="F F F"
Pb       0.00000000       0.00000000       0.00000000       0.00000000       0.00000000    3725.55493164
Pb       0.00000000       0.00000000       0.94424242       0.00000000       0.00000000   -3725.55493164
2
Properties=species:S:1:pos:R:3:forces:R:3 energy=65.39329239103974 pbc="F F F"
Pb       0.00000000       0.00000000       0.00000000       0.00000000       0.00000000    2517.86547852
Pb       0.00000000       0.00000000       1.00303030       0.00000000       0.00000000   -2517.86547852
2
Properties=species:S:1:pos:R:3:forces:R:3 energy=166.5502290761453 pbc="F F F"
Pb       0.00000000       0.00000000       0.00000000       0.00000000       0.00000000     869.77673340
Pb       0.00000000       0.00000000       1.06181818       0.00000000       0.00000000    -869.77673340
2
Properties=species:S:1:pos:R:3:forces:R:3 energy=185.42837243896125 pbc="F F F"
Pb       0.00000000       0.00000000       0.00000000       0.00000000       0.00000000    -197.54618835
Pb       0.00000000       0.00000000       1.12060606       0.00000000       0.00000000     197.54618835
2
Properties=species:S:1:pos:R:3:forces:R:3 energy=145.6733523646759 pbc="F F F"
Pb       0.00000000       0.00000000       0.00000000       0.00000000       0.00000000   -1008.11138916
Pb       0.00000000       0.00000000       1.17939394       0.00000000       0.00000000    1008.11138916
2
Properties=species:S:1:pos:R:3:forces:R:3 energy=83.95802042054103 pbc="F F F"
Pb       0.00000000       0.00000000       0.00000000       0.00000000       0.00000000   -1027.95092773
Pb       0.00000000       0.00000000       1.23818182       0.00000000       0.00000000    1027.95092773
2
Properties=species:S:1:pos:R:3:forces:R:3 energy=27.535504662274178 pbc="F F F"
Pb       0.00000000       0.00000000       0.00000000       0.00000000       0.00000000    -883.09887695
Pb       0.00000000       0.00000000       1.29696970       0.00000000       0.00000000     883.09887695
2
Properties=species:S:1:pos:R:3:forces:R:3 energy=-17.132639424415867 pbc="F F F"
Pb       0.00000000       0.00000000       0.00000000       0.00000000       0.00000000    -655.68664551
Pb       0.00000000       0.00000000       1.35575758       0.00000000       0.00000000     655.68664551
2
Properties=species:S:1:pos:R:3:forces:R:3 energy=-50.40616067352549 pbc="F F F"
Pb       0.00000000       0.00000000       0.00000000       0.00000000       0.00000000    -367.06234741
Pb       0.00000000       0.00000000       1.41454545       0.00000000       0.00000000     367.06234741
2
Properties=species:S:1:pos:R:3:forces:R:3 energy=-67.1160298412953 pbc="F F F"
Pb       0.00000000       0.00000000       0.00000000       0.00000000       0.00000000    -208.26962280
Pb       0.00000000       0.00000000       1.47333333       0.00000000       0.00000000     208.26962280
2
Properties=species:S:1:pos:R:3:forces:R:3 energy=-76.65836508703606 pbc="F F F"
Pb       0.00000000       0.00000000       0.00000000       0.00000000       0.00000000    -127.82882690
Pb       0.00000000       0.00000000       1.53212121       0.00000000       0.00000000     127.82882690
2
Properties=species:S:1:pos:R:3:forces:R:3 energy=-83.13610219225993 pbc="F F F"
Pb       0.00000000       0.00000000       0.00000000       0.00000000       0.00000000     -96.82462311
Pb       0.00000000       0.00000000       1.59090909       0.00000000       0.00000000      96.82462311
2
Properties=species:S:1:pos:R:3:forces:R:3 energy=-87.78942211432584 pbc="F F F"
Pb       0.00000000       0.00000000       0.00000000       0.00000000       0.00000000     -60.02917480
Pb       0.00000000       0.00000000       1.64969697       0.00000000       0.00000000      60.02917480
2
Properties=species:S:1:pos:R:3:forces:R:3 energy=-90.62553462235434 pbc="F F F"
Pb       0.00000000       0.00000000       0.00000000       0.00000000       0.00000000     -42.06272507
Pb       0.00000000       0.00000000       1.70848485       0.00000000       0.00000000      42.06272507
2
Properties=species:S:1:pos:R:3:forces:R:3 energy=-93.14537811920147 pbc="F F F"
Pb       0.00000000       0.00000000       0.00000000       0.00000000       0.00000000     -44.66917801
Pb       0.00000000       0.00000000       1.76727273       0.00000000       0.00000000      44.66917801
2
Properties=species:S:1:pos:R:3:forces:R:3 energy=-95.83476191757586 pbc="F F F"
Pb       0.00000000       0.00000000       0.00000000       0.00000000       0.00000000     -45.90766144
Pb       0.00000000       0.00000000       1.82606061       0.00000000       0.00000000      45.90766144
2
Properties=species:S:1:pos:R:3:forces:R:3 energy=-98.44628762596551 pbc="F F F"
Pb       0.00000000       0.00000000       0.00000000       0.00000000       0.00000000     -42.34096909
Pb       0.00000000       0.00000000       1.88484848       0.00000000       0.00000000      42.34096909
2
Properties=species:S:1:pos:R:3:forces:R:3 energy=-100.76979592202177 pbc="F F F"
Pb       0.00000000       0.00000000       0.00000000       0.00000000       0.00000000     -36.52374268
Pb       0.00000000       0.00000000       1.94363636       0.00000000       0.00000000      36.52374268
2
Properties=species:S:1:pos:R:3:forces:R:3 energy=-102.73315086698842 pbc="F F F"
Pb       0.00000000       0.00000000       0.00000000       0.00000000       0.00000000     -30.29061699
Pb       0.00000000       0.00000000       2.00242424       0.00000000       0.00000000      30.29061699
2
Properties=species:S:1:pos:R:3:forces:R:3 energy=-104.33901509659016 pbc="F F F"
Pb       0.00000000       0.00000000       0.00000000       0.00000000       0.00000000     -24.43828011
Pb       0.00000000       0.00000000       2.06121212       0.00000000       0.00000000      24.43828011
2
Properties=species:S:1:pos:R:3:forces:R:3 energy=-105.61958463832585 pbc="F F F"
Pb       0.00000000       0.00000000       0.00000000       0.00000000       0.00000000     -19.24814034
Pb       0.00000000       0.00000000       2.12000000       0.00000000       0.00000000      19.24814034
2
Properties=species:S:1:pos:R:3:forces:R:3 energy=-106.61666855126002 pbc="F F F"
Pb       0.00000000       0.00000000       0.00000000       0.00000000       0.00000000     -14.79787922
Pb       0.00000000       0.00000000       2.17878788       0.00000000       0.00000000      14.79787922
2
Properties=species:S:1:pos:R:3:forces:R:3 energy=-107.37405191714427 pbc="F F F"
Pb       0.00000000       0.00000000       0.00000000       0.00000000       0.00000000     -11.09097099
Pb       0.00000000       0.00000000       2.23757576       0.00000000       0.00000000      11.09097099
2
Properties=species:S:1:pos:R:3:forces:R:3 energy=-107.93471109319837 pbc="F F F"
Pb       0.00000000       0.00000000       0.00000000       0.00000000       0.00000000      -8.09867954
Pb       0.00000000       0.00000000       2.29636364       0.00000000       0.00000000       8.09867954
2
Properties=species:S:1:pos:R:3:forces:R:3 energy=-108.33922682418233 pbc="F F F"
Pb       0.00000000       0.00000000       0.00000000       0.00000000       0.00000000      -5.76767254
Pb       0.00000000       0.00000000       2.35515152       0.00000000       0.00000000       5.76767254
2
Properties=species:S:1:pos:R:3:forces:R:3 energy=-108.62428887314864 pbc="F F F"
Pb       0.00000000       0.00000000       0.00000000       0.00000000       0.00000000      -4.01940012
Pb       0.00000000       0.00000000       2.41393939       0.00000000       0.00000000       4.01940012
2
Properties=species:S:1:pos:R:3:forces:R:3 energy=-108.8212845882058 pbc="F F F"
Pb       0.00000000       0.00000000       0.00000000       0.00000000       0.00000000      -2.75414705
Pb       0.00000000       0.00000000       2.47272727       0.00000000       0.00000000       2.75414705
2
Properties=species:S:1:pos:R:3:forces:R:3 energy=-108.95546731356154 pbc="F F F"
Pb       0.00000000       0.00000000       0.00000000       0.00000000       0.00000000      -1.86492980
Pb       0.00000000       0.00000000       2.53151515       0.00000000       0.00000000       1.86492980
2
Properties=species:S:1:pos:R:3:forces:R:3 energy=-109.04602505644947 pbc="F F F"
Pb       0.00000000       0.00000000       0.00000000       0.00000000       0.00000000      -1.25559187
Pb       0.00000000       0.00000000       2.59030303       0.00000000       0.00000000       1.25559187
2
Properties=species:S:1:pos:R:3:forces:R:3 energy=-109.10704181222279 pbc="F F F"
Pb       0.00000000       0.00000000       0.00000000       0.00000000       0.00000000      -0.84801143
Pb       0.00000000       0.00000000       2.64909091       0.00000000       0.00000000       0.84801143
2
Properties=species:S:1:pos:R:3:forces:R:3 energy=-109.14836731929068 pbc="F F F"
Pb       0.00000000       0.00000000       0.00000000       0.00000000       0.00000000      -0.57486945
Pb       0.00000000       0.00000000       2.70787879       0.00000000       0.00000000       0.57486945
2
Properties=species:S:1:pos:R:3:forces:R:3 energy=-109.17599091766529 pbc="F F F"
Pb       0.00000000       0.00000000       0.00000000       0.00000000       0.00000000      -0.37139851
Pb       0.00000000       0.00000000       2.76666667       0.00000000       0.00000000       0.37139851
2
Properties=species:S:1:pos:R:3:forces:R:3 energy=-109.19223991559537 pbc="F F F"
Pb       0.00000000       0.00000000       0.00000000       0.00000000       0.00000000      -0.17914239
Pb       0.00000000       0.00000000       2.82545455       0.00000000       0.00000000       0.17914239
2
Properties=species:S:1:pos:R:3:forces:R:3 energy=-109.19648915572796 pbc="F F F"
Pb       0.00000000       0.00000000       0.00000000       0.00000000       0.00000000       0.04100906
Pb       0.00000000       0.00000000       2.88424242       0.00000000       0.00000000      -0.04100906
2
Properties=species:S:1:pos:R:3:forces:R:3 energy=-109.18666403196545 pbc="F F F"
Pb       0.00000000       0.00000000       0.00000000       0.00000000       0.00000000       0.29865861
Pb       0.00000000       0.00000000       2.94303030       0.00000000       0.00000000      -0.29865861
2
Properties=species:S:1:pos:R:3:forces:R:3 energy=-109.16099537692075 pbc="F F F"
Pb       0.00000000       0.00000000       0.00000000       0.00000000       0.00000000       0.57541943
Pb       0.00000000       0.00000000       3.00181818       0.00000000       0.00000000      -0.57541943
2
Properties=species:S:1:pos:R:3:forces:R:3 energy=-109.11927095822094 pbc="F F F"
Pb       0.00000000       0.00000000       0.00000000       0.00000000       0.00000000       0.83933073
Pb       0.00000000       0.00000000       3.06060606       0.00000000       0.00000000      -0.83933073
2
Properties=species:S:1:pos:R:3:forces:R:3 energy=-109.0630725567778 pbc="F F F"
Pb       0.00000000       0.00000000       0.00000000       0.00000000       0.00000000       1.06477213
Pb       0.00000000       0.00000000       3.11939394       0.00000000       0.00000000      -1.06477213
2
Properties=species:S:1:pos:R:3:forces:R:3 energy=-108.99498345059988 pbc="F F F"
Pb       0.00000000       0.00000000       0.00000000       0.00000000       0.00000000       1.24418962
Pb       0.00000000       0.00000000       3.17818182       0.00000000       0.00000000      -1.24418962
2
Properties=species:S:1:pos:R:3:forces:R:3 energy=-108.91755955526843 pbc="F F F"
Pb       0.00000000       0.00000000       0.00000000       0.00000000       0.00000000       1.38424945
Pb       0.00000000       0.00000000       3.23696970       0.00000000       0.00000000      -1.38424945
2
Properties=species:S:1:pos:R:3:forces:R:3 energy=-108.83282626720484 pbc="F F F"
Pb       0.00000000       0.00000000       0.00000000       0.00000000       0.00000000       1.49383974
Pb       0.00000000       0.00000000       3.29575758       0.00000000       0.00000000      -1.49383974
2
Properties=species:S:1:pos:R:3:forces:R:3 energy=-108.74244365017174 pbc="F F F"
Pb       0.00000000       0.00000000       0.00000000       0.00000000       0.00000000       1.57670796
Pb       0.00000000       0.00000000       3.35454545       0.00000000       0.00000000      -1.57670796
2
Properties=species:S:1:pos:R:3:forces:R:3 energy=-108.64797279932569 pbc="F F F"
Pb       0.00000000       0.00000000       0.00000000       0.00000000       0.00000000       1.63272011
Pb       0.00000000       0.00000000       3.41333333       0.00000000       0.00000000      -1.63272011
2
Properties=species:S:1:pos:R:3:forces:R:3 energy=-108.55098724943234 pbc="F F F"
Pb       0.00000000       0.00000000       0.00000000       0.00000000       0.00000000       1.66254747
Pb       0.00000000       0.00000000       3.47212121       0.00000000       0.00000000      -1.66254747
2
Properties=species:S:1:pos:R:3:forces:R:3 energy=-108.45293577168582 pbc="F F F"
Pb       0.00000000       0.00000000       0.00000000       0.00000000       0.00000000       1.67009461
Pb       0.00000000       0.00000000       3.53090909       0.00000000       0.00000000      -1.67009461
2
Properties=species:S:1:pos:R:3:forces:R:3 energy=-108.35493825126554 pbc="F F F"
Pb       0.00000000       0.00000000       0.00000000       0.00000000       0.00000000       1.66166997
Pb       0.00000000       0.00000000       3.58969697       0.00000000       0.00000000      -1.66166997
2
Properties=species:S:1:pos:R:3:forces:R:3 energy=-108.25774148915467 pbc="F F F"
Pb       0.00000000       0.00000000       0.00000000       0.00000000       0.00000000       1.64387441
Pb       0.00000000       0.00000000       3.64848485       0.00000000       0.00000000      -1.64387441
2
Properties=species:S:1:pos:R:3:forces:R:3 energy=-108.16174284030569 pbc="F F F"
Pb       0.00000000       0.00000000       0.00000000       0.00000000       0.00000000       1.62177050
Pb       0.00000000       0.00000000       3.70727273       0.00000000       0.00000000      -1.62177050
2
Properties=species:S:1:pos:R:3:forces:R:3 energy=-108.06709593750368 pbc="F F F"
Pb       0.00000000       0.00000000       0.00000000       0.00000000       0.00000000       1.59802139
Pb       0.00000000       0.00000000       3.76606061       0.00000000       0.00000000      -1.59802139
2
Properties=species:S:1:pos:R:3:forces:R:3 energy=-107.97387898836365 pbc="F F F"
Pb       0.00000000       0.00000000       0.00000000       0.00000000       0.00000000       1.57301593
Pb       0.00000000       0.00000000       3.82484848       0.00000000       0.00000000      -1.57301593
2
Properties=species:S:1:pos:R:3:forces:R:3 energy=-107.8821911167149 pbc="F F F"
Pb       0.00000000       0.00000000       0.00000000       0.00000000       0.00000000       1.54564035
Pb       0.00000000       0.00000000       3.88363636       0.00000000       0.00000000      -1.54564035
2
Properties=species:S:1:pos:R:3:forces:R:3 energy=-107.79222830650203 pbc="F F F"
Pb       0.00000000       0.00000000       0.00000000       0.00000000       0.00000000       1.51422012
Pb       0.00000000       0.00000000       3.94242424       0.00000000       0.00000000      -1.51422012
2
Properties=species:S:1:pos:R:3:forces:R:3 energy=-107.70426863638409 pbc="F F F"
Pb       0.00000000       0.00000000       0.00000000       0.00000000       0.00000000       1.47725344
Pb       0.00000000       0.00000000       4.00121212       0.00000000       0.00000000      -1.47725344
2
Properties=species:S:1:pos:R:3:forces:R:3 energy=-107.61866523559532 pbc="F F F"
Pb       0.00000000       0.00000000       0.00000000       0.00000000       0.00000000       1.43376935
Pb       0.00000000       0.00000000       4.06000000       0.00000000       0.00000000      -1.43376935
2
Properties=species:S:1:pos:R:3:forces:R:3 energy=-107.53582381233007 pbc="F F F"
Pb       0.00000000       0.00000000       0.00000000       0.00000000       0.00000000       1.38341403
Pb       0.00000000       0.00000000       4.11878788       0.00000000       0.00000000      -1.38341403
2
Properties=species:S:1:pos:R:3:forces:R:3 energy=-107.45614192348943 pbc="F F F"
Pb       0.00000000       0.00000000       0.00000000       0.00000000       0.00000000       1.32627821
Pb       0.00000000       0.00000000       4.17757576       0.00000000       0.00000000      -1.32627821
2
Properties=species:S:1:pos:R:3:forces:R:3 energy=-107.38000916316672 pbc="F F F"
Pb       0.00000000       0.00000000       0.00000000       0.00000000       0.00000000       1.26272035
Pb       0.00000000       0.00000000       4.23636364       0.00000000       0.00000000      -1.26272035
2
Properties=species:S:1:pos:R:3:forces:R:3 energy=-107.30779201789996 pbc="F F F"
Pb       0.00000000       0.00000000       0.00000000       0.00000000       0.00000000       1.19321191
Pb       0.00000000       0.00000000       4.29515152       0.00000000       0.00000000      -1.19321191
2
Properties=species:S:1:pos:R:3:forces:R:3 energy=-107.2398263243925 pbc="F F F"
Pb       0.00000000       0.00000000       0.00000000       0.00000000       0.00000000       1.11831510
Pb       0.00000000       0.00000000       4.35393939       0.00000000       0.00000000      -1.11831510
2
Properties=species:S:1:pos:R:3:forces:R:3 energy=-107.17640203923428 pbc="F F F"
Pb       0.00000000       0.00000000       0.00000000       0.00000000       0.00000000       1.03872657
Pb       0.00000000       0.00000000       4.41272727       0.00000000       0.00000000      -1.03872657
2
Properties=species:S:1:pos:R:3:forces:R:3 energy=-107.11777092610919 pbc="F F F"
Pb       0.00000000       0.00000000       0.00000000       0.00000000       0.00000000       0.95538962
Pb       0.00000000       0.00000000       4.47151515       0.00000000       0.00000000      -0.95538962
2
Properties=species:S:1:pos:R:3:forces:R:3 energy=-107.06411604296865 pbc="F F F"
Pb       0.00000000       0.00000000       0.00000000       0.00000000       0.00000000       0.86955631
Pb       0.00000000       0.00000000       4.53030303       0.00000000       0.00000000      -0.86955631
2
Properties=species:S:1:pos:R:3:forces:R:3 energy=-107.01555176183051 pbc="F F F"
Pb       0.00000000       0.00000000       0.00000000       0.00000000       0.00000000       0.78276068
Pb       0.00000000       0.00000000       4.58909091       0.00000000       0.00000000      -0.78276068
2
Properties=species:S:1:pos:R:3:forces:R:3 energy=-106.97207037806444 pbc="F F F"
Pb       0.00000000       0.00000000       0.00000000       0.00000000       0.00000000       0.69671202
Pb       0.00000000       0.00000000       4.64787879       0.00000000       0.00000000      -0.69671202
2
Properties=species:S:1:pos:R:3:forces:R:3 energy=-106.93358026211641 pbc="F F F"
Pb       0.00000000       0.00000000       0.00000000       0.00000000       0.00000000       0.61312640
Pb       0.00000000       0.00000000       4.70666667       0.00000000       0.00000000      -0.61312640
2
Properties=species:S:1:pos:R:3:forces:R:3 energy=-106.89990586663617 pbc="F F F"
Pb       0.00000000       0.00000000       0.00000000       0.00000000       0.00000000       0.53356856
Pb       0.00000000       0.00000000       4.76545455       0.00000000       0.00000000      -0.53356856
2
Properties=species:S:1:pos:R:3:forces:R:3 energy=-106.87074195723778 pbc="F F F"
Pb       0.00000000       0.00000000       0.00000000       0.00000000       0.00000000       0.45937094
Pb       0.00000000       0.00000000       4.82424242       0.00000000       0.00000000      -0.45937094
2
Properties=species:S:1:pos:R:3:forces:R:3 energy=-106.84576805658531 pbc="F F F"
Pb       0.00000000       0.00000000       0.00000000       0.00000000       0.00000000       0.39168814
Pb       0.00000000       0.00000000       4.88303030       0.00000000       0.00000000      -0.39168814
2
Properties=species:S:1:pos:R:3:forces:R:3 energy=-106.82454164158099 pbc="F F F"
Pb       0.00000000       0.00000000       0.00000000       0.00000000       0.00000000       0.33156353
Pb       0.00000000       0.00000000       4.94181818       0.00000000       0.00000000      -0.33156353
2
Properties=species:S:1:pos:R:3:forces:R:3 energy=-106.80661258032333 pbc="F F F"
Pb       0.00000000       0.00000000       0.00000000       0.00000000       0.00000000       0.28008556
Pb       0.00000000       0.00000000       5.00060606       0.00000000       0.00000000      -0.28008556
2
Properties=species:S:1:pos:R:3:forces:R:3 energy=-106.79142396423347 pbc="F F F"
Pb       0.00000000       0.00000000       0.00000000       0.00000000       0.00000000       0.23825245
Pb       0.00000000       0.00000000       5.05939394       0.00000000       0.00000000      -0.23825245
2
Properties=species:S:1:pos:R:3:forces:R:3 energy=-106.77839601238806 pbc="F F F"
Pb       0.00000000       0.00000000       0.00000000       0.00000000       0.00000000       0.20665649
Pb       0.00000000       0.00000000       5.11818182       0.00000000       0.00000000      -0.20665649
2
Properties=species:S:1:pos:R:3:forces:R:3 energy=-106.76693373180004 pbc="F F F"
Pb       0.00000000       0.00000000       0.00000000       0.00000000       0.00000000       0.18493848
Pb       0.00000000       0.00000000       5.17696970       0.00000000       0.00000000      -0.18493848
2
Properties=species:S:1:pos:R:3:forces:R:3 energy=-106.75649556850622 pbc="F F F"
Pb       0.00000000       0.00000000       0.00000000       0.00000000       0.00000000       0.17128876
Pb       0.00000000       0.00000000       5.23575758       0.00000000       0.00000000      -0.17128876
2
Properties=species:S:1:pos:R:3:forces:R:3 energy=-106.74670021037922 pbc="F F F"
Pb       0.00000000       0.00000000       0.00000000       0.00000000       0.00000000       0.16226606
Pb       0.00000000       0.00000000       5.29454545       0.00000000       0.00000000      -0.16226606
2
Properties=species:S:1:pos:R:3:forces:R:3 energy=-106.73741053580979 pbc="F F F"
Pb       0.00000000       0.00000000       0.00000000       0.00000000       0.00000000       0.15334897
Pb       0.00000000       0.00000000       5.35333333       0.00000000       0.00000000      -0.15334897
2
Properties=species:S:1:pos:R:3:forces:R:3 energy=-106.7287412248865 pbc="F F F"
Pb       0.00000000       0.00000000       0.00000000       0.00000000       0.00000000       0.14095037
Pb       0.00000000       0.00000000       5.41212121       0.00000000       0.00000000      -0.14095037
2
Properties=species:S:1:pos:R:3:forces:R:3 energy=-106.72089091825964 pbc="F F F"
Pb       0.00000000       0.00000000       0.00000000       0.00000000       0.00000000       0.12606691
Pb       0.00000000       0.00000000       5.47090909       0.00000000       0.00000000      -0.12606691
2
Properties=species:S:1:pos:R:3:forces:R:3 energy=-106.71384466600279 pbc="F F F"
Pb       0.00000000       0.00000000       0.00000000       0.00000000       0.00000000       0.11466937
Pb       0.00000000       0.00000000       5.52969697       0.00000000       0.00000000      -0.11466937
2
Properties=species:S:1:pos:R:3:forces:R:3 energy=-106.70727475181961 pbc="F F F"
Pb       0.00000000       0.00000000       0.00000000       0.00000000       0.00000000       0.10998922
Pb       0.00000000       0.00000000       5.58848485       0.00000000       0.00000000      -0.10998922
2
Properties=species:S:1:pos:R:3:forces:R:3 energy=-106.70088400708616 pbc="F F F"
Pb       0.00000000       0.00000000       0.00000000       0.00000000       0.00000000       0.10692734
Pb       0.00000000       0.00000000       5.64727273       0.00000000       0.00000000      -0.10692734
2
Properties=species:S:1:pos:R:3:forces:R:3 energy=-106.69481779340389 pbc="F F F"
Pb       0.00000000       0.00000000       0.00000000       0.00000000       0.00000000       0.09808497
Pb       0.00000000       0.00000000       5.70606061       0.00000000       0.00000000      -0.09808497
2
Properties=species:S:1:pos:R:3:forces:R:3 energy=-106.68950379323408 pbc="F F F"
Pb       0.00000000       0.00000000       0.00000000       0.00000000       0.00000000       0.08122548
Pb       0.00000000       0.00000000       5.76484848       0.00000000       0.00000000      -0.08122548
2
Properties=species:S:1:pos:R:3:forces:R:3 energy=-106.68539259464457 pbc="F F F"
Pb       0.00000000       0.00000000       0.00000000       0.00000000       0.00000000       0.05761171
Pb       0.00000000       0.00000000       5.82363636       0.00000000       0.00000000      -0.05761171
2
Properties=species:S:1:pos:R:3:forces:R:3 energy=-106.68278984383821 pbc="F F F"
Pb       0.00000000       0.00000000       0.00000000       0.00000000       0.00000000       0.03154014
Pb       0.00000000       0.00000000       5.88242424       0.00000000       0.00000000      -0.03154014
2
Properties=species:S:1:pos:R:3:forces:R:3 energy=-106.68158158774165 pbc="F F F"
Pb       0.00000000       0.00000000       0.00000000       0.00000000       0.00000000       0.01120365
Pb       0.00000000       0.00000000       5.94121212       0.00000000       0.00000000      -0.01120365
2
Properties=species:S:1:pos:R:3:forces:R:3 energy=-106.68121900096105 pbc="F F F"
Pb       0.00000000       0.00000000       0.00000000       0.00000000       0.00000000       0.00357947
Pb       0.00000000       0.00000000       6.00000000       0.00000000       0.00000000      -0.00357947
