2
Properties=species:S:1:pos:R:3:forces:R:3 energy=18643.12590775883 pbc="F F F"
Cu       0.00000000       0.00000000       0.00000000       0.00000000       0.00000000 -400921.09375000
Cu       0.00000000       0.00000000       0.10000000       0.00000000       0.00000000  400921.09375000
2
Properties=species:S:1:pos:R:3:forces:R:3 energy=6506.418876508831 pbc="F F F"
Cu       0.00000000       0.00000000       0.00000000       0.00000000       0.00000000  -93974.53906250
Cu       0.00000000       0.00000000       0.15959596       0.00000000       0.00000000   93974.53906250
2
Properties=species:S:1:pos:R:3:forces:R:3 energy=3187.915702680706 pbc="F F F"
Cu       0.00000000       0.00000000       0.00000000       0.00000000       0.00000000  -31098.07226562
Cu       0.00000000       0.00000000       0.21919192       0.00000000       0.00000000   31098.07226562
2
Properties=species:S:1:pos:R:3:forces:R:3 energy=1981.702812055706 pbc="F F F"
Cu       0.00000000       0.00000000       0.00000000       0.00000000       0.00000000  -12689.71875000
Cu       0.00000000       0.00000000       0.27878788       0.00000000       0.00000000   12689.71875000
2
Properties=species:S:1:pos:R:3:forces:R:3 energy=1449.988456586956 pbc="F F F"
Cu       0.00000000       0.00000000       0.00000000       0.00000000       0.00000000   -6236.15478516
Cu       0.00000000       0.00000000       0.33838384       0.00000000       0.00000000    6236.15478516
2
Properties=species:S:1:pos:R:3:forces:R:3 energy=1152.054618696331 pbc="F F F"
Cu       0.00000000       0.00000000       0.00000000       0.00000000       0.00000000   -4256.34765625
Cu       0.00000000       0.00000000       0.39797980       0.00000000       0.00000000    4256.34765625
2
Properties=species:S:1:pos:R:3:forces:R:3 energy=902.6191938932275 pbc="F F F"
Cu       0.00000000       0.00000000       0.00000000       0.00000000       0.00000000   -4302.34375000
Cu       0.00000000       0.00000000       0.45757576       0.00000000       0.00000000    4302.34375000
2
Properties=species:S:1:pos:R:3:forces:R:3 energy=642.1770552229364 pbc="F F F"
Cu       0.00000000       0.00000000       0.00000000       0.00000000       0.00000000   -4374.40673828
Cu       0.00000000       0.00000000       0.51717172       0.00000000       0.00000000    4374.40673828
2
Properties=species:S:1:pos:R:3:forces:R:3 energy=381.41789995266674 pbc="F F F"
Cu       0.00000000       0.00000000       0.00000000       0.00000000       0.00000000   -3987.56665039
Cu       0.00000000       0.00000000       0.57676768       0.00000000       0.00000000    3987.56665039
2
Properties=species:S:1:pos:R:3:forces:R:3 energy=185.09398638399168 pbc="F F F"
Cu       0.00000000       0.00000000       0.00000000       0.00000000       0.00000000   -2515.92626953
Cu       0.00000000       0.00000000       0.63636364       0.00000000       0.00000000    2515.92626953
2
Properties=species:S:1:pos:R:3:forces:R:3 energy=73.72941577423543 pbc="F F F"
Cu       0.00000000       0.00000000       0.00000000       0.00000000       0.00000000    -765.59594727
Cu       0.00000000       0.00000000       0.69595960       0.00000000       0.00000000     765.59594727
2
Properties=species:S:1:pos:R:3:forces:R:3 energy=53.412322891398915 pbc="F F F"
Cu       0.00000000       0.00000000       0.00000000       0.00000000       0.00000000     -87.05600739
Cu       0.00000000       0.00000000       0.75555556       0.00000000       0.00000000      87.05600739
2
Properties=species:S:1:pos:R:3:forces:R:3 energy=54.457473667241786 pbc="F F F"
Cu       0.00000000       0.00000000       0.00000000       0.00000000       0.00000000      10.61418819
Cu       0.00000000       0.00000000       0.81515152       0.00000000       0.00000000     -10.61418819
2
Properties=species:S:1:pos:R:3:forces:R:3 energy=50.69355004914874 pbc="F F F"
Cu       0.00000000       0.00000000       0.00000000       0.00000000       0.00000000    -124.23777771
Cu       0.00000000       0.00000000       0.87474747       0.00000000       0.00000000     124.23777771
2
Properties=species:S:1:pos:R:3:forces:R:3 energy=43.879306769720266 pbc="F F F"
Cu       0.00000000       0.00000000       0.00000000       0.00000000       0.00000000     -63.59928131
Cu       0.00000000       0.00000000       0.93434343       0.00000000       0.00000000      63.59928131
2
Properties=species:S:1:pos:R:3:forces:R:3 energy=41.35419848537894 pbc="F F F"
Cu       0.00000000       0.00000000       0.00000000       0.00000000       0.00000000     -56.44200134
Cu       0.00000000       0.00000000       0.99393939       0.00000000       0.00000000      56.44200134
2
Properties=species:S:1:pos:R:3:forces:R:3 energy=35.92787180494595 pbc="F F F"
Cu       0.00000000       0.00000000       0.00000000       0.00000000       0.00000000    -121.14470673
Cu       0.00000000       0.00000000       1.05353535       0.00000000       0.00000000     121.14470673
2
Properties=species:S:1:pos:R:3:forces:R:3 energy=27.763149457353666 pbc="F F F"
Cu       0.00000000       0.00000000       0.00000000       0.00000000       0.00000000    -146.02722168
Cu       0.00000000       0.00000000       1.11313131       0.00000000       0.00000000     146.02722168
2
Properties=species:S:1:pos:R:3:forces:R:3 energy=19.153820357265918 pbc="F F F"
Cu       0.00000000       0.00000000       0.00000000       0.00000000       0.00000000    -139.17141724
Cu       0.00000000       0.00000000       1.17272727       0.00000000       0.00000000     139.17141724
2
Properties=species:S:1:pos:R:3:forces:R:3 energy=11.454341414944512 pbc="F F F"
Cu       0.00000000       0.00000000       0.00000000       0.00000000       0.00000000    -118.01274872
Cu       0.00000000       0.00000000       1.23232323       0.00000000       0.00000000     118.01274872
2
Properties=species:S:1:pos:R:3:forces:R:3 energy=5.145702093693808 pbc="F F F"
Cu       0.00000000       0.00000000       0.00000000       0.00000000       0.00000000     -93.74195099
Cu       0.00000000       0.00000000       1.29191919       0.00000000       0.00000000      93.74195099
2
Properties=species:S:1:pos:R:3:forces:R:3 energy=0.22642039392153263 pbc="F F F"
Cu       0.00000000       0.00000000       0.00000000       0.00000000       0.00000000     -72.15033722
Cu       0.00000000       0.00000000       1.35151515       0.00000000       0.00000000      72.15033722
2
Properties=species:S:1:pos:R:3:forces:R:3 energy=-3.5653053945343753 pbc="F F F"
Cu       0.00000000       0.00000000       0.00000000       0.00000000       0.00000000     -56.00340652
Cu       0.00000000       0.00000000       1.41111111       0.00000000       0.00000000      56.00340652
2
Properties=species:S:1:pos:R:3:forces:R:3 energy=-6.538311239111173 pbc="F F F"
Cu       0.00000000       0.00000000       0.00000000       0.00000000       0.00000000     -44.35255432
Cu       0.00000000       0.00000000       1.47070707       0.00000000       0.00000000      44.35255432
2
Properties=species:S:1:pos:R:3:forces:R:3 energy=-8.905046204888851 pbc="F F F"
Cu       0.00000000       0.00000000       0.00000000       0.00000000       0.00000000     -35.41333389
Cu       0.00000000       0.00000000       1.53030303       0.00000000       0.00000000      35.41333389
2
Properties=species:S:1:pos:R:3:forces:R:3 energy=-10.791318036590388 pbc="F F F"
Cu       0.00000000       0.00000000       0.00000000       0.00000000       0.00000000     -28.10430717
Cu       0.00000000       0.00000000       1.58989899       0.00000000       0.00000000      28.10430717
2
Properties=species:S:1:pos:R:3:forces:R:3 energy=-12.276629781723654 pbc="F F F"
Cu       0.00000000       0.00000000       0.00000000       0.00000000       0.00000000     -21.90279007
Cu       0.00000000       0.00000000       1.64949495       0.00000000       0.00000000      21.90279007
2
Properties=species:S:1:pos:R:3:forces:R:3 energy=-13.420234171321733 pbc="F F F"
Cu       0.00000000       0.00000000       0.00000000       0.00000000       0.00000000     -16.62668991
Cu       0.00000000       0.00000000       1.70909091       0.00000000       0.00000000      16.62668991
2
Properties=species:S:1:pos:R:3:forces:R:3 energy=-14.276319935301053 pbc="F F F"
Cu       0.00000000       0.00000000       0.00000000       0.00000000       0.00000000     -12.25112343
Cu       0.00000000       0.00000000       1.76868687       0.00000000       0.00000000      12.25112343
2
Properties=species:S:1:pos:R:3:forces:R:3 energy=-14.897357308594415 pbc="F F F"
Cu       0.00000000       0.00000000       0.00000000       0.00000000       0.00000000      -8.72367096
Cu       0.00000000       0.00000000       1.82828283       0.00000000       0.00000000       8.72367096
2
Properties=species:S:1:pos:R:3:forces:R:3 energy=-15.330852682995946 pbc="F F F"
Cu       0.00000000       0.00000000       0.00000000       0.00000000       0.00000000      -5.93832111
Cu       0.00000000       0.00000000       1.88787879       0.00000000       0.00000000       5.93832111
2
Properties=species:S:1:pos:R:3:forces:R:3 energy=-15.617768414752232 pbc="F F F"
Cu       0.00000000       0.00000000       0.00000000       0.00000000       0.00000000      -3.78847027
Cu       0.00000000       0.00000000       1.94747475       0.00000000       0.00000000       3.78847027
2
Properties=species:S:1:pos:R:3:forces:R:3 energy=-15.793295330060973 pbc="F F F"
Cu       0.00000000       0.00000000       0.00000000       0.00000000       0.00000000      -2.18706179
Cu       0.00000000       0.00000000       2.00707071       0.00000000       0.00000000       2.18706179
2
Properties=species:S:1:pos:R:3:forces:R:3 energy=-15.887802674181085 pbc="F F F"
Cu       0.00000000       0.00000000       0.00000000       0.00000000       0.00000000      -1.05651009
Cu       0.00000000       0.00000000       2.06666667       0.00000000       0.00000000       1.05651009
2
Properties=species:S:1:pos:R:3:forces:R:3 energy=-15.926990818116668 pbc="F F F"
Cu       0.00000000       0.00000000       0.00000000       0.00000000       0.00000000      -0.31667972
Cu       0.00000000       0.00000000       2.12626263       0.00000000       0.00000000       0.31667972
2
Properties=species:S:1:pos:R:3:forces:R:3 energy=-15.93159204563613 pbc="F F F"
Cu       0.00000000       0.00000000       0.00000000       0.00000000       0.00000000       0.11903547
Cu       0.00000000       0.00000000       2.18585859       0.00000000       0.00000000      -0.11903547
2
Properties=species:S:1:pos:R:3:forces:R:3 energy=-15.917067753677248 pbc="F F F"
Cu       0.00000000       0.00000000       0.00000000       0.00000000       0.00000000       0.33980489
Cu       0.00000000       0.00000000       2.24545455       0.00000000       0.00000000      -0.33980489
2
Properties=species:S:1:pos:R:3:forces:R:3 energy=-15.893704778836971 pbc="F F F"
Cu       0.00000000       0.00000000       0.00000000       0.00000000       0.00000000       0.42845055
Cu       0.00000000       0.00000000       2.30505051       0.00000000       0.00000000      -0.42845055
2
Properties=species:S:1:pos:R:3:forces:R:3 energy=-15.867263134357747 pbc="F F F"
Cu       0.00000000       0.00000000       0.00000000       0.00000000       0.00000000       0.45292258
Cu       0.00000000       0.00000000       2.36464646       0.00000000       0.00000000      -0.45292258
2
Properties=species:S:1:pos:R:3:forces:R:3 energy=-15.840002778402036 pbc="F F F"
Cu       0.00000000       0.00000000       0.00000000       0.00000000       0.00000000       0.46257827
Cu       0.00000000       0.00000000       2.42424242       0.00000000       0.00000000      -0.46257827
2
Properties=species:S:1:pos:R:3:forces:R:3 energy=-15.81178431670958 pbc="F F F"
Cu       0.00000000       0.00000000       0.00000000       0.00000000       0.00000000       0.48895854
Cu       0.00000000       0.00000000       2.48383838       0.00000000       0.00000000      -0.48895854
2
Properties=species:S:1:pos:R:3:forces:R:3 energy=-15.781059477540186 pbc="F F F"
Cu       0.00000000       0.00000000       0.00000000       0.00000000       0.00000000       0.54833019
Cu       0.00000000       0.00000000       2.54343434       0.00000000       0.00000000      -0.54833019
2
Properties=species:S:1:pos:R:3:forces:R:3 energy=-15.745681588011182 pbc="F F F"
Cu       0.00000000       0.00000000       0.00000000       0.00000000       0.00000000       0.64497048
Cu       0.00000000       0.00000000       2.60303030       0.00000000       0.00000000      -0.64497048
2
Properties=species:S:1:pos:R:3:forces:R:3 energy=-15.703509256842432 pbc="F F F"
Cu       0.00000000       0.00000000       0.00000000       0.00000000       0.00000000       0.77539629
Cu       0.00000000       0.00000000       2.66262626       0.00000000       0.00000000      -0.77539629
2
Properties=species:S:1:pos:R:3:forces:R:3 energy=-15.652761105136161 pbc="F F F"
Cu       0.00000000       0.00000000       0.00000000       0.00000000       0.00000000       0.93070024
Cu       0.00000000       0.00000000       2.72222222       0.00000000       0.00000000      -0.93070024
2
Properties=species:S:1:pos:R:3:forces:R:3 energy=-15.592416251936934 pbc="F F F"
Cu       0.00000000       0.00000000       0.00000000       0.00000000       0.00000000       1.09382737
Cu       0.00000000       0.00000000       2.78181818       0.00000000       0.00000000      -1.09382737
2
Properties=species:S:1:pos:R:3:forces:R:3 energy=-15.522711639590783 pbc="F F F"
Cu       0.00000000       0.00000000       0.00000000       0.00000000       0.00000000       1.24065757
Cu       0.00000000       0.00000000       2.84141414       0.00000000       0.00000000      -1.24065757
2
Properties=species:S:1:pos:R:3:forces:R:3 energy=-15.44531607430854 pbc="F F F"
Cu       0.00000000       0.00000000       0.00000000       0.00000000       0.00000000       1.34875429
Cu       0.00000000       0.00000000       2.90101010       0.00000000       0.00000000      -1.34875429
2
Properties=species:S:1:pos:R:3:forces:R:3 energy=-15.363001530838597 pbc="F F F"
Cu       0.00000000       0.00000000       0.00000000       0.00000000       0.00000000       1.40438116
Cu       0.00000000       0.00000000       2.96060606       0.00000000       0.00000000      -1.40438116
2
Properties=species:S:1:pos:R:3:forces:R:3 energy=-15.279015939800889 pbc="F F F"
Cu       0.00000000       0.00000000       0.00000000       0.00000000       0.00000000       1.40548277
Cu       0.00000000       0.00000000       3.02020202       0.00000000       0.00000000      -1.40548277
2
Properties=species:S:1:pos:R:3:forces:R:3 energy=-15.19638644666418 pbc="F F F"
Cu       0.00000000       0.00000000       0.00000000       0.00000000       0.00000000       1.36117303
Cu       0.00000000       0.00000000       3.07979798       0.00000000       0.00000000      -1.36117303
2
Properties=species:S:1:pos:R:3:forces:R:3 energy=-15.117357309508193 pbc="F F F"
Cu       0.00000000       0.00000000       0.00000000       0.00000000       0.00000000       1.28754199
Cu       0.00000000       0.00000000       3.13939394       0.00000000       0.00000000      -1.28754199
2
Properties=species:S:1:pos:R:3:forces:R:3 energy=-15.043162641321338 pbc="F F F"
Cu       0.00000000       0.00000000       0.00000000       0.00000000       0.00000000       1.20161378
Cu       0.00000000       0.00000000       3.19898990       0.00000000       0.00000000      -1.20161378
2
Properties=species:S:1:pos:R:3:forces:R:3 energy=-14.974113496883218 pbc="F F F"
Cu       0.00000000       0.00000000       0.00000000       0.00000000       0.00000000       1.11657262
Cu       0.00000000       0.00000000       3.25858586       0.00000000       0.00000000      -1.11657262
2
Properties=species:S:1:pos:R:3:forces:R:3 energy=-14.909903076576743 pbc="F F F"
Cu       0.00000000       0.00000000       0.00000000       0.00000000       0.00000000       1.04009283
Cu       0.00000000       0.00000000       3.31818182       0.00000000       0.00000000      -1.04009283
2
Properties=species:S:1:pos:R:3:forces:R:3 energy=-14.84990969514184 pbc="F F F"
Cu       0.00000000       0.00000000       0.00000000       0.00000000       0.00000000       0.97529525
Cu       0.00000000       0.00000000       3.37777778       0.00000000       0.00000000      -0.97529525
2
Properties=species:S:1:pos:R:3:forces:R:3 energy=-14.793413182430102 pbc="F F F"
Cu       0.00000000       0.00000000       0.00000000       0.00000000       0.00000000       0.92266369
Cu       0.00000000       0.00000000       3.43737374       0.00000000       0.00000000      -0.92266369
2
Properties=species:S:1:pos:R:3:forces:R:3 energy=-14.73970598955055 pbc="F F F"
Cu       0.00000000       0.00000000       0.00000000       0.00000000       0.00000000       0.88155317
Cu       0.00000000       0.00000000       3.49696970       0.00000000       0.00000000      -0.88155317
2
Properties=species:S:1:pos:R:3:forces:R:3 energy=-14.688132572244728 pbc="F F F"
Cu       0.00000000       0.00000000       0.00000000       0.00000000       0.00000000       0.85083413
Cu       0.00000000       0.00000000       3.55656566       0.00000000       0.00000000      -0.85083413
2
Properties=species:S:1:pos:R:3:forces:R:3 energy=-14.63811817217859 pbc="F F F"
Cu       0.00000000       0.00000000       0.00000000       0.00000000       0.00000000       0.82895207
Cu       0.00000000       0.00000000       3.61616162       0.00000000       0.00000000      -0.82895207
2
Properties=species:S:1:pos:R:3:forces:R:3 energy=-14.589193700381795 pbc="F F F"
Cu       0.00000000       0.00000000       0.00000000       0.00000000       0.00000000       0.81384730
Cu       0.00000000       0.00000000       3.67575758       0.00000000       0.00000000      -0.81384730
2
Properties=species:S:1:pos:R:3:forces:R:3 energy=-14.541028245329795 pbc="F F F"
Cu       0.00000000       0.00000000       0.00000000       0.00000000       0.00000000       0.80304122
Cu       0.00000000       0.00000000       3.73535354       0.00000000       0.00000000      -0.80304122
2
Properties=species:S:1:pos:R:3:forces:R:3 energy=-14.493443412904622 pbc="F F F"
Cu       0.00000000       0.00000000       0.00000000       0.00000000       0.00000000       0.79391599
Cu       0.00000000       0.00000000       3.79494949       0.00000000       0.00000000      -0.79391599
2
Properties=species:S:1:pos:R:3:forces:R:3 energy=-14.446414301452007 pbc="F F F"
Cu       0.00000000       0.00000000       0.00000000       0.00000000       0.00000000       0.78404301
Cu       0.00000000       0.00000000       3.85454545       0.00000000       0.00000000      -0.78404301
2
Properties=species:S:1:pos:R:3:forces:R:3 energy=-14.400046653195565 pbc="F F F"
Cu       0.00000000       0.00000000       0.00000000       0.00000000       0.00000000       0.77145374
Cu       0.00000000       0.00000000       3.91414141       0.00000000       0.00000000      -0.77145374
2
Properties=species:S:1:pos:R:3:forces:R:3 energy=-14.354546338242574 pbc="F F F"
Cu       0.00000000       0.00000000       0.00000000       0.00000000       0.00000000       0.75474370
Cu       0.00000000       0.00000000       3.97373737       0.00000000       0.00000000      -0.75474370
2
Properties=species:S:1:pos:R:3:forces:R:3 energy=-14.31018695024807 pbc="F F F"
Cu       0.00000000       0.00000000       0.00000000       0.00000000       0.00000000       0.73305905
Cu       0.00000000       0.00000000       4.03333333       0.00000000       0.00000000      -0.73305905
2
Properties=species:S:1:pos:R:3:forces:R:3 energy=-14.26727834308195 pbc="F F F"
Cu       0.00000000       0.00000000       0.00000000       0.00000000       0.00000000       0.70597982
Cu       0.00000000       0.00000000       4.09292929       0.00000000       0.00000000      -0.70597982
2
Properties=species:S:1:pos:R:3:forces:R:3 energy=-14.226148525272173 pbc="F F F"
Cu       0.00000000       0.00000000       0.00000000       0.00000000       0.00000000       0.67340088
Cu       0.00000000       0.00000000       4.15252525       0.00000000       0.00000000      -0.67340088
2
Properties=species:S:1:pos:R:3:forces:R:3 energy=-14.187122681545656 pbc="F F F"
Cu       0.00000000       0.00000000       0.00000000       0.00000000       0.00000000       0.63543600
Cu       0.00000000       0.00000000       4.21212121       0.00000000       0.00000000      -0.63543600
2
Properties=species:S:1:pos:R:3:forces:R:3 energy=-14.150510788525406 pbc="F F F"
Cu       0.00000000       0.00000000       0.00000000       0.00000000       0.00000000       0.59238619
Cu       0.00000000       0.00000000       4.27171717       0.00000000       0.00000000      -0.59238619
2
Properties=species:S:1:pos:R:3:forces:R:3 energy=-14.116604745788022 pbc="F F F"
Cu       0.00000000       0.00000000       0.00000000       0.00000000       0.00000000       0.54479074
Cu       0.00000000       0.00000000       4.33131313       0.00000000       0.00000000      -0.54479074
2
Properties=species:S:1:pos:R:3:forces:R:3 energy=-14.085651696741492 pbc="F F F"
Cu       0.00000000       0.00000000       0.00000000       0.00000000       0.00000000       0.49344638
Cu       0.00000000       0.00000000       4.39090909       0.00000000       0.00000000      -0.49344638
2
Properties=species:S:1:pos:R:3:forces:R:3 energy=-14.057842582157539 pbc="F F F"
Cu       0.00000000       0.00000000       0.00000000       0.00000000       0.00000000       0.43945548
Cu       0.00000000       0.00000000       4.45050505       0.00000000       0.00000000      -0.43945548
2
Properties=species:S:1:pos:R:3:forces:R:3 energy=-14.033297830305132 pbc="F F F"
Cu       0.00000000       0.00000000       0.00000000       0.00000000       0.00000000       0.38416636
Cu       0.00000000       0.00000000       4.51010101       0.00000000       0.00000000      -0.38416636
2
Properties=species:S:1:pos:R:3:forces:R:3 energy=-14.01205019477258 pbc="F F F"
Cu       0.00000000       0.00000000       0.00000000       0.00000000       0.00000000       0.32903224
Cu       0.00000000       0.00000000       4.56969697       0.00000000       0.00000000      -0.32903224
2
Properties=species:S:1:pos:R:3:forces:R:3 energy=-13.99404762974567 pbc="F F F"
Cu       0.00000000       0.00000000       0.00000000       0.00000000       0.00000000       0.27546728
Cu       0.00000000       0.00000000       4.62929293       0.00000000       0.00000000      -0.27546728
2
Properties=species:S:1:pos:R:3:forces:R:3 energy=-13.979161850901766 pbc="F F F"
Cu       0.00000000       0.00000000       0.00000000       0.00000000       0.00000000       0.22466725
Cu       0.00000000       0.00000000       4.68888889       0.00000000       0.00000000      -0.22466725
2
Properties=species:S:1:pos:R:3:forces:R:3 energy=-13.96719693827754 pbc="F F F"
Cu       0.00000000       0.00000000       0.00000000       0.00000000       0.00000000       0.17753187
Cu       0.00000000       0.00000000       4.74848485       0.00000000       0.00000000      -0.17753187
2
Properties=species:S:1:pos:R:3:forces:R:3 energy=-13.957915048253613 pbc="F F F"
Cu       0.00000000       0.00000000       0.00000000       0.00000000       0.00000000       0.13472681
Cu       0.00000000       0.00000000       4.80808081       0.00000000       0.00000000      -0.13472681
2
Properties=species:S:1:pos:R:3:forces:R:3 energy=-13.951041217564125 pbc="F F F"
Cu       0.00000000       0.00000000       0.00000000       0.00000000       0.00000000       0.09679340
Cu       0.00000000       0.00000000       4.86767677       0.00000000       0.00000000      -0.09679340
2
Properties=species:S:1:pos:R:3:forces:R:3 energy=-13.946269052872468 pbc="F F F"
Cu       0.00000000       0.00000000       0.00000000       0.00000000       0.00000000       0.06434246
Cu       0.00000000       0.00000000       4.92727273       0.00000000       0.00000000      -0.06434246
2
Properties=species:S:1:pos:R:3:forces:R:3 energy=-13.943248320333879 pbc="F F F"
Cu       0.00000000       0.00000000       0.00000000       0.00000000       0.00000000       0.03812828
Cu       0.00000000       0.00000000       4.98686869       0.00000000       0.00000000      -0.03812828
2
Properties=species:S:1:pos:R:3:forces:R:3 energy=-13.941584959850633 pbc="F F F"
Cu       0.00000000       0.00000000       0.00000000       0.00000000       0.00000000       0.01893627
Cu       0.00000000       0.00000000       5.04646465       0.00000000       0.00000000      -0.01893627
2
Properties=species:S:1:pos:R:3:forces:R:3 energy=-13.940842956782689 pbc="F F F"
Cu       0.00000000       0.00000000       0.00000000       0.00000000       0.00000000       0.00720853
Cu       0.00000000       0.00000000       5.10606061       0.00000000       0.00000000      -0.00720853
2
Properties=species:S:1:pos:R:3:forces:R:3 energy=-13.940584404188524 pbc="F F F"
Cu       0.00000000       0.00000000       0.00000000       0.00000000       0.00000000       0.00255924
Cu       0.00000000       0.00000000       5.16565657       0.00000000       0.00000000      -0.00255924
2
Properties=species:S:1:pos:R:3:forces:R:3 energy=-13.940428614001693 pbc="F F F"
Cu       0.00000000       0.00000000       0.00000000       0.00000000       0.00000000       0.00338169
Cu       0.00000000       0.00000000       5.22525253       0.00000000       0.00000000      -0.00338169
2
Properties=species:S:1:pos:R:3:forces:R:3 energy=-13.94012649095621 pbc="F F F"
Cu       0.00000000       0.00000000       0.00000000       0.00000000       0.00000000       0.00694855
Cu       0.00000000       0.00000000       5.28484848       0.00000000       0.00000000      -0.00694855
2
Properties=species:S:1:pos:R:3:forces:R:3 energy=-13.939604392101648 pbc="F F F"
Cu       0.00000000       0.00000000       0.00000000       0.00000000       0.00000000       0.01035732
Cu       0.00000000       0.00000000       5.34444444       0.00000000       0.00000000      -0.01035732
2
Properties=species:S:1:pos:R:3:forces:R:3 energy=-13.938923117223611 pbc="F F F"
Cu       0.00000000       0.00000000       0.00000000       0.00000000       0.00000000       0.01229646
Cu       0.00000000       0.00000000       5.40404040       0.00000000       0.00000000      -0.01229646
2
Properties=species:S:1:pos:R:3:forces:R:3 energy=-13.938140561923179 pbc="F F F"
Cu       0.00000000       0.00000000       0.00000000       0.00000000       0.00000000       0.01411350
Cu       0.00000000       0.00000000       5.46363636       0.00000000       0.00000000      -0.01411350
2
Properties=species:S:1:pos:R:3:forces:R:3 energy=-13.937216351373197 pbc="F F F"
Cu       0.00000000       0.00000000       0.00000000       0.00000000       0.00000000       0.01702840
Cu       0.00000000       0.00000000       5.52323232       0.00000000       0.00000000      -0.01702840
2
Properties=species:S:1:pos:R:3:forces:R:3 energy=-13.936131039312409 pbc="F F F"
Cu       0.00000000       0.00000000       0.00000000       0.00000000       0.00000000       0.01899811
Cu       0.00000000       0.00000000       5.58282828       0.00000000       0.00000000      -0.01899811
2
Properties=species:S:1:pos:R:3:forces:R:3 energy=-13.935012942769754 pbc="F F F"
Cu       0.00000000       0.00000000       0.00000000       0.00000000       0.00000000       0.01800021
Cu       0.00000000       0.00000000       5.64242424       0.00000000       0.00000000      -0.01800021
2
Properties=species:S:1:pos:R:3:forces:R:3 energy=-13.934028467142122 pbc="F F F"
Cu       0.00000000       0.00000000       0.00000000       0.00000000       0.00000000       0.01487638
Cu       0.00000000       0.00000000       5.70202020       0.00000000       0.00000000      -0.01487638
2
Properties=species:S:1:pos:R:3:forces:R:3 energy=-13.933240015056848 pbc="F F F"
Cu       0.00000000       0.00000000       0.00000000       0.00000000       0.00000000       0.01164653
Cu       0.00000000       0.00000000       5.76161616       0.00000000       0.00000000      -0.01164653
2
Properties=species:S:1:pos:R:3:forces:R:3 energy=-13.93263648731877 pbc="F F F"
Cu       0.00000000       0.00000000       0.00000000       0.00000000       0.00000000       0.00859872
Cu       0.00000000       0.00000000       5.82121212       0.00000000       0.00000000      -0.00859872
2
Properties=species:S:1:pos:R:3:forces:R:3 energy=-13.932210545181041 pbc="F F F"
Cu       0.00000000       0.00000000       0.00000000       0.00000000       0.00000000       0.00583357
Cu       0.00000000       0.00000000       5.88080808       0.00000000       0.00000000      -0.00583357
2
Properties=species:S:1:pos:R:3:forces:R:3 energy=-13.931923322811503 pbc="F F F"
Cu       0.00000000       0.00000000       0.00000000       0.00000000       0.00000000       0.00394856
Cu       0.00000000       0.00000000       5.94040404       0.00000000       0.00000000      -0.00394856
2
Properties=species:S:1:pos:R:3:forces:R:3 energy=-13.931716821890985 pbc="F F F"
Cu       0.00000000       0.00000000       0.00000000       0.00000000       0.00000000       0.00320301
Cu       0.00000000       0.00000000       6.00000000       0.00000000       0.00000000      -0.00320301
