2
Properties=species:S:1:pos:R:3:forces:R:3 energy=-189274.41460032453 pbc="F F F"
Mn       0.00000000       0.00000000       0.00000000       0.00000000       0.00000000 -298495.12500000
Mn       0.00000000       0.00000000       0.10000000       0.00000000       0.00000000  298495.12500000
2
Properties=species:S:1:pos:R:3:forces:R:3 energy=-196897.47710032453 pbc="F F F"
Mn       0.00000000       0.00000000       0.00000000       0.00000000       0.00000000  -14919.26171875
Mn       0.00000000       0.00000000       0.15959596       0.00000000       0.00000000   14919.26171875
2
Properties=species:S:1:pos:R:3:forces:R:3 energy=-192881.77397532453 pbc="F F F"
Mn       0.00000000       0.00000000       0.00000000       0.00000000       0.00000000  153580.17187500
Mn       0.00000000       0.00000000       0.21919192       0.00000000       0.00000000 -153580.17187500
2
Properties=species:S:1:pos:R:3:forces:R:3 energy=-177373.22710032453 pbc="F F F"
Mn       0.00000000       0.00000000       0.00000000       0.00000000       0.00000000  379025.15625000
Mn       0.00000000       0.00000000       0.27878788       0.00000000       0.00000000 -379025.15625000
2
Properties=species:S:1:pos:R:3:forces:R:3 energy=-146724.58647532374 pbc="F F F"
Mn       0.00000000       0.00000000       0.00000000       0.00000000       0.00000000  649669.68750000
Mn       0.00000000       0.00000000       0.33838384       0.00000000       0.00000000 -649669.68750000
2
Properties=species:S:1:pos:R:3:forces:R:3 energy=-101547.10210032374 pbc="F F F"
Mn       0.00000000       0.00000000       0.00000000       0.00000000       0.00000000  836883.25000000
Mn       0.00000000       0.00000000       0.39797980       0.00000000       0.00000000 -836883.25000000
2
Properties=species:S:1:pos:R:3:forces:R:3 energy=-52248.43022532375 pbc="F F F"
Mn       0.00000000       0.00000000       0.00000000       0.00000000       0.00000000  764469.31250000
Mn       0.00000000       0.00000000       0.45757576       0.00000000       0.00000000 -764469.31250000
2
Properties=species:S:1:pos:R:3:forces:R:3 energy=-13488.729053447161 pbc="F F F"
Mn       0.00000000       0.00000000       0.00000000       0.00000000       0.00000000  443379.40625000
Mn       0.00000000       0.00000000       0.51717172       0.00000000       0.00000000 -443379.40625000
2
Properties=species:S:1:pos:R:3:forces:R:3 energy=813.8145256575691 pbc="F F F"
Mn       0.00000000       0.00000000       0.00000000       0.00000000       0.00000000   75899.98437500
Mn       0.00000000       0.00000000       0.57676768       0.00000000       0.00000000  -75899.98437500
2
Properties=species:S:1:pos:R:3:forces:R:3 energy=634.5778923615396 pbc="F F F"
Mn       0.00000000       0.00000000       0.00000000       0.00000000       0.00000000   22314.16796875
Mn       0.00000000       0.00000000       0.63636364       0.00000000       0.00000000  -22314.16796875
2
Properties=species:S:1:pos:R:3:forces:R:3 energy=1332.9021721530314 pbc="F F F"
Mn       0.00000000       0.00000000       0.00000000       0.00000000       0.00000000   12155.19335938
Mn       0.00000000       0.00000000       0.69595960       0.00000000       0.00000000  -12155.19335938
2
Properties=species:S:1:pos:R:3:forces:R:3 energy=1383.6729241172438 pbc="F F F"
Mn       0.00000000       0.00000000       0.00000000       0.00000000       0.00000000   -8317.99609375
Mn       0.00000000       0.00000000       0.75555556       0.00000000       0.00000000    8317.99609375
2
Properties=species:S:1:pos:R:3:forces:R:3 energy=943.6528435674687 pbc="F F F"
Mn       0.00000000       0.00000000       0.00000000       0.00000000       0.00000000   -6363.07470703
Mn       0.00000000       0.00000000       0.81515152       0.00000000       0.00000000    6363.07470703
2
Properties=species:S:1:pos:R:3:forces:R:3 energy=605.9358636107586 pbc="F F F"
Mn       0.00000000       0.00000000       0.00000000       0.00000000       0.00000000   -5137.46875000
Mn       0.00000000       0.00000000       0.87474747       0.00000000       0.00000000    5137.46875000
2
Properties=species:S:1:pos:R:3:forces:R:3 energy=350.9769708209632 pbc="F F F"
Mn       0.00000000       0.00000000       0.00000000       0.00000000       0.00000000   -3443.07006836
Mn       0.00000000       0.00000000       0.93434343       0.00000000       0.00000000    3443.07006836
2
Properties=species:S:1:pos:R:3:forces:R:3 energy=186.69675846455283 pbc="F F F"
Mn       0.00000000       0.00000000       0.00000000       0.00000000       0.00000000   -2108.97094727
Mn       0.00000000       0.00000000       0.99393939       0.00000000       0.00000000    2108.97094727
2
Properties=species:S:1:pos:R:3:forces:R:3 energy=88.03460337495817 pbc="F F F"
Mn       0.00000000       0.00000000       0.00000000       0.00000000       0.00000000   -1280.52136230
Mn       0.00000000       0.00000000       1.05353535       0.00000000       0.00000000    1280.52136230
2
Properties=species:S:1:pos:R:3:forces:R:3 energy=28.399109225143814 pbc="F F F"
Mn       0.00000000       0.00000000       0.00000000       0.00000000       0.00000000    -812.50042725
Mn       0.00000000       0.00000000       1.11313131       0.00000000       0.00000000     812.50042725
2
Properties=species:S:1:pos:R:3:forces:R:3 energy=23.84372755873938 pbc="F F F"
Mn       0.00000000       0.00000000       0.00000000       0.00000000       0.00000000     101.65187073
Mn       0.00000000       0.00000000       1.17272727       0.00000000       0.00000000    -101.65187073
2
Properties=species:S:1:pos:R:3:forces:R:3 energy=30.255505194461445 pbc="F F F"
Mn       0.00000000       0.00000000       0.00000000       0.00000000       0.00000000     115.73966217
Mn       0.00000000       0.00000000       1.23232323       0.00000000       0.00000000    -115.73966217
2
Properties=species:S:1:pos:R:3:forces:R:3 energy=37.38291626211527 pbc="F F F"
Mn       0.00000000       0.00000000       0.00000000       0.00000000       0.00000000     109.13836670
Mn       0.00000000       0.00000000       1.29191919       0.00000000       0.00000000    -109.13836670
2
Properties=species:S:1:pos:R:3:forces:R:3 energy=31.896470107207364 pbc="F F F"
Mn       0.00000000       0.00000000       0.00000000       0.00000000       0.00000000    -146.77192688
Mn       0.00000000       0.00000000       1.35151515       0.00000000       0.00000000     146.77192688
2
Properties=species:S:1:pos:R:3:forces:R:3 energy=23.499448141037128 pbc="F F F"
Mn       0.00000000       0.00000000       0.00000000       0.00000000       0.00000000    -205.24847412
Mn       0.00000000       0.00000000       1.41111111       0.00000000       0.00000000     205.24847412
2
Properties=species:S:1:pos:R:3:forces:R:3 energy=9.787900645062663 pbc="F F F"
Mn       0.00000000       0.00000000       0.00000000       0.00000000       0.00000000    -232.07281494
Mn       0.00000000       0.00000000       1.47070707       0.00000000       0.00000000     232.07281494
2
Properties=species:S:1:pos:R:3:forces:R:3 energy=-2.2659224110219713 pbc="F F F"
Mn       0.00000000       0.00000000       0.00000000       0.00000000       0.00000000    -166.66859436
Mn       0.00000000       0.00000000       1.53030303       0.00000000       0.00000000     166.66859436
2
Properties=species:S:1:pos:R:3:forces:R:3 energy=-11.552037555284466 pbc="F F F"
Mn       0.00000000       0.00000000       0.00000000       0.00000000       0.00000000    -174.73852539
Mn       0.00000000       0.00000000       1.58989899       0.00000000       0.00000000     174.73852539
2
Properties=species:S:1:pos:R:3:forces:R:3 energy=-13.875304921783021 pbc="F F F"
Mn       0.00000000       0.00000000       0.00000000       0.00000000       0.00000000     184.49703979
Mn       0.00000000       0.00000000       1.64949495       0.00000000       0.00000000    -184.49703979
2
Properties=species:S:1:pos:R:3:forces:R:3 energy=-1.576450452025915 pbc="F F F"
Mn       0.00000000       0.00000000       0.00000000       0.00000000       0.00000000     175.41522217
Mn       0.00000000       0.00000000       1.70909091       0.00000000       0.00000000    -175.41522217
2
Properties=species:S:1:pos:R:3:forces:R:3 energy=3.4552425628762635 pbc="F F F"
Mn       0.00000000       0.00000000       0.00000000       0.00000000       0.00000000     -15.03727055
Mn       0.00000000       0.00000000       1.76868687       0.00000000       0.00000000      15.03727055
2
Properties=species:S:1:pos:R:3:forces:R:3 energy=-2.724639302950599 pbc="F F F"
Mn       0.00000000       0.00000000       0.00000000       0.00000000       0.00000000    -183.70501709
Mn       0.00000000       0.00000000       1.82828283       0.00000000       0.00000000     183.70501709
2
Properties=species:S:1:pos:R:3:forces:R:3 energy=-16.94350818579462 pbc="F F F"
Mn       0.00000000       0.00000000       0.00000000       0.00000000       0.00000000    -247.33427429
Mn       0.00000000       0.00000000       1.88787879       0.00000000       0.00000000     247.33427429
2
Properties=species:S:1:pos:R:3:forces:R:3 energy=-21.29460382538716 pbc="F F F"
Mn       0.00000000       0.00000000       0.00000000       0.00000000       0.00000000      31.47277832
Mn       0.00000000       0.00000000       1.94747475       0.00000000       0.00000000     -31.47277832
2
Properties=species:S:1:pos:R:3:forces:R:3 energy=-20.45102164022148 pbc="F F F"
Mn       0.00000000       0.00000000       0.00000000       0.00000000       0.00000000      -0.05217911
Mn       0.00000000       0.00000000       2.00707071       0.00000000       0.00000000       0.05217911
2
Properties=species:S:1:pos:R:3:forces:R:3 energy=-20.95696915127794 pbc="F F F"
Mn       0.00000000       0.00000000       0.00000000       0.00000000       0.00000000     -15.07586479
Mn       0.00000000       0.00000000       2.06666667       0.00000000       0.00000000      15.07586479
2
Properties=species:S:1:pos:R:3:forces:R:3 energy=-22.010390064995132 pbc="F F F"
Mn       0.00000000       0.00000000       0.00000000       0.00000000       0.00000000     -18.43800926
Mn       0.00000000       0.00000000       2.12626263       0.00000000       0.00000000      18.43800926
2
Properties=species:S:1:pos:R:3:forces:R:3 energy=-22.97905401978091 pbc="F F F"
Mn       0.00000000       0.00000000       0.00000000       0.00000000       0.00000000     -13.12815762
Mn       0.00000000       0.00000000       2.18585859       0.00000000       0.00000000      13.12815762
2
Properties=species:S:1:pos:R:3:forces:R:3 energy=-23.556561125350033 pbc="F F F"
Mn       0.00000000       0.00000000       0.00000000       0.00000000       0.00000000      -6.72212362
Mn       0.00000000       0.00000000       2.24545455       0.00000000       0.00000000       6.72212362
2
Properties=species:S:1:pos:R:3:forces:R:3 energy=-23.841002007270514 pbc="F F F"
Mn       0.00000000       0.00000000       0.00000000       0.00000000       0.00000000      -3.12112999
Mn       0.00000000       0.00000000       2.30505051       0.00000000       0.00000000       3.12112999
2
Properties=species:S:1:pos:R:3:forces:R:3 energy=-23.95466747045321 pbc="F F F"
Mn       0.00000000       0.00000000       0.00000000       0.00000000       0.00000000      -1.03202605
Mn       0.00000000       0.00000000       2.36464646       0.00000000       0.00000000       1.03202605
2
Properties=species:S:1:pos:R:3:forces:R:3 energy=-24.00099492073016 pbc="F F F"
Mn       0.00000000       0.00000000       0.00000000       0.00000000       0.00000000      -0.52092397
Mn       0.00000000       0.00000000       2.42424242       0.00000000       0.00000000       0.52092397
2
Properties=species:S:1:pos:R:3:forces:R:3 energy=-23.986385429506534 pbc="F F F"
Mn       0.00000000       0.00000000       0.00000000       0.00000000       0.00000000       1.18362057
Mn       0.00000000       0.00000000       2.48383838       0.00000000       0.00000000      -1.18362057
2
Properties=species:S:1:pos:R:3:forces:R:3 energy=-23.876960590507636 pbc="F F F"
Mn       0.00000000       0.00000000       0.00000000       0.00000000       0.00000000       2.14734674
Mn       0.00000000       0.00000000       2.54343434       0.00000000       0.00000000      -2.14734674
2
Properties=species:S:1:pos:R:3:forces:R:3 energy=-23.766600352874857 pbc="F F F"
Mn       0.00000000       0.00000000       0.00000000       0.00000000       0.00000000       1.36724198
Mn       0.00000000       0.00000000       2.60303030       0.00000000       0.00000000      -1.36724198
2
Properties=species:S:1:pos:R:3:forces:R:3 energy=-23.722400715921047 pbc="F F F"
Mn       0.00000000       0.00000000       0.00000000       0.00000000       0.00000000       0.13519931
Mn       0.00000000       0.00000000       2.66262626       0.00000000       0.00000000      -0.13519931
2
Properties=species:S:1:pos:R:3:forces:R:3 energy=-23.74282791061102 pbc="F F F"
Mn       0.00000000       0.00000000       0.00000000       0.00000000       0.00000000      -0.73522961
Mn       0.00000000       0.00000000       2.72222222       0.00000000       0.00000000       0.73522961
2
Properties=species:S:1:pos:R:3:forces:R:3 energy=-23.800091970819807 pbc="F F F"
Mn       0.00000000       0.00000000       0.00000000       0.00000000       0.00000000      -1.11266470
Mn       0.00000000       0.00000000       2.78181818       0.00000000       0.00000000       1.11266470
2
Properties=species:S:1:pos:R:3:forces:R:3 energy=-23.868199316760872 pbc="F F F"
Mn       0.00000000       0.00000000       0.00000000       0.00000000       0.00000000      -1.12461901
Mn       0.00000000       0.00000000       2.84141414       0.00000000       0.00000000       1.12461901
2
Properties=species:S:1:pos:R:3:forces:R:3 energy=-23.929658912994018 pbc="F F F"
Mn       0.00000000       0.00000000       0.00000000       0.00000000       0.00000000      -0.91006881
Mn       0.00000000       0.00000000       2.90101010       0.00000000       0.00000000       0.91006881
2
Properties=species:S:1:pos:R:3:forces:R:3 energy=-23.974348898862825 pbc="F F F"
Mn       0.00000000       0.00000000       0.00000000       0.00000000       0.00000000      -0.57798797
Mn       0.00000000       0.00000000       2.96060606       0.00000000       0.00000000       0.57798797
2
Properties=species:S:1:pos:R:3:forces:R:3 energy=-23.997968833407267 pbc="F F F"
Mn       0.00000000       0.00000000       0.00000000       0.00000000       0.00000000      -0.21614988
Mn       0.00000000       0.00000000       3.02020202       0.00000000       0.00000000       0.21614988
2
Properties=species:S:1:pos:R:3:forces:R:3 energy=-24.000938084274473 pbc="F F F"
Mn       0.00000000       0.00000000       0.00000000       0.00000000       0.00000000       0.10475107
Mn       0.00000000       0.00000000       3.07979798       0.00000000       0.00000000      -0.10475107
2
Properties=species:S:1:pos:R:3:forces:R:3 energy=-23.987324052922848 pbc="F F F"
Mn       0.00000000       0.00000000       0.00000000       0.00000000       0.00000000       0.33399871
Mn       0.00000000       0.00000000       3.13939394       0.00000000       0.00000000      -0.33399871
2
Properties=species:S:1:pos:R:3:forces:R:3 energy=-23.96336760878213 pbc="F F F"
Mn       0.00000000       0.00000000       0.00000000       0.00000000       0.00000000       0.45172265
Mn       0.00000000       0.00000000       3.19898990       0.00000000       0.00000000      -0.45172265
2
Properties=species:S:1:pos:R:3:forces:R:3 energy=-23.935407948418685 pbc="F F F"
Mn       0.00000000       0.00000000       0.00000000       0.00000000       0.00000000       0.47332114
Mn       0.00000000       0.00000000       3.25858586       0.00000000       0.00000000      -0.47332114
2
Properties=species:S:1:pos:R:3:forces:R:3 energy=-23.908129659458876 pbc="F F F"
Mn       0.00000000       0.00000000       0.00000000       0.00000000       0.00000000       0.43567967
Mn       0.00000000       0.00000000       3.31818182       0.00000000       0.00000000      -0.43567967
2
Properties=species:S:1:pos:R:3:forces:R:3 energy=-23.88389575995725 pbc="F F F"
Mn       0.00000000       0.00000000       0.00000000       0.00000000       0.00000000       0.37659535
Mn       0.00000000       0.00000000       3.37777778       0.00000000       0.00000000      -0.37659535
2
Properties=species:S:1:pos:R:3:forces:R:3 energy=-23.86313117367423 pbc="F F F"
Mn       0.00000000       0.00000000       0.00000000       0.00000000       0.00000000       0.32257330
Mn       0.00000000       0.00000000       3.43737374       0.00000000       0.00000000      -0.32257330
2
Properties=species:S:1:pos:R:3:forces:R:3 energy=-23.845080143888286 pbc="F F F"
Mn       0.00000000       0.00000000       0.00000000       0.00000000       0.00000000       0.28680012
Mn       0.00000000       0.00000000       3.49696970       0.00000000       0.00000000      -0.28680012
2
Properties=species:S:1:pos:R:3:forces:R:3 energy=-23.828527236521758 pbc="F F F"
Mn       0.00000000       0.00000000       0.00000000       0.00000000       0.00000000       0.27202052
Mn       0.00000000       0.00000000       3.55656566       0.00000000       0.00000000      -0.27202052
2
Properties=species:S:1:pos:R:3:forces:R:3 energy=-23.812312246660042 pbc="F F F"
Mn       0.00000000       0.00000000       0.00000000       0.00000000       0.00000000       0.27443886
Mn       0.00000000       0.00000000       3.61616162       0.00000000       0.00000000      -0.27443886
2
Properties=species:S:1:pos:R:3:forces:R:3 energy=-23.795608771238385 pbc="F F F"
Mn       0.00000000       0.00000000       0.00000000       0.00000000       0.00000000       0.28723067
Mn       0.00000000       0.00000000       3.67575758       0.00000000       0.00000000      -0.28723067
2
Properties=species:S:1:pos:R:3:forces:R:3 energy=-23.77801384175634 pbc="F F F"
Mn       0.00000000       0.00000000       0.00000000       0.00000000       0.00000000       0.30330187
Mn       0.00000000       0.00000000       3.73535354       0.00000000       0.00000000      -0.30330187
2
Properties=species:S:1:pos:R:3:forces:R:3 energy=-23.759504026748818 pbc="F F F"
Mn       0.00000000       0.00000000       0.00000000       0.00000000       0.00000000       0.31715518
Mn       0.00000000       0.00000000       3.79494949       0.00000000       0.00000000      -0.31715518
2
Properties=species:S:1:pos:R:3:forces:R:3 energy=-23.74031536860861 pbc="F F F"
Mn       0.00000000       0.00000000       0.00000000       0.00000000       0.00000000       0.32586065
Mn       0.00000000       0.00000000       3.85454545       0.00000000       0.00000000      -0.32586065
2
Properties=species:S:1:pos:R:3:forces:R:3 energy=-23.72077345691176 pbc="F F F"
Mn       0.00000000       0.00000000       0.00000000       0.00000000       0.00000000       0.32909796
Mn       0.00000000       0.00000000       3.91414141       0.00000000       0.00000000      -0.32909796
2
Properties=species:S:1:pos:R:3:forces:R:3 energy=-23.701165881565394 pbc="F F F"
Mn       0.00000000       0.00000000       0.00000000       0.00000000       0.00000000       0.32847840
Mn       0.00000000       0.00000000       3.97373737       0.00000000       0.00000000      -0.32847840
2
Properties=species:S:1:pos:R:3:forces:R:3 energy=-23.681648539889764 pbc="F F F"
Mn       0.00000000       0.00000000       0.00000000       0.00000000       0.00000000       0.32644978
Mn       0.00000000       0.00000000       4.03333333       0.00000000       0.00000000      -0.32644978
2
Properties=species:S:1:pos:R:3:forces:R:3 energy=-23.66223817828613 pbc="F F F"
Mn       0.00000000       0.00000000       0.00000000       0.00000000       0.00000000       0.32526478
Mn       0.00000000       0.00000000       4.09292929       0.00000000       0.00000000      -0.32526478
2
Properties=species:S:1:pos:R:3:forces:R:3 energy=-23.642835277252534 pbc="F F F"
Mn       0.00000000       0.00000000       0.00000000       0.00000000       0.00000000       0.32627210
Mn       0.00000000       0.00000000       4.15252525       0.00000000       0.00000000      -0.32627210
2
Properties=species:S:1:pos:R:3:forces:R:3 energy=-23.623300228119668 pbc="F F F"
Mn       0.00000000       0.00000000       0.00000000       0.00000000       0.00000000       0.32969871
Mn       0.00000000       0.00000000       4.21212121       0.00000000       0.00000000      -0.32969871
2
Properties=species:S:1:pos:R:3:forces:R:3 energy=-23.60350496768035 pbc="F F F"
Mn       0.00000000       0.00000000       0.00000000       0.00000000       0.00000000       0.33482239
Mn       0.00000000       0.00000000       4.27171717       0.00000000       0.00000000      -0.33482239
2
Properties=species:S:1:pos:R:3:forces:R:3 energy=-23.58338445442782 pbc="F F F"
Mn       0.00000000       0.00000000       0.00000000       0.00000000       0.00000000       0.34038550
Mn       0.00000000       0.00000000       4.33131313       0.00000000       0.00000000      -0.34038550
2
Properties=species:S:1:pos:R:3:forces:R:3 energy=-23.56295188616313 pbc="F F F"
Mn       0.00000000       0.00000000       0.00000000       0.00000000       0.00000000       0.34505248
Mn       0.00000000       0.00000000       4.39090909       0.00000000       0.00000000      -0.34505248
2
Properties=species:S:1:pos:R:3:forces:R:3 energy=-23.54229499141993 pbc="F F F"
Mn       0.00000000       0.00000000       0.00000000       0.00000000       0.00000000       0.34779888
Mn       0.00000000       0.00000000       4.45050505       0.00000000       0.00000000      -0.34779888
2
Properties=species:S:1:pos:R:3:forces:R:3 energy=-23.521545385173436 pbc="F F F"
Mn       0.00000000       0.00000000       0.00000000       0.00000000       0.00000000       0.34811288
Mn       0.00000000       0.00000000       4.51010101       0.00000000       0.00000000      -0.34811288
2
Properties=species:S:1:pos:R:3:forces:R:3 energy=-23.500850066316904 pbc="F F F"
Mn       0.00000000       0.00000000       0.00000000       0.00000000       0.00000000       0.34600380
Mn       0.00000000       0.00000000       4.56969697       0.00000000       0.00000000      -0.34600380
2
Properties=species:S:1:pos:R:3:forces:R:3 energy=-23.480346623713313 pbc="F F F"
Mn       0.00000000       0.00000000       0.00000000       0.00000000       0.00000000       0.34180936
Mn       0.00000000       0.00000000       4.62929293       0.00000000       0.00000000      -0.34180936
2
Properties=species:S:1:pos:R:3:forces:R:3 energy=-23.46014411202388 pbc="F F F"
Mn       0.00000000       0.00000000       0.00000000       0.00000000       0.00000000       0.33590305
Mn       0.00000000       0.00000000       4.68888889       0.00000000       0.00000000      -0.33590305
2
Properties=species:S:1:pos:R:3:forces:R:3 energy=-23.44034026061136 pbc="F F F"
Mn       0.00000000       0.00000000       0.00000000       0.00000000       0.00000000       0.32842454
Mn       0.00000000       0.00000000       4.74848485       0.00000000       0.00000000      -0.32842454
2
Properties=species:S:1:pos:R:3:forces:R:3 energy=-23.421034824980463 pbc="F F F"
Mn       0.00000000       0.00000000       0.00000000       0.00000000       0.00000000       0.31915554
Mn       0.00000000       0.00000000       4.80808081       0.00000000       0.00000000      -0.31915554
2
Properties=species:S:1:pos:R:3:forces:R:3 energy=-23.40234485031867 pbc="F F F"
Mn       0.00000000       0.00000000       0.00000000       0.00000000       0.00000000       0.30759349
Mn       0.00000000       0.00000000       4.86767677       0.00000000       0.00000000      -0.30759349
2
Properties=species:S:1:pos:R:3:forces:R:3 energy=-23.384427494739448 pbc="F F F"
Mn       0.00000000       0.00000000       0.00000000       0.00000000       0.00000000       0.29314920
Mn       0.00000000       0.00000000       4.92727273       0.00000000       0.00000000      -0.29314920
2
Properties=species:S:1:pos:R:3:forces:R:3 energy=-23.367468675473408 pbc="F F F"
Mn       0.00000000       0.00000000       0.00000000       0.00000000       0.00000000       0.27539605
Mn       0.00000000       0.00000000       4.98686869       0.00000000       0.00000000      -0.27539605
2
Properties=species:S:1:pos:R:3:forces:R:3 energy=-23.351671567755687 pbc="F F F"
Mn       0.00000000       0.00000000       0.00000000       0.00000000       0.00000000       0.25431153
Mn       0.00000000       0.00000000       5.04646465       0.00000000       0.00000000      -0.25431153
2
Properties=species:S:1:pos:R:3:forces:R:3 energy=-23.337212713632663 pbc="F F F"
Mn       0.00000000       0.00000000       0.00000000       0.00000000       0.00000000       0.23052657
Mn       0.00000000       0.00000000       5.10606061       0.00000000       0.00000000      -0.23052657
2
Properties=species:S:1:pos:R:3:forces:R:3 energy=-23.324215336504096 pbc="F F F"
Mn       0.00000000       0.00000000       0.00000000       0.00000000       0.00000000       0.20558777
Mn       0.00000000       0.00000000       5.16565657       0.00000000       0.00000000      -0.20558777
2
Properties=species:S:1:pos:R:3:forces:R:3 energy=-23.3126806543976 pbc="F F F"
Mn       0.00000000       0.00000000       0.00000000       0.00000000       0.00000000       0.18205577
Mn       0.00000000       0.00000000       5.22525253       0.00000000       0.00000000      -0.18205577
2
Properties=species:S:1:pos:R:3:forces:R:3 energy=-23.302428734738005 pbc="F F F"
Mn       0.00000000       0.00000000       0.00000000       0.00000000       0.00000000       0.16292250
Mn       0.00000000       0.00000000       5.28484848       0.00000000       0.00000000      -0.16292250
2
Properties=species:S:1:pos:R:3:forces:R:3 energy=-23.293142357030273 pbc="F F F"
Mn       0.00000000       0.00000000       0.00000000       0.00000000       0.00000000       0.14950934
Mn       0.00000000       0.00000000       5.34444444       0.00000000       0.00000000      -0.14950934
2
Properties=species:S:1:pos:R:3:forces:R:3 energy=-23.284584401502375 pbc="F F F"
Mn       0.00000000       0.00000000       0.00000000       0.00000000       0.00000000       0.13699812
Mn       0.00000000       0.00000000       5.40404040       0.00000000       0.00000000      -0.13699812
2
Properties=species:S:1:pos:R:3:forces:R:3 energy=-23.27702704056157 pbc="F F F"
Mn       0.00000000       0.00000000       0.00000000       0.00000000       0.00000000       0.11409748
Mn       0.00000000       0.00000000       5.46363636       0.00000000       0.00000000      -0.11409748
2
Properties=species:S:1:pos:R:3:forces:R:3 energy=-23.271144868666227 pbc="F F F"
Mn       0.00000000       0.00000000       0.00000000       0.00000000       0.00000000       0.08433925
Mn       0.00000000       0.00000000       5.52323232       0.00000000       0.00000000      -0.08433925
2
Properties=species:S:1:pos:R:3:forces:R:3 energy=-23.266603469881254 pbc="F F F"
Mn       0.00000000       0.00000000       0.00000000       0.00000000       0.00000000       0.07192449
Mn       0.00000000       0.00000000       5.58282828       0.00000000       0.00000000      -0.07192449
2
Properties=species:S:1:pos:R:3:forces:R:3 energy=-23.262297803195057 pbc="F F F"
Mn       0.00000000       0.00000000       0.00000000       0.00000000       0.00000000       0.07255492
Mn       0.00000000       0.00000000       5.64242424       0.00000000       0.00000000      -0.07255492
2
Properties=species:S:1:pos:R:3:forces:R:3 energy=-23.258225226004566 pbc="F F F"
Mn       0.00000000       0.00000000       0.00000000       0.00000000       0.00000000       0.06026972
Mn       0.00000000       0.00000000       5.70202020       0.00000000       0.00000000      -0.06026972
2
Properties=species:S:1:pos:R:3:forces:R:3 energy=-23.255491205865706 pbc="F F F"
Mn       0.00000000       0.00000000       0.00000000       0.00000000       0.00000000       0.03055545
Mn       0.00000000       0.00000000       5.76161616       0.00000000       0.00000000      -0.03055545
2
Properties=species:S:1:pos:R:3:forces:R:3 energy=-23.254365683927283 pbc="F F F"
Mn       0.00000000       0.00000000       0.00000000       0.00000000       0.00000000       0.01083734
Mn       0.00000000       0.00000000       5.82121212       0.00000000       0.00000000      -0.01083734
2
Properties=species:S:1:pos:R:3:forces:R:3 energy=-23.253853971381794 pbc="F F F"
Mn       0.00000000       0.00000000       0.00000000       0.00000000       0.00000000       0.00773694
Mn       0.00000000       0.00000000       5.88080808       0.00000000       0.00000000      -0.00773694
2
Properties=species:S:1:pos:R:3:forces:R:3 energy=-23.2534037781825 pbc="F F F"
Mn       0.00000000       0.00000000       0.00000000       0.00000000       0.00000000       0.00724455
Mn       0.00000000       0.00000000       5.94040404       0.00000000       0.00000000      -0.00724455
2
Properties=species:S:1:pos:R:3:forces:R:3 energy=-23.252991058779063 pbc="F F F"
Mn       0.00000000       0.00000000       0.00000000       0.00000000       0.00000000       0.00671905
Mn       0.00000000       0.00000000       6.00000000       0.00000000       0.00000000      -0.00671905
