2
Properties=species:S:1:pos:R:3:forces:R:3 energy=250.5973689257074 pbc="F F F"
P        0.00000000       0.00000000       0.00000000       0.00000000       0.00000000 -125284.67187500
P        0.00000000       0.00000000       0.10000000       0.00000000       0.00000000  125284.67187500
2
Properties=species:S:1:pos:R:3:forces:R:3 energy=-3607.8442967237065 pbc="F F F"
P        0.00000000       0.00000000       0.00000000       0.00000000       0.00000000  -29432.95703125
P        0.00000000       0.00000000       0.15959596       0.00000000       0.00000000   29432.95703125
2
Properties=species:S:1:pos:R:3:forces:R:3 energy=-4392.152646333082 pbc="F F F"
P        0.00000000       0.00000000       0.00000000       0.00000000       0.00000000     338.49822998
P        0.00000000       0.00000000       0.21919192       0.00000000       0.00000000    -338.49822998
2
Properties=species:S:1:pos:R:3:forces:R:3 energy=-3809.2876560987065 pbc="F F F"
P        0.00000000       0.00000000       0.00000000       0.00000000       0.00000000   18479.14257812
P        0.00000000       0.00000000       0.27878788       0.00000000       0.00000000  -18479.14257812
2
Properties=species:S:1:pos:R:3:forces:R:3 energy=-2316.88311508229 pbc="F F F"
P        0.00000000       0.00000000       0.00000000       0.00000000       0.00000000   26394.76171875
P        0.00000000       0.00000000       0.33838384       0.00000000       0.00000000  -26394.76171875
2
Properties=species:S:1:pos:R:3:forces:R:3 energy=208.81514236558328 pbc="F F F"
P        0.00000000       0.00000000       0.00000000       0.00000000       0.00000000   46807.02734375
P        0.00000000       0.00000000       0.39797980       0.00000000       0.00000000  -46807.02734375
2
Properties=species:S:1:pos:R:3:forces:R:3 energy=1747.3472316013576 pbc="F F F"
P        0.00000000       0.00000000       0.00000000       0.00000000       0.00000000    7160.57031250
P        0.00000000       0.00000000       0.45757576       0.00000000       0.00000000   -7160.57031250
2
Properties=species:S:1:pos:R:3:forces:R:3 energy=1772.7882716451718 pbc="F F F"
P        0.00000000       0.00000000       0.00000000       0.00000000       0.00000000   -5840.00439453
P        0.00000000       0.00000000       0.51717172       0.00000000       0.00000000    5840.00439453
2
Properties=species:S:1:pos:R:3:forces:R:3 energy=651.7175929421538 pbc="F F F"
P        0.00000000       0.00000000       0.00000000       0.00000000       0.00000000  -11517.08398438
P        0.00000000       0.00000000       0.57676768       0.00000000       0.00000000   11517.08398438
2
Properties=species:S:1:pos:R:3:forces:R:3 energy=331.4416530142109 pbc="F F F"
P        0.00000000       0.00000000       0.00000000       0.00000000       0.00000000    2164.82348633
P        0.00000000       0.00000000       0.63636364       0.00000000       0.00000000   -2164.82348633
2
Properties=species:S:1:pos:R:3:forces:R:3 energy=536.0010402434168 pbc="F F F"
P        0.00000000       0.00000000       0.00000000       0.00000000       0.00000000    1543.39538574
P        0.00000000       0.00000000       0.69595960       0.00000000       0.00000000   -1543.39538574
2
Properties=species:S:1:pos:R:3:forces:R:3 energy=499.7514980419348 pbc="F F F"
P        0.00000000       0.00000000       0.00000000       0.00000000       0.00000000    -224.45484924
P        0.00000000       0.00000000       0.75555556       0.00000000       0.00000000     224.45484924
2
Properties=species:S:1:pos:R:3:forces:R:3 energy=454.0163296347967 pbc="F F F"
P        0.00000000       0.00000000       0.00000000       0.00000000       0.00000000     860.68859863
P        0.00000000       0.00000000       0.81515152       0.00000000       0.00000000    -860.68859863
2
Properties=species:S:1:pos:R:3:forces:R:3 energy=386.8839139361723 pbc="F F F"
P        0.00000000       0.00000000       0.00000000       0.00000000       0.00000000   -2180.18750000
P        0.00000000       0.00000000       0.87474747       0.00000000       0.00000000    2180.18750000
2
Properties=species:S:1:pos:R:3:forces:R:3 energy=231.91885666528765 pbc="F F F"
P        0.00000000       0.00000000       0.00000000       0.00000000       0.00000000   -2524.60107422
P        0.00000000       0.00000000       0.93434343       0.00000000       0.00000000    2524.60107422
2
Properties=species:S:1:pos:R:3:forces:R:3 energy=105.24603576291777 pbc="F F F"
P        0.00000000       0.00000000       0.00000000       0.00000000       0.00000000   -1874.75512695
P        0.00000000       0.00000000       0.99393939       0.00000000       0.00000000    1874.75512695
2
Properties=species:S:1:pos:R:3:forces:R:3 energy=63.630992314434295 pbc="F F F"
P        0.00000000       0.00000000       0.00000000       0.00000000       0.00000000    -473.48074341
P        0.00000000       0.00000000       1.05353535       0.00000000       0.00000000     473.48074341
2
Properties=species:S:1:pos:R:3:forces:R:3 energy=33.12134901475648 pbc="F F F"
P        0.00000000       0.00000000       0.00000000       0.00000000       0.00000000    -416.79785156
P        0.00000000       0.00000000       1.11313131       0.00000000       0.00000000     416.79785156
2
Properties=species:S:1:pos:R:3:forces:R:3 energy=18.369222654444176 pbc="F F F"
P        0.00000000       0.00000000       0.00000000       0.00000000       0.00000000    -136.66773987
P        0.00000000       0.00000000       1.17272727       0.00000000       0.00000000     136.66773987
2
Properties=species:S:1:pos:R:3:forces:R:3 energy=11.060932606076472 pbc="F F F"
P        0.00000000       0.00000000       0.00000000       0.00000000       0.00000000    -122.27614594
P        0.00000000       0.00000000       1.23232323       0.00000000       0.00000000     122.27614594
2
Properties=species:S:1:pos:R:3:forces:R:3 energy=4.071162269579209 pbc="F F F"
P        0.00000000       0.00000000       0.00000000       0.00000000       0.00000000     -99.71584320
P        0.00000000       0.00000000       1.29191919       0.00000000       0.00000000      99.71584320
2
Properties=species:S:1:pos:R:3:forces:R:3 energy=-0.7147104434180335 pbc="F F F"
P        0.00000000       0.00000000       0.00000000       0.00000000       0.00000000     -70.31391144
P        0.00000000       0.00000000       1.35151515       0.00000000       0.00000000      70.31391144
2
Properties=species:S:1:pos:R:3:forces:R:3 energy=-4.896601965702563 pbc="F F F"
P        0.00000000       0.00000000       0.00000000       0.00000000       0.00000000     -69.27968597
P        0.00000000       0.00000000       1.41111111       0.00000000       0.00000000      69.27968597
2
Properties=species:S:1:pos:R:3:forces:R:3 energy=-8.646142163377286 pbc="F F F"
P        0.00000000       0.00000000       0.00000000       0.00000000       0.00000000     -54.27077103
P        0.00000000       0.00000000       1.47070707       0.00000000       0.00000000      54.27077103
2
Properties=species:S:1:pos:R:3:forces:R:3 energy=-11.33318497340092 pbc="F F F"
P        0.00000000       0.00000000       0.00000000       0.00000000       0.00000000     -37.02360153
P        0.00000000       0.00000000       1.53030303       0.00000000       0.00000000      37.02360153
2
Properties=species:S:1:pos:R:3:forces:R:3 energy=-13.188587248454642 pbc="F F F"
P        0.00000000       0.00000000       0.00000000       0.00000000       0.00000000     -25.93845177
P        0.00000000       0.00000000       1.58989899       0.00000000       0.00000000      25.93845177
2
Properties=species:S:1:pos:R:3:forces:R:3 energy=-14.476275442311868 pbc="F F F"
P        0.00000000       0.00000000       0.00000000       0.00000000       0.00000000     -17.59709740
P        0.00000000       0.00000000       1.64949495       0.00000000       0.00000000      17.59709740
2
Properties=species:S:1:pos:R:3:forces:R:3 energy=-15.322617066921527 pbc="F F F"
P        0.00000000       0.00000000       0.00000000       0.00000000       0.00000000     -11.09886456
P        0.00000000       0.00000000       1.70909091       0.00000000       0.00000000      11.09886456
2
Properties=species:S:1:pos:R:3:forces:R:3 energy=-15.831124824488136 pbc="F F F"
P        0.00000000       0.00000000       0.00000000       0.00000000       0.00000000      -6.20788956
P        0.00000000       0.00000000       1.76868687       0.00000000       0.00000000       6.20788956
2
Properties=species:S:1:pos:R:3:forces:R:3 energy=-16.088138598257 pbc="F F F"
P        0.00000000       0.00000000       0.00000000       0.00000000       0.00000000      -2.60248184
P        0.00000000       0.00000000       1.82828283       0.00000000       0.00000000       2.60248184
2
Properties=species:S:1:pos:R:3:forces:R:3 energy=-16.159534315320684 pbc="F F F"
P        0.00000000       0.00000000       0.00000000       0.00000000       0.00000000       0.08310829
P        0.00000000       0.00000000       1.88787879       0.00000000       0.00000000      -0.08310829
2
Properties=species:S:1:pos:R:3:forces:R:3 energy=-16.09083458392711 pbc="F F F"
P        0.00000000       0.00000000       0.00000000       0.00000000       0.00000000       2.12541628
P        0.00000000       0.00000000       1.94747475       0.00000000       0.00000000      -2.12541628
2
Properties=species:S:1:pos:R:3:forces:R:3 energy=-15.917563686039248 pbc="F F F"
P        0.00000000       0.00000000       0.00000000       0.00000000       0.00000000       3.59626794
P        0.00000000       0.00000000       2.00707071       0.00000000       0.00000000      -3.59626794
2
Properties=species:S:1:pos:R:3:forces:R:3 energy=-15.672430653078276 pbc="F F F"
P        0.00000000       0.00000000       0.00000000       0.00000000       0.00000000       4.55455160
P        0.00000000       0.00000000       2.06666667       0.00000000       0.00000000      -4.55455160
2
Properties=species:S:1:pos:R:3:forces:R:3 energy=-15.382446310840924 pbc="F F F"
P        0.00000000       0.00000000       0.00000000       0.00000000       0.00000000       5.12067223
P        0.00000000       0.00000000       2.12626263       0.00000000       0.00000000      -5.12067223
2
Properties=species:S:1:pos:R:3:forces:R:3 energy=-15.068313889530856 pbc="F F F"
P        0.00000000       0.00000000       0.00000000       0.00000000       0.00000000       5.37061024
P        0.00000000       0.00000000       2.18585859       0.00000000       0.00000000      -5.37061024
2
Properties=species:S:1:pos:R:3:forces:R:3 energy=-14.748530784913092 pbc="F F F"
P        0.00000000       0.00000000       0.00000000       0.00000000       0.00000000       5.30714607
P        0.00000000       0.00000000       2.24545455       0.00000000       0.00000000      -5.30714607
2
Properties=species:S:1:pos:R:3:forces:R:3 energy=-14.442115120312204 pbc="F F F"
P        0.00000000       0.00000000       0.00000000       0.00000000       0.00000000       4.92609310
P        0.00000000       0.00000000       2.30505051       0.00000000       0.00000000      -4.92609310
2
Properties=species:S:1:pos:R:3:forces:R:3 energy=-14.166183428895808 pbc="F F F"
P        0.00000000       0.00000000       0.00000000       0.00000000       0.00000000       4.30771112
P        0.00000000       0.00000000       2.36464646       0.00000000       0.00000000      -4.30771112
2
Properties=species:S:1:pos:R:3:forces:R:3 energy=-13.929362712678513 pbc="F F F"
P        0.00000000       0.00000000       0.00000000       0.00000000       0.00000000       3.65892506
P        0.00000000       0.00000000       2.42424242       0.00000000       0.00000000      -3.65892506
2
Properties=species:S:1:pos:R:3:forces:R:3 energy=-13.724067633841086 pbc="F F F"
P        0.00000000       0.00000000       0.00000000       0.00000000       0.00000000       3.31342769
P        0.00000000       0.00000000       2.48383838       0.00000000       0.00000000      -3.31342769
2
Properties=species:S:1:pos:R:3:forces:R:3 energy=-13.522024106081462 pbc="F F F"
P        0.00000000       0.00000000       0.00000000       0.00000000       0.00000000       3.57381177
P        0.00000000       0.00000000       2.54343434       0.00000000       0.00000000      -3.57381177
2
Properties=species:S:1:pos:R:3:forces:R:3 energy=-13.289469233846011 pbc="F F F"
P        0.00000000       0.00000000       0.00000000       0.00000000       0.00000000       4.24699879
P        0.00000000       0.00000000       2.60303030       0.00000000       0.00000000      -4.24699879
2
Properties=species:S:1:pos:R:3:forces:R:3 energy=-13.021680616421257 pbc="F F F"
P        0.00000000       0.00000000       0.00000000       0.00000000       0.00000000       4.63668871
P        0.00000000       0.00000000       2.66262626       0.00000000       0.00000000      -4.63668871
2
Properties=species:S:1:pos:R:3:forces:R:3 energy=-12.751248491868028 pbc="F F F"
P        0.00000000       0.00000000       0.00000000       0.00000000       0.00000000       4.32632828
P        0.00000000       0.00000000       2.72222222       0.00000000       0.00000000      -4.32632828
2
Properties=species:S:1:pos:R:3:forces:R:3 energy=-12.515131802199422 pbc="F F F"
P        0.00000000       0.00000000       0.00000000       0.00000000       0.00000000       3.56397629
P        0.00000000       0.00000000       2.78181818       0.00000000       0.00000000      -3.56397629
2
Properties=species:S:1:pos:R:3:forces:R:3 energy=-12.326016480284585 pbc="F F F"
P        0.00000000       0.00000000       0.00000000       0.00000000       0.00000000       2.81343889
P        0.00000000       0.00000000       2.84141414       0.00000000       0.00000000      -2.81343889
2
Properties=species:S:1:pos:R:3:forces:R:3 energy=-12.174819085538493 pbc="F F F"
P        0.00000000       0.00000000       0.00000000       0.00000000       0.00000000       2.30429626
P        0.00000000       0.00000000       2.90101010       0.00000000       0.00000000      -2.30429626
2
Properties=species:S:1:pos:R:3:forces:R:3 energy=-12.046920873003337 pbc="F F F"
P        0.00000000       0.00000000       0.00000000       0.00000000       0.00000000       2.01628470
P        0.00000000       0.00000000       2.96060606       0.00000000       0.00000000      -2.01628470
2
Properties=species:S:1:pos:R:3:forces:R:3 energy=-11.932220692250782 pbc="F F F"
P        0.00000000       0.00000000       0.00000000       0.00000000       0.00000000       1.84385586
P        0.00000000       0.00000000       3.02020202       0.00000000       0.00000000      -1.84385586
2
Properties=species:S:1:pos:R:3:forces:R:3 energy=-11.82654560629921 pbc="F F F"
P        0.00000000       0.00000000       0.00000000       0.00000000       0.00000000       1.70350277
P        0.00000000       0.00000000       3.07979798       0.00000000       0.00000000      -1.70350277
2
Properties=species:S:1:pos:R:3:forces:R:3 energy=-11.7292768346289 pbc="F F F"
P        0.00000000       0.00000000       0.00000000       0.00000000       0.00000000       1.55923629
P        0.00000000       0.00000000       3.13939394       0.00000000       0.00000000      -1.55923629
2
Properties=species:S:1:pos:R:3:forces:R:3 energy=-11.640826546367322 pbc="F F F"
P        0.00000000       0.00000000       0.00000000       0.00000000       0.00000000       1.40882146
P        0.00000000       0.00000000       3.19898990       0.00000000       0.00000000      -1.40882146
2
Properties=species:S:1:pos:R:3:forces:R:3 energy=-11.561271068554776 pbc="F F F"
P        0.00000000       0.00000000       0.00000000       0.00000000       0.00000000       1.26258612
P        0.00000000       0.00000000       3.25858586       0.00000000       0.00000000      -1.26258612
2
Properties=species:S:1:pos:R:3:forces:R:3 energy=-11.490078968746833 pbc="F F F"
P        0.00000000       0.00000000       0.00000000       0.00000000       0.00000000       1.12906647
P        0.00000000       0.00000000       3.31818182       0.00000000       0.00000000      -1.12906647
2
Properties=species:S:1:pos:R:3:forces:R:3 energy=-11.42640153112712 pbc="F F F"
P        0.00000000       0.00000000       0.00000000       0.00000000       0.00000000       1.01024091
P        0.00000000       0.00000000       3.37777778       0.00000000       0.00000000      -1.01024091
2
Properties=species:S:1:pos:R:3:forces:R:3 energy=-11.369432937168378 pbc="F F F"
P        0.00000000       0.00000000       0.00000000       0.00000000       0.00000000       0.90317321
P        0.00000000       0.00000000       3.43737374       0.00000000       0.00000000      -0.90317321
2
Properties=species:S:1:pos:R:3:forces:R:3 energy=-11.318601440031069 pbc="F F F"
P        0.00000000       0.00000000       0.00000000       0.00000000       0.00000000       0.80363137
P        0.00000000       0.00000000       3.49696970       0.00000000       0.00000000      -0.80363137
2
Properties=species:S:1:pos:R:3:forces:R:3 energy=-11.27355531525025 pbc="F F F"
P        0.00000000       0.00000000       0.00000000       0.00000000       0.00000000       0.70870739
P        0.00000000       0.00000000       3.55656566       0.00000000       0.00000000      -0.70870739
2
Properties=species:S:1:pos:R:3:forces:R:3 energy=-11.23405521512313 pbc="F F F"
P        0.00000000       0.00000000       0.00000000       0.00000000       0.00000000       0.61754584
P        0.00000000       0.00000000       3.61616162       0.00000000       0.00000000      -0.61754584
2
Properties=species:S:1:pos:R:3:forces:R:3 energy=-11.199863645442568 pbc="F F F"
P        0.00000000       0.00000000       0.00000000       0.00000000       0.00000000       0.53073323
P        0.00000000       0.00000000       3.67575758       0.00000000       0.00000000      -0.53073323
2
Properties=species:S:1:pos:R:3:forces:R:3 energy=-11.17069063140362 pbc="F F F"
P        0.00000000       0.00000000       0.00000000       0.00000000       0.00000000       0.44926184
P        0.00000000       0.00000000       3.73535354       0.00000000       0.00000000      -0.44926184
2
Properties=species:S:1:pos:R:3:forces:R:3 energy=-11.146195666133865 pbc="F F F"
P        0.00000000       0.00000000       0.00000000       0.00000000       0.00000000       0.37375671
P        0.00000000       0.00000000       3.79494949       0.00000000       0.00000000      -0.37375671
2
Properties=species:S:1:pos:R:3:forces:R:3 energy=-11.126023018817863 pbc="F F F"
P        0.00000000       0.00000000       0.00000000       0.00000000       0.00000000       0.30419284
P        0.00000000       0.00000000       3.85454545       0.00000000       0.00000000      -0.30419284
2
Properties=species:S:1:pos:R:3:forces:R:3 energy=-11.109831303352692 pbc="F F F"
P        0.00000000       0.00000000       0.00000000       0.00000000       0.00000000       0.24004537
P        0.00000000       0.00000000       3.91414141       0.00000000       0.00000000      -0.24004537
2
Properties=species:S:1:pos:R:3:forces:R:3 energy=-11.097317333669112 pbc="F F F"
P        0.00000000       0.00000000       0.00000000       0.00000000       0.00000000       0.18063670
P        0.00000000       0.00000000       3.97373737       0.00000000       0.00000000      -0.18063670
2
Properties=species:S:1:pos:R:3:forces:R:3 energy=-11.08821613798676 pbc="F F F"
P        0.00000000       0.00000000       0.00000000       0.00000000       0.00000000       0.12549840
P        0.00000000       0.00000000       4.03333333       0.00000000       0.00000000      -0.12549840
2
Properties=species:S:1:pos:R:3:forces:R:3 energy=-11.082275207231739 pbc="F F F"
P        0.00000000       0.00000000       0.00000000       0.00000000       0.00000000       0.07459425
P        0.00000000       0.00000000       4.09292929       0.00000000       0.00000000      -0.07459425
2
Properties=species:S:1:pos:R:3:forces:R:3 energy=-11.079232570030806 pbc="F F F"
P        0.00000000       0.00000000       0.00000000       0.00000000       0.00000000       0.02836682
P        0.00000000       0.00000000       4.15252525       0.00000000       0.00000000      -0.02836682
2
Properties=species:S:1:pos:R:3:forces:R:3 energy=-11.078785323834802 pbc="F F F"
P        0.00000000       0.00000000       0.00000000       0.00000000       0.00000000      -0.01239753
P        0.00000000       0.00000000       4.21212121       0.00000000       0.00000000       0.01239753
2
Properties=species:S:1:pos:R:3:forces:R:3 energy=-11.080583901785376 pbc="F F F"
P        0.00000000       0.00000000       0.00000000       0.00000000       0.00000000      -0.04680735
P        0.00000000       0.00000000       4.27171717       0.00000000       0.00000000       0.04680735
2
Properties=species:S:1:pos:R:3:forces:R:3 energy=-11.084223507069153 pbc="F F F"
P        0.00000000       0.00000000       0.00000000       0.00000000       0.00000000      -0.07411066
P        0.00000000       0.00000000       4.33131313       0.00000000       0.00000000       0.07411066
2
Properties=species:S:1:pos:R:3:forces:R:3 energy=-11.08926793656067 pbc="F F F"
P        0.00000000       0.00000000       0.00000000       0.00000000       0.00000000      -0.09390742
P        0.00000000       0.00000000       4.39090909       0.00000000       0.00000000       0.09390742
2
Properties=species:S:1:pos:R:3:forces:R:3 energy=-11.095267697466571 pbc="F F F"
P        0.00000000       0.00000000       0.00000000       0.00000000       0.00000000      -0.10625459
P        0.00000000       0.00000000       4.45050505       0.00000000       0.00000000       0.10625459
2
Properties=species:S:1:pos:R:3:forces:R:3 energy=-11.101794342768812 pbc="F F F"
P        0.00000000       0.00000000       0.00000000       0.00000000       0.00000000      -0.11168297
P        0.00000000       0.00000000       4.51010101       0.00000000       0.00000000       0.11168297
2
Properties=species:S:1:pos:R:3:forces:R:3 energy=-11.108461419589448 pbc="F F F"
P        0.00000000       0.00000000       0.00000000       0.00000000       0.00000000      -0.11114024
P        0.00000000       0.00000000       4.56969697       0.00000000       0.00000000       0.11114024
2
Properties=species:S:1:pos:R:3:forces:R:3 energy=-11.114947374797248 pbc="F F F"
P        0.00000000       0.00000000       0.00000000       0.00000000       0.00000000      -0.10588923
P        0.00000000       0.00000000       4.62929293       0.00000000       0.00000000       0.10588923
2
Properties=species:S:1:pos:R:3:forces:R:3 energy=-11.121017458630707 pbc="F F F"
P        0.00000000       0.00000000       0.00000000       0.00000000       0.00000000      -0.09738859
P        0.00000000       0.00000000       4.68888889       0.00000000       0.00000000       0.09738859
2
Properties=species:S:1:pos:R:3:forces:R:3 energy=-11.12652086129923 pbc="F F F"
P        0.00000000       0.00000000       0.00000000       0.00000000       0.00000000      -0.08714129
P        0.00000000       0.00000000       4.74848485       0.00000000       0.00000000       0.08714129
2
Properties=species:S:1:pos:R:3:forces:R:3 energy=-11.131397363756749 pbc="F F F"
P        0.00000000       0.00000000       0.00000000       0.00000000       0.00000000      -0.07651426
P        0.00000000       0.00000000       4.80808081       0.00000000       0.00000000       0.07651426
2
Properties=species:S:1:pos:R:3:forces:R:3 energy=-11.13565445426986 pbc="F F F"
P        0.00000000       0.00000000       0.00000000       0.00000000       0.00000000      -0.06654146
P        0.00000000       0.00000000       4.86767677       0.00000000       0.00000000       0.06654146
2
Properties=species:S:1:pos:R:3:forces:R:3 energy=-11.13935204824596 pbc="F F F"
P        0.00000000       0.00000000       0.00000000       0.00000000       0.00000000      -0.05776391
P        0.00000000       0.00000000       4.92727273       0.00000000       0.00000000       0.05776391
2
Properties=species:S:1:pos:R:3:forces:R:3 energy=-11.142563374519014 pbc="F F F"
P        0.00000000       0.00000000       0.00000000       0.00000000       0.00000000      -0.05016145
P        0.00000000       0.00000000       4.98686869       0.00000000       0.00000000       0.05016145
2
Properties=species:S:1:pos:R:3:forces:R:3 energy=-11.14534540946585 pbc="F F F"
P        0.00000000       0.00000000       0.00000000       0.00000000       0.00000000      -0.04328897
P        0.00000000       0.00000000       5.04646465       0.00000000       0.00000000       0.04328897
2
Properties=species:S:1:pos:R:3:forces:R:3 energy=-11.147725508142711 pbc="F F F"
P        0.00000000       0.00000000       0.00000000       0.00000000       0.00000000      -0.03658777
P        0.00000000       0.00000000       5.10606061       0.00000000       0.00000000       0.03658777
2
Properties=species:S:1:pos:R:3:forces:R:3 energy=-11.149703314405736 pbc="F F F"
P        0.00000000       0.00000000       0.00000000       0.00000000       0.00000000      -0.02974867
P        0.00000000       0.00000000       5.16565657       0.00000000       0.00000000       0.02974867
2
Properties=species:S:1:pos:R:3:forces:R:3 energy=-11.151269828061634 pbc="F F F"
P        0.00000000       0.00000000       0.00000000       0.00000000       0.00000000      -0.02279194
P        0.00000000       0.00000000       5.22525253       0.00000000       0.00000000       0.02279194
2
Properties=species:S:1:pos:R:3:forces:R:3 energy=-11.15241597764112 pbc="F F F"
P        0.00000000       0.00000000       0.00000000       0.00000000       0.00000000      -0.01562899
P        0.00000000       0.00000000       5.28484848       0.00000000       0.00000000       0.01562899
2
Properties=species:S:1:pos:R:3:forces:R:3 energy=-11.153116418230955 pbc="F F F"
P        0.00000000       0.00000000       0.00000000       0.00000000       0.00000000      -0.00771594
P        0.00000000       0.00000000       5.34444444       0.00000000       0.00000000       0.00771594
2
Properties=species:S:1:pos:R:3:forces:R:3 energy=-11.153340009616109 pbc="F F F"
P        0.00000000       0.00000000       0.00000000       0.00000000       0.00000000      -0.00026846
P        0.00000000       0.00000000       5.40404040       0.00000000       0.00000000       0.00026846
2
Properties=species:S:1:pos:R:3:forces:R:3 energy=-11.15330255383284 pbc="F F F"
P        0.00000000       0.00000000       0.00000000       0.00000000       0.00000000      -0.00056666
P        0.00000000       0.00000000       5.46363636       0.00000000       0.00000000       0.00056666
2
Properties=species:S:1:pos:R:3:forces:R:3 energy=-11.153668014905762 pbc="F F F"
P        0.00000000       0.00000000       0.00000000       0.00000000       0.00000000      -0.01309680
P        0.00000000       0.00000000       5.52323232       0.00000000       0.00000000       0.01309680
2
Properties=species:S:1:pos:R:3:forces:R:3 energy=-11.154838041381566 pbc="F F F"
P        0.00000000       0.00000000       0.00000000       0.00000000       0.00000000      -0.02462088
P        0.00000000       0.00000000       5.58282828       0.00000000       0.00000000       0.02462088
2
Properties=species:S:1:pos:R:3:forces:R:3 energy=-11.156413133608634 pbc="F F F"
P        0.00000000       0.00000000       0.00000000       0.00000000       0.00000000      -0.02744013
P        0.00000000       0.00000000       5.64242424       0.00000000       0.00000000       0.02744013
2
Properties=species:S:1:pos:R:3:forces:R:3 energy=-11.158193067101873 pbc="F F F"
P        0.00000000       0.00000000       0.00000000       0.00000000       0.00000000      -0.03438105
P        0.00000000       0.00000000       5.70202020       0.00000000       0.00000000       0.03438105
2
Properties=species:S:1:pos:R:3:forces:R:3 energy=-11.160792962191346 pbc="F F F"
P        0.00000000       0.00000000       0.00000000       0.00000000       0.00000000      -0.05425725
P        0.00000000       0.00000000       5.76161616       0.00000000       0.00000000       0.05425725
2
Properties=species:S:1:pos:R:3:forces:R:3 energy=-11.164464548308858 pbc="F F F"
P        0.00000000       0.00000000       0.00000000       0.00000000       0.00000000      -0.06425242
P        0.00000000       0.00000000       5.82121212       0.00000000       0.00000000       0.06425242
2
Properties=species:S:1:pos:R:3:forces:R:3 energy=-11.167783915256198 pbc="F F F"
P        0.00000000       0.00000000       0.00000000       0.00000000       0.00000000      -0.04307238
P        0.00000000       0.00000000       5.88080808       0.00000000       0.00000000       0.04307238
2
Properties=species:S:1:pos:R:3:forces:R:3 energy=-11.169396741361913 pbc="F F F"
P        0.00000000       0.00000000       0.00000000       0.00000000       0.00000000      -0.01148387
P        0.00000000       0.00000000       5.94040404       0.00000000       0.00000000       0.01148387
2
Properties=species:S:1:pos:R:3:forces:R:3 energy=-11.16953750141909 pbc="F F F"
P        0.00000000       0.00000000       0.00000000       0.00000000       0.00000000       0.00213214
P        0.00000000       0.00000000       6.00000000       0.00000000       0.00000000      -0.00213214
