2
Properties=species:S:1:pos:R:3:forces:R:3 energy=8316.44148298167 pbc="F F F"
Se       0.00000000       0.00000000       0.00000000       0.00000000       0.00000000 -526935.81250000
Se       0.00000000       0.00000000       0.10000000       0.00000000       0.00000000  526935.81250000
2
Properties=species:S:1:pos:R:3:forces:R:3 energy=-7388.516036549579 pbc="F F F"
Se       0.00000000       0.00000000       0.00000000       0.00000000       0.00000000 -116808.61718750
Se       0.00000000       0.00000000       0.15959596       0.00000000       0.00000000  116808.61718750
2
Properties=species:S:1:pos:R:3:forces:R:3 energy=-11157.16691545583 pbc="F F F"
Se       0.00000000       0.00000000       0.00000000       0.00000000       0.00000000  -26578.06640625
Se       0.00000000       0.00000000       0.21919192       0.00000000       0.00000000   26578.06640625
2
Properties=species:S:1:pos:R:3:forces:R:3 energy=-11426.70402483083 pbc="F F F"
Se       0.00000000       0.00000000       0.00000000       0.00000000       0.00000000   13690.58496094
Se       0.00000000       0.00000000       0.27878788       0.00000000       0.00000000  -13690.58496094
2
Properties=species:S:1:pos:R:3:forces:R:3 energy=-9741.809493580038 pbc="F F F"
Se       0.00000000       0.00000000       0.00000000       0.00000000       0.00000000   41444.60937500
Se       0.00000000       0.00000000       0.33838384       0.00000000       0.00000000  -41444.60937500
2
Properties=species:S:1:pos:R:3:forces:R:3 energy=-6725.910079516745 pbc="F F F"
Se       0.00000000       0.00000000       0.00000000       0.00000000       0.00000000   56863.27734375
Se       0.00000000       0.00000000       0.39797980       0.00000000       0.00000000  -56863.27734375
2
Properties=species:S:1:pos:R:3:forces:R:3 energy=-3402.0685267807867 pbc="F F F"
Se       0.00000000       0.00000000       0.00000000       0.00000000       0.00000000   50738.65234375
Se       0.00000000       0.00000000       0.45757576       0.00000000       0.00000000  -50738.65234375
2
Properties=species:S:1:pos:R:3:forces:R:3 energy=-1037.7773890823062 pbc="F F F"
Se       0.00000000       0.00000000       0.00000000       0.00000000       0.00000000   27284.58398438
Se       0.00000000       0.00000000       0.51717172       0.00000000       0.00000000  -27284.58398438
2
Properties=species:S:1:pos:R:3:forces:R:3 energy=-69.65866043985919 pbc="F F F"
Se       0.00000000       0.00000000       0.00000000       0.00000000       0.00000000    7336.78759766
Se       0.00000000       0.00000000       0.57676768       0.00000000       0.00000000   -7336.78759766
2
Properties=species:S:1:pos:R:3:forces:R:3 energy=426.0284275823396 pbc="F F F"
Se       0.00000000       0.00000000       0.00000000       0.00000000       0.00000000   -5041.49609375
Se       0.00000000       0.00000000       0.63636364       0.00000000       0.00000000    5041.49609375
2
Properties=species:S:1:pos:R:3:forces:R:3 energy=166.93898057431846 pbc="F F F"
Se       0.00000000       0.00000000       0.00000000       0.00000000       0.00000000   -3792.52490234
Se       0.00000000       0.00000000       0.69595960       0.00000000       0.00000000    3792.52490234
2
Properties=species:S:1:pos:R:3:forces:R:3 energy=64.63449909014557 pbc="F F F"
Se       0.00000000       0.00000000       0.00000000       0.00000000       0.00000000    -304.49060059
Se       0.00000000       0.00000000       0.75555556       0.00000000       0.00000000     304.49060059
2
Properties=species:S:1:pos:R:3:forces:R:3 energy=68.9716725845298 pbc="F F F"
Se       0.00000000       0.00000000       0.00000000       0.00000000       0.00000000     427.00039673
Se       0.00000000       0.00000000       0.81515152       0.00000000       0.00000000    -427.00039673
2
Properties=species:S:1:pos:R:3:forces:R:3 energy=90.20801601425228 pbc="F F F"
Se       0.00000000       0.00000000       0.00000000       0.00000000       0.00000000     300.90957642
Se       0.00000000       0.00000000       0.87474747       0.00000000       0.00000000    -300.90957642
2
Properties=species:S:1:pos:R:3:forces:R:3 energy=103.57238070479998 pbc="F F F"
Se       0.00000000       0.00000000       0.00000000       0.00000000       0.00000000     100.99720001
Se       0.00000000       0.00000000       0.93434343       0.00000000       0.00000000    -100.99720001
2
Properties=species:S:1:pos:R:3:forces:R:3 energy=99.86323620438168 pbc="F F F"
Se       0.00000000       0.00000000       0.00000000       0.00000000       0.00000000    -196.77026367
Se       0.00000000       0.00000000       0.99393939       0.00000000       0.00000000     196.77026367
2
Properties=species:S:1:pos:R:3:forces:R:3 energy=78.93026055729986 pbc="F F F"
Se       0.00000000       0.00000000       0.00000000       0.00000000       0.00000000    -501.33557129
Se       0.00000000       0.00000000       1.05353535       0.00000000       0.00000000     501.33557129
2
Properties=species:S:1:pos:R:3:forces:R:3 energy=48.61416727720239 pbc="F F F"
Se       0.00000000       0.00000000       0.00000000       0.00000000       0.00000000    -475.77630615
Se       0.00000000       0.00000000       1.11313131       0.00000000       0.00000000     475.77630615
2
Properties=species:S:1:pos:R:3:forces:R:3 energy=25.32088212274125 pbc="F F F"
Se       0.00000000       0.00000000       0.00000000       0.00000000       0.00000000    -278.82287598
Se       0.00000000       0.00000000       1.17272727       0.00000000       0.00000000     278.82287598
2
Properties=species:S:1:pos:R:3:forces:R:3 energy=13.89517744545491 pbc="F F F"
Se       0.00000000       0.00000000       0.00000000       0.00000000       0.00000000    -136.83436584
Se       0.00000000       0.00000000       1.23232323       0.00000000       0.00000000     136.83436584
2
Properties=species:S:1:pos:R:3:forces:R:3 energy=6.568080861956032 pbc="F F F"
Se       0.00000000       0.00000000       0.00000000       0.00000000       0.00000000    -117.23621368
Se       0.00000000       0.00000000       1.29191919       0.00000000       0.00000000     117.23621368
2
Properties=species:S:1:pos:R:3:forces:R:3 energy=-0.24438244858919972 pbc="F F F"
Se       0.00000000       0.00000000       0.00000000       0.00000000       0.00000000    -109.88393402
Se       0.00000000       0.00000000       1.35151515       0.00000000       0.00000000     109.88393402
2
Properties=species:S:1:pos:R:3:forces:R:3 energy=-6.379397373179711 pbc="F F F"
Se       0.00000000       0.00000000       0.00000000       0.00000000       0.00000000     -95.48829651
Se       0.00000000       0.00000000       1.41111111       0.00000000       0.00000000      95.48829651
2
Properties=species:S:1:pos:R:3:forces:R:3 energy=-11.607865569633423 pbc="F F F"
Se       0.00000000       0.00000000       0.00000000       0.00000000       0.00000000     -79.85359192
Se       0.00000000       0.00000000       1.47070707       0.00000000       0.00000000      79.85359192
2
Properties=species:S:1:pos:R:3:forces:R:3 energy=-15.883788438512582 pbc="F F F"
Se       0.00000000       0.00000000       0.00000000       0.00000000       0.00000000     -63.66292572
Se       0.00000000       0.00000000       1.53030303       0.00000000       0.00000000      63.66292572
2
Properties=species:S:1:pos:R:3:forces:R:3 energy=-19.221998449533764 pbc="F F F"
Se       0.00000000       0.00000000       0.00000000       0.00000000       0.00000000     -48.75099182
Se       0.00000000       0.00000000       1.58989899       0.00000000       0.00000000      48.75099182
2
Properties=species:S:1:pos:R:3:forces:R:3 energy=-21.750327029272203 pbc="F F F"
Se       0.00000000       0.00000000       0.00000000       0.00000000       0.00000000     -36.59506989
Se       0.00000000       0.00000000       1.64949495       0.00000000       0.00000000      36.59506989
2
Properties=species:S:1:pos:R:3:forces:R:3 energy=-23.640355407232622 pbc="F F F"
Se       0.00000000       0.00000000       0.00000000       0.00000000       0.00000000     -27.26732254
Se       0.00000000       0.00000000       1.70909091       0.00000000       0.00000000      27.26732254
2
Properties=species:S:1:pos:R:3:forces:R:3 energy=-25.04593220060005 pbc="F F F"
Se       0.00000000       0.00000000       0.00000000       0.00000000       0.00000000     -20.22780991
Se       0.00000000       0.00000000       1.76868687       0.00000000       0.00000000      20.22780991
2
Properties=species:S:1:pos:R:3:forces:R:3 energy=-26.082911608531745 pbc="F F F"
Se       0.00000000       0.00000000       0.00000000       0.00000000       0.00000000     -14.78198624
Se       0.00000000       0.00000000       1.82828283       0.00000000       0.00000000      14.78198624
2
Properties=species:S:1:pos:R:3:forces:R:3 energy=-26.828232211868816 pbc="F F F"
Se       0.00000000       0.00000000       0.00000000       0.00000000       0.00000000     -10.37736893
Se       0.00000000       0.00000000       1.88787879       0.00000000       0.00000000      10.37736893
2
Properties=species:S:1:pos:R:3:forces:R:3 energy=-27.336137057198126 pbc="F F F"
Se       0.00000000       0.00000000       0.00000000       0.00000000       0.00000000      -6.79770756
Se       0.00000000       0.00000000       1.94747475       0.00000000       0.00000000       6.79770756
2
Properties=species:S:1:pos:R:3:forces:R:3 energy=-27.65289072960074 pbc="F F F"
Se       0.00000000       0.00000000       0.00000000       0.00000000       0.00000000      -3.94184136
Se       0.00000000       0.00000000       2.00707071       0.00000000       0.00000000       3.94184136
2
Properties=species:S:1:pos:R:3:forces:R:3 energy=-27.817609046139342 pbc="F F F"
Se       0.00000000       0.00000000       0.00000000       0.00000000       0.00000000      -1.67387629
Se       0.00000000       0.00000000       2.06666667       0.00000000       0.00000000       1.67387629
2
Properties=species:S:1:pos:R:3:forces:R:3 energy=-27.86235068066061 pbc="F F F"
Se       0.00000000       0.00000000       0.00000000       0.00000000       0.00000000       0.09008983
Se       0.00000000       0.00000000       2.12626263       0.00000000       0.00000000      -0.09008983
2
Properties=species:S:1:pos:R:3:forces:R:3 energy=-27.816757630561135 pbc="F F F"
Se       0.00000000       0.00000000       0.00000000       0.00000000       0.00000000       1.35736418
Se       0.00000000       0.00000000       2.18585859       0.00000000       0.00000000      -1.35736418
2
Properties=species:S:1:pos:R:3:forces:R:3 energy=-27.709918818362823 pbc="F F F"
Se       0.00000000       0.00000000       0.00000000       0.00000000       0.00000000       2.15641475
Se       0.00000000       0.00000000       2.24545455       0.00000000       0.00000000      -2.15641475
2
Properties=species:S:1:pos:R:3:forces:R:3 energy=-27.566971073696134 pbc="F F F"
Se       0.00000000       0.00000000       0.00000000       0.00000000       0.00000000       2.59414959
Se       0.00000000       0.00000000       2.30505051       0.00000000       0.00000000      -2.59414959
2
Properties=species:S:1:pos:R:3:forces:R:3 energy=-27.403987557757475 pbc="F F F"
Se       0.00000000       0.00000000       0.00000000       0.00000000       0.00000000       2.87000465
Se       0.00000000       0.00000000       2.36464646       0.00000000       0.00000000      -2.87000465
2
Properties=species:S:1:pos:R:3:forces:R:3 energy=-27.22301281285682 pbc="F F F"
Se       0.00000000       0.00000000       0.00000000       0.00000000       0.00000000       3.23515415
Se       0.00000000       0.00000000       2.42424242       0.00000000       0.00000000      -3.23515415
2
Properties=species:S:1:pos:R:3:forces:R:3 energy=-27.014477572700862 pbc="F F F"
Se       0.00000000       0.00000000       0.00000000       0.00000000       0.00000000       3.78470755
Se       0.00000000       0.00000000       2.48383838       0.00000000       0.00000000      -3.78470755
2
Properties=species:S:1:pos:R:3:forces:R:3 energy=-26.772459355057972 pbc="F F F"
Se       0.00000000       0.00000000       0.00000000       0.00000000       0.00000000       4.30191135
Se       0.00000000       0.00000000       2.54343434       0.00000000       0.00000000      -4.30191135
2
Properties=species:S:1:pos:R:3:forces:R:3 energy=-26.50901048211089 pbc="F F F"
Se       0.00000000       0.00000000       0.00000000       0.00000000       0.00000000       4.46272802
Se       0.00000000       0.00000000       2.60303030       0.00000000       0.00000000      -4.46272802
2
Properties=species:S:1:pos:R:3:forces:R:3 energy=-26.249015927147397 pbc="F F F"
Se       0.00000000       0.00000000       0.00000000       0.00000000       0.00000000       4.20955992
Se       0.00000000       0.00000000       2.66262626       0.00000000       0.00000000      -4.20955992
2
Properties=species:S:1:pos:R:3:forces:R:3 energy=-26.010087892433198 pbc="F F F"
Se       0.00000000       0.00000000       0.00000000       0.00000000       0.00000000       3.81441855
Se       0.00000000       0.00000000       2.72222222       0.00000000       0.00000000      -3.81441855
2
Properties=species:S:1:pos:R:3:forces:R:3 energy=-25.79124191522497 pbc="F F F"
Se       0.00000000       0.00000000       0.00000000       0.00000000       0.00000000       3.56729198
Se       0.00000000       0.00000000       2.78181818       0.00000000       0.00000000      -3.56729198
2
Properties=species:S:1:pos:R:3:forces:R:3 energy=-25.580776162986368 pbc="F F F"
Se       0.00000000       0.00000000       0.00000000       0.00000000       0.00000000       3.52053285
Se       0.00000000       0.00000000       2.84141414       0.00000000       0.00000000      -3.52053285
2
Properties=species:S:1:pos:R:3:forces:R:3 energy=-25.370486966104824 pbc="F F F"
Se       0.00000000       0.00000000       0.00000000       0.00000000       0.00000000       3.53068328
Se       0.00000000       0.00000000       2.90101010       0.00000000       0.00000000      -3.53068328
2
Properties=species:S:1:pos:R:3:forces:R:3 energy=-25.16207179992319 pbc="F F F"
Se       0.00000000       0.00000000       0.00000000       0.00000000       0.00000000       3.43795419
Se       0.00000000       0.00000000       2.96060606       0.00000000       0.00000000      -3.43795419
2
Properties=species:S:1:pos:R:3:forces:R:3 energy=-24.963936331651293 pbc="F F F"
Se       0.00000000       0.00000000       0.00000000       0.00000000       0.00000000       3.18666077
Se       0.00000000       0.00000000       3.02020202       0.00000000       0.00000000      -3.18666077
2
Properties=species:S:1:pos:R:3:forces:R:3 energy=-24.784455606382704 pbc="F F F"
Se       0.00000000       0.00000000       0.00000000       0.00000000       0.00000000       2.82524967
Se       0.00000000       0.00000000       3.07979798       0.00000000       0.00000000      -2.82524967
2
Properties=species:S:1:pos:R:3:forces:R:3 energy=-24.627690128602193 pbc="F F F"
Se       0.00000000       0.00000000       0.00000000       0.00000000       0.00000000       2.43767381
Se       0.00000000       0.00000000       3.13939394       0.00000000       0.00000000      -2.43767381
2
Properties=species:S:1:pos:R:3:forces:R:3 energy=-24.493149385009364 pbc="F F F"
Se       0.00000000       0.00000000       0.00000000       0.00000000       0.00000000       2.08678198
Se       0.00000000       0.00000000       3.19898990       0.00000000       0.00000000      -2.08678198
2
Properties=species:S:1:pos:R:3:forces:R:3 energy=-24.377701247011856 pbc="F F F"
Se       0.00000000       0.00000000       0.00000000       0.00000000       0.00000000       1.79853475
Se       0.00000000       0.00000000       3.25858586       0.00000000       0.00000000      -1.79853475
2
Properties=species:S:1:pos:R:3:forces:R:3 energy=-24.27754215336513 pbc="F F F"
Se       0.00000000       0.00000000       0.00000000       0.00000000       0.00000000       1.57224083
Se       0.00000000       0.00000000       3.31818182       0.00000000       0.00000000      -1.57224083
2
Properties=species:S:1:pos:R:3:forces:R:3 energy=-24.189309185500306 pbc="F F F"
Se       0.00000000       0.00000000       0.00000000       0.00000000       0.00000000       1.39594030
Se       0.00000000       0.00000000       3.37777778       0.00000000       0.00000000      -1.39594030
2
Properties=species:S:1:pos:R:3:forces:R:3 energy=-24.110425239021968 pbc="F F F"
Se       0.00000000       0.00000000       0.00000000       0.00000000       0.00000000       1.25656331
Se       0.00000000       0.00000000       3.43737374       0.00000000       0.00000000      -1.25656331
2
Properties=species:S:1:pos:R:3:forces:R:3 energy=-24.039013246080724 pbc="F F F"
Se       0.00000000       0.00000000       0.00000000       0.00000000       0.00000000       1.14364052
Se       0.00000000       0.00000000       3.49696970       0.00000000       0.00000000      -1.14364052
2
Properties=species:S:1:pos:R:3:forces:R:3 energy=-23.973741604106213 pbc="F F F"
Se       0.00000000       0.00000000       0.00000000       0.00000000       0.00000000       1.04940379
Se       0.00000000       0.00000000       3.55656566       0.00000000       0.00000000      -1.04940379
2
Properties=species:S:1:pos:R:3:forces:R:3 energy=-23.913679293338735 pbc="F F F"
Se       0.00000000       0.00000000       0.00000000       0.00000000       0.00000000       0.96803719
Se       0.00000000       0.00000000       3.61616162       0.00000000       0.00000000      -0.96803719
2
Properties=species:S:1:pos:R:3:forces:R:3 energy=-23.85819284515705 pbc="F F F"
Se       0.00000000       0.00000000       0.00000000       0.00000000       0.00000000       0.89514053
Se       0.00000000       0.00000000       3.67575758       0.00000000       0.00000000      -0.89514053
2
Properties=species:S:1:pos:R:3:forces:R:3 energy=-23.8068815001444 pbc="F F F"
Se       0.00000000       0.00000000       0.00000000       0.00000000       0.00000000       0.82751727
Se       0.00000000       0.00000000       3.73535354       0.00000000       0.00000000      -0.82751727
2
Properties=species:S:1:pos:R:3:forces:R:3 energy=-23.75949710419769 pbc="F F F"
Se       0.00000000       0.00000000       0.00000000       0.00000000       0.00000000       0.76304561
Se       0.00000000       0.00000000       3.79494949       0.00000000       0.00000000      -0.76304561
2
Properties=species:S:1:pos:R:3:forces:R:3 energy=-23.715894549141215 pbc="F F F"
Se       0.00000000       0.00000000       0.00000000       0.00000000       0.00000000       0.70046204
Se       0.00000000       0.00000000       3.85454545       0.00000000       0.00000000      -0.70046204
2
Properties=species:S:1:pos:R:3:forces:R:3 energy=-23.67598402011076 pbc="F F F"
Se       0.00000000       0.00000000       0.00000000       0.00000000       0.00000000       0.63911653
Se       0.00000000       0.00000000       3.91414141       0.00000000       0.00000000      -0.63911653
2
Properties=species:S:1:pos:R:3:forces:R:3 energy=-23.639698676748843 pbc="F F F"
Se       0.00000000       0.00000000       0.00000000       0.00000000       0.00000000       0.57867664
Se       0.00000000       0.00000000       3.97373737       0.00000000       0.00000000      -0.57867664
2
Properties=species:S:1:pos:R:3:forces:R:3 energy=-23.606996458391098 pbc="F F F"
Se       0.00000000       0.00000000       0.00000000       0.00000000       0.00000000       0.51893860
Se       0.00000000       0.00000000       4.03333333       0.00000000       0.00000000      -0.51893860
2
Properties=species:S:1:pos:R:3:forces:R:3 energy=-23.57783539465609 pbc="F F F"
Se       0.00000000       0.00000000       0.00000000       0.00000000       0.00000000       0.45969662
Se       0.00000000       0.00000000       4.09292929       0.00000000       0.00000000      -0.45969662
2
Properties=species:S:1:pos:R:3:forces:R:3 energy=-23.552196416017274 pbc="F F F"
Se       0.00000000       0.00000000       0.00000000       0.00000000       0.00000000       0.40078732
Se       0.00000000       0.00000000       4.15252525       0.00000000       0.00000000      -0.40078732
2
Properties=species:S:1:pos:R:3:forces:R:3 energy=-23.53006051788845 pbc="F F F"
Se       0.00000000       0.00000000       0.00000000       0.00000000       0.00000000       0.34218505
Se       0.00000000       0.00000000       4.21212121       0.00000000       0.00000000      -0.34218505
2
Properties=species:S:1:pos:R:3:forces:R:3 energy=-23.511401101134933 pbc="F F F"
Se       0.00000000       0.00000000       0.00000000       0.00000000       0.00000000       0.28415307
Se       0.00000000       0.00000000       4.27171717       0.00000000       0.00000000      -0.28415307
2
Properties=species:S:1:pos:R:3:forces:R:3 energy=-23.49616684315777 pbc="F F F"
Se       0.00000000       0.00000000       0.00000000       0.00000000       0.00000000       0.22732918
Se       0.00000000       0.00000000       4.33131313       0.00000000       0.00000000      -0.22732918
2
Properties=species:S:1:pos:R:3:forces:R:3 energy=-23.484260695675967 pbc="F F F"
Se       0.00000000       0.00000000       0.00000000       0.00000000       0.00000000       0.17268710
Se       0.00000000       0.00000000       4.39090909       0.00000000       0.00000000      -0.17268710
2
Properties=species:S:1:pos:R:3:forces:R:3 energy=-23.475516999710734 pbc="F F F"
Se       0.00000000       0.00000000       0.00000000       0.00000000       0.00000000       0.12139101
Se       0.00000000       0.00000000       4.45050505       0.00000000       0.00000000      -0.12139101
2
Properties=species:S:1:pos:R:3:forces:R:3 energy=-23.46970339610192 pbc="F F F"
Se       0.00000000       0.00000000       0.00000000       0.00000000       0.00000000       0.07461204
Se       0.00000000       0.00000000       4.51010101       0.00000000       0.00000000      -0.07461204
2
Properties=species:S:1:pos:R:3:forces:R:3 energy=-23.466515108213873 pbc="F F F"
Se       0.00000000       0.00000000       0.00000000       0.00000000       0.00000000       0.03332529
Se       0.00000000       0.00000000       4.56969697       0.00000000       0.00000000      -0.03332529
2
Properties=species:S:1:pos:R:3:forces:R:3 energy=-23.465607347063283 pbc="F F F"
Se       0.00000000       0.00000000       0.00000000       0.00000000       0.00000000      -0.00180097
Se       0.00000000       0.00000000       4.62929293       0.00000000       0.00000000       0.00180097
2
Properties=species:S:1:pos:R:3:forces:R:3 energy=-23.4666029502172 pbc="F F F"
Se       0.00000000       0.00000000       0.00000000       0.00000000       0.00000000      -0.03049122
Se       0.00000000       0.00000000       4.68888889       0.00000000       0.00000000       0.03049122
2
Properties=species:S:1:pos:R:3:forces:R:3 energy=-23.46911716861374 pbc="F F F"
Se       0.00000000       0.00000000       0.00000000       0.00000000       0.00000000      -0.05289907
Se       0.00000000       0.00000000       4.74848485       0.00000000       0.00000000       0.05289907
2
Properties=species:S:1:pos:R:3:forces:R:3 energy=-23.47279389272286 pbc="F F F"
Se       0.00000000       0.00000000       0.00000000       0.00000000       0.00000000      -0.06959790
Se       0.00000000       0.00000000       4.80808081       0.00000000       0.00000000       0.06959790
2
Properties=species:S:1:pos:R:3:forces:R:3 energy=-23.47731900913451 pbc="F F F"
Se       0.00000000       0.00000000       0.00000000       0.00000000       0.00000000      -0.08156576
Se       0.00000000       0.00000000       4.86767677       0.00000000       0.00000000       0.08156576
2
Properties=species:S:1:pos:R:3:forces:R:3 energy=-23.482447086808428 pbc="F F F"
Se       0.00000000       0.00000000       0.00000000       0.00000000       0.00000000      -0.09007268
Se       0.00000000       0.00000000       4.92727273       0.00000000       0.00000000       0.09007268
2
Properties=species:S:1:pos:R:3:forces:R:3 energy=-23.488012814434295 pbc="F F F"
Se       0.00000000       0.00000000       0.00000000       0.00000000       0.00000000      -0.09648433
Se       0.00000000       0.00000000       4.98686869       0.00000000       0.00000000       0.09648433
2
Properties=species:S:1:pos:R:3:forces:R:3 energy=-23.493929084371604 pbc="F F F"
Se       0.00000000       0.00000000       0.00000000       0.00000000       0.00000000      -0.10196728
Se       0.00000000       0.00000000       5.04646465       0.00000000       0.00000000       0.10196728
2
Properties=species:S:1:pos:R:3:forces:R:3 energy=-23.500160278681438 pbc="F F F"
Se       0.00000000       0.00000000       0.00000000       0.00000000       0.00000000      -0.10713991
Se       0.00000000       0.00000000       5.10606061       0.00000000       0.00000000       0.10713991
2
Properties=species:S:1:pos:R:3:forces:R:3 energy=-23.506687930911383 pbc="F F F"
Se       0.00000000       0.00000000       0.00000000       0.00000000       0.00000000      -0.11172461
Se       0.00000000       0.00000000       5.16565657       0.00000000       0.00000000       0.11172461
2
Properties=species:S:1:pos:R:3:forces:R:3 energy=-23.513436335935065 pbc="F F F"
Se       0.00000000       0.00000000       0.00000000       0.00000000       0.00000000      -0.11421867
Se       0.00000000       0.00000000       5.22525253       0.00000000       0.00000000       0.11421867
2
Properties=species:S:1:pos:R:3:forces:R:3 energy=-23.520205774535032 pbc="F F F"
Se       0.00000000       0.00000000       0.00000000       0.00000000       0.00000000      -0.11181462
Se       0.00000000       0.00000000       5.28484848       0.00000000       0.00000000       0.11181462
2
Properties=species:S:1:pos:R:3:forces:R:3 energy=-23.52661148062235 pbc="F F F"
Se       0.00000000       0.00000000       0.00000000       0.00000000       0.00000000      -0.10190400
Se       0.00000000       0.00000000       5.34444444       0.00000000       0.00000000       0.10190400
2
Properties=species:S:1:pos:R:3:forces:R:3 energy=-23.532266741953638 pbc="F F F"
Se       0.00000000       0.00000000       0.00000000       0.00000000       0.00000000      -0.08828265
Se       0.00000000       0.00000000       5.40404040       0.00000000       0.00000000       0.08828265
2
Properties=species:S:1:pos:R:3:forces:R:3 energy=-23.537370356382365 pbc="F F F"
Se       0.00000000       0.00000000       0.00000000       0.00000000       0.00000000      -0.08622910
Se       0.00000000       0.00000000       5.46363636       0.00000000       0.00000000       0.08622910
2
Properties=species:S:1:pos:R:3:forces:R:3 energy=-23.54287065908954 pbc="F F F"
Se       0.00000000       0.00000000       0.00000000       0.00000000       0.00000000      -0.09902317
Se       0.00000000       0.00000000       5.52323232       0.00000000       0.00000000       0.09902317
2
Properties=species:S:1:pos:R:3:forces:R:3 energy=-23.54888815397589 pbc="F F F"
Se       0.00000000       0.00000000       0.00000000       0.00000000       0.00000000      -0.09866654
Se       0.00000000       0.00000000       5.58282828       0.00000000       0.00000000       0.09866654
2
Properties=species:S:1:pos:R:3:forces:R:3 energy=-23.55423866185248 pbc="F F F"
Se       0.00000000       0.00000000       0.00000000       0.00000000       0.00000000      -0.08001618
Se       0.00000000       0.00000000       5.64242424       0.00000000       0.00000000       0.08001618
2
Properties=species:S:1:pos:R:3:forces:R:3 energy=-23.558680190593396 pbc="F F F"
Se       0.00000000       0.00000000       0.00000000       0.00000000       0.00000000      -0.07353640
Se       0.00000000       0.00000000       5.70202020       0.00000000       0.00000000       0.07353640
2
Properties=species:S:1:pos:R:3:forces:R:3 energy=-23.563557611846058 pbc="F F F"
Se       0.00000000       0.00000000       0.00000000       0.00000000       0.00000000      -0.09271521
Se       0.00000000       0.00000000       5.76161616       0.00000000       0.00000000       0.09271521
2
Properties=species:S:1:pos:R:3:forces:R:3 energy=-23.569460442453803 pbc="F F F"
Se       0.00000000       0.00000000       0.00000000       0.00000000       0.00000000      -0.09868199
Se       0.00000000       0.00000000       5.82121212       0.00000000       0.00000000       0.09868199
2
Properties=species:S:1:pos:R:3:forces:R:3 energy=-23.574426126795508 pbc="F F F"
Se       0.00000000       0.00000000       0.00000000       0.00000000       0.00000000      -0.06302422
Se       0.00000000       0.00000000       5.88080808       0.00000000       0.00000000       0.06302422
2
Properties=species:S:1:pos:R:3:forces:R:3 energy=-23.57678198189273 pbc="F F F"
Se       0.00000000       0.00000000       0.00000000       0.00000000       0.00000000      -0.01707516
Se       0.00000000       0.00000000       5.94040404       0.00000000       0.00000000       0.01707516
2
Properties=species:S:1:pos:R:3:forces:R:3 energy=-23.577029670926184 pbc="F F F"
Se       0.00000000       0.00000000       0.00000000       0.00000000       0.00000000       0.00220134
Se       0.00000000       0.00000000       6.00000000       0.00000000       0.00000000      -0.00220134
