2
Properties=species:S:1:pos:R:3:forces:R:3 energy=1223579.4882941663 pbc="F F F"
Ti       0.00000000       0.00000000       0.00000000       0.00000000       0.00000000 -285549.09375000
Ti       0.00000000       0.00000000       0.10000000       0.00000000       0.00000000  285549.09375000
2
Properties=species:S:1:pos:R:3:forces:R:3 energy=1209775.1132941663 pbc="F F F"
Ti       0.00000000       0.00000000       0.00000000       0.00000000       0.00000000 -261441.29687500
Ti       0.00000000       0.00000000       0.15959596       0.00000000       0.00000000  261441.29687500
2
Properties=species:S:1:pos:R:3:forces:R:3 energy=1184841.8632941663 pbc="F F F"
Ti       0.00000000       0.00000000       0.00000000       0.00000000       0.00000000 -636029.93750000
Ti       0.00000000       0.00000000       0.21919192       0.00000000       0.00000000  636029.93750000
2
Properties=species:S:1:pos:R:3:forces:R:3 energy=1126222.8632941663 pbc="F F F"
Ti       0.00000000       0.00000000       0.00000000       0.00000000       0.00000000 -1398912.12500000
Ti       0.00000000       0.00000000       0.27878788       0.00000000       0.00000000 1398912.12500000
2
Properties=species:S:1:pos:R:3:forces:R:3 energy=1010711.363294167 pbc="F F F"
Ti       0.00000000       0.00000000       0.00000000       0.00000000       0.00000000 -2524963.25000000
Ti       0.00000000       0.00000000       0.33838384       0.00000000       0.00000000 2524963.25000000
2
Properties=species:S:1:pos:R:3:forces:R:3 energy=823180.800794167 pbc="F F F"
Ti       0.00000000       0.00000000       0.00000000       0.00000000       0.00000000 -3743428.25000000
Ti       0.00000000       0.00000000       0.39797980       0.00000000       0.00000000 3743428.25000000
2
Properties=species:S:1:pos:R:3:forces:R:3 energy=574422.1132941678 pbc="F F F"
Ti       0.00000000       0.00000000       0.00000000       0.00000000       0.00000000 -4460965.50000000
Ti       0.00000000       0.00000000       0.45757576       0.00000000       0.00000000 4460965.50000000
2
Properties=species:S:1:pos:R:3:forces:R:3 energy=323105.5195441701 pbc="F F F"
Ti       0.00000000       0.00000000       0.00000000       0.00000000       0.00000000 -3901566.25000000
Ti       0.00000000       0.00000000       0.51717172       0.00000000       0.00000000 3901566.25000000
2
Properties=species:S:1:pos:R:3:forces:R:3 energy=126862.58985667174 pbc="F F F"
Ti       0.00000000       0.00000000       0.00000000       0.00000000       0.00000000 -2529204.50000000
Ti       0.00000000       0.00000000       0.57676768       0.00000000       0.00000000 2529204.50000000
2
Properties=species:S:1:pos:R:3:forces:R:3 energy=31626.923841052274 pbc="F F F"
Ti       0.00000000       0.00000000       0.00000000       0.00000000       0.00000000 -680709.81250000
Ti       0.00000000       0.00000000       0.63636364       0.00000000       0.00000000  680709.81250000
2
Properties=species:S:1:pos:R:3:forces:R:3 energy=6467.027356685987 pbc="F F F"
Ti       0.00000000       0.00000000       0.00000000       0.00000000       0.00000000 -233796.17187500
Ti       0.00000000       0.00000000       0.69595960       0.00000000       0.00000000  233796.17187500
2
Properties=species:S:1:pos:R:3:forces:R:3 energy=586.1131721267622 pbc="F F F"
Ti       0.00000000       0.00000000       0.00000000       0.00000000       0.00000000  -27203.21093750
Ti       0.00000000       0.00000000       0.75555556       0.00000000       0.00000000   27203.21093750
2
Properties=species:S:1:pos:R:3:forces:R:3 energy=-18.63085594724552 pbc="F F F"
Ti       0.00000000       0.00000000       0.00000000       0.00000000       0.00000000   -2022.87634277
Ti       0.00000000       0.00000000       0.81515152       0.00000000       0.00000000    2022.87634277
2
Properties=species:S:1:pos:R:3:forces:R:3 energy=-25.249399546780875 pbc="F F F"
Ti       0.00000000       0.00000000       0.00000000       0.00000000       0.00000000    -103.41087341
Ti       0.00000000       0.00000000       0.87474747       0.00000000       0.00000000     103.41087341
2
Properties=species:S:1:pos:R:3:forces:R:3 energy=-29.498415320040298 pbc="F F F"
Ti       0.00000000       0.00000000       0.00000000       0.00000000       0.00000000       5.67736340
Ti       0.00000000       0.00000000       0.93434343       0.00000000       0.00000000      -5.67736340
2
Properties=species:S:1:pos:R:3:forces:R:3 energy=-26.936695376529876 pbc="F F F"
Ti       0.00000000       0.00000000       0.00000000       0.00000000       0.00000000      53.34296417
Ti       0.00000000       0.00000000       0.99393939       0.00000000       0.00000000     -53.34296417
2
Properties=species:S:1:pos:R:3:forces:R:3 energy=-23.92989179584846 pbc="F F F"
Ti       0.00000000       0.00000000       0.00000000       0.00000000       0.00000000      46.88815308
Ti       0.00000000       0.00000000       1.05353535       0.00000000       0.00000000     -46.88815308
2
Properties=species:S:1:pos:R:3:forces:R:3 energy=-21.374998213497094 pbc="F F F"
Ti       0.00000000       0.00000000       0.00000000       0.00000000       0.00000000      38.83535767
Ti       0.00000000       0.00000000       1.11313131       0.00000000       0.00000000     -38.83535767
2
Properties=species:S:1:pos:R:3:forces:R:3 energy=-19.284051899569864 pbc="F F F"
Ti       0.00000000       0.00000000       0.00000000       0.00000000       0.00000000      31.34219551
Ti       0.00000000       0.00000000       1.17272727       0.00000000       0.00000000     -31.34219551
2
Properties=species:S:1:pos:R:3:forces:R:3 energy=-17.64160523194593 pbc="F F F"
Ti       0.00000000       0.00000000       0.00000000       0.00000000       0.00000000      23.85300827
Ti       0.00000000       0.00000000       1.23232323       0.00000000       0.00000000     -23.85300827
2
Properties=species:S:1:pos:R:3:forces:R:3 energy=-16.477536816662884 pbc="F F F"
Ti       0.00000000       0.00000000       0.00000000       0.00000000       0.00000000      14.88561153
Ti       0.00000000       0.00000000       1.29191919       0.00000000       0.00000000     -14.88561153
2
Properties=species:S:1:pos:R:3:forces:R:3 energy=-15.870911971053003 pbc="F F F"
Ti       0.00000000       0.00000000       0.00000000       0.00000000       0.00000000       5.42430735
Ti       0.00000000       0.00000000       1.35151515       0.00000000       0.00000000      -5.42430735
2
Properties=species:S:1:pos:R:3:forces:R:3 energy=-15.80180556336842 pbc="F F F"
Ti       0.00000000       0.00000000       0.00000000       0.00000000       0.00000000      -2.59911442
Ti       0.00000000       0.00000000       1.41111111       0.00000000       0.00000000       2.59911442
2
Properties=species:S:1:pos:R:3:forces:R:3 energy=-16.1535784468376 pbc="F F F"
Ti       0.00000000       0.00000000       0.00000000       0.00000000       0.00000000      -9.02383709
Ti       0.00000000       0.00000000       1.47070707       0.00000000       0.00000000       9.02383709
2
Properties=species:S:1:pos:R:3:forces:R:3 energy=-16.781952080899188 pbc="F F F"
Ti       0.00000000       0.00000000       0.00000000       0.00000000       0.00000000     -10.93457699
Ti       0.00000000       0.00000000       1.53030303       0.00000000       0.00000000      10.93457699
2
Properties=species:S:1:pos:R:3:forces:R:3 energy=-17.370856847539724 pbc="F F F"
Ti       0.00000000       0.00000000       0.00000000       0.00000000       0.00000000      -8.58596325
Ti       0.00000000       0.00000000       1.58989899       0.00000000       0.00000000       8.58596325
2
Properties=species:S:1:pos:R:3:forces:R:3 energy=-17.80031859615147 pbc="F F F"
Ti       0.00000000       0.00000000       0.00000000       0.00000000       0.00000000      -5.83002806
Ti       0.00000000       0.00000000       1.64949495       0.00000000       0.00000000       5.83002806
2
Properties=species:S:1:pos:R:3:forces:R:3 energy=-18.0670376056801 pbc="F F F"
Ti       0.00000000       0.00000000       0.00000000       0.00000000       0.00000000      -3.17691541
Ti       0.00000000       0.00000000       1.70909091       0.00000000       0.00000000       3.17691541
2
Properties=species:S:1:pos:R:3:forces:R:3 energy=-18.194060358568514 pbc="F F F"
Ti       0.00000000       0.00000000       0.00000000       0.00000000       0.00000000      -1.26256609
Ti       0.00000000       0.00000000       1.76868687       0.00000000       0.00000000       1.26256609
2
Properties=species:S:1:pos:R:3:forces:R:3 energy=-18.237834868491063 pbc="F F F"
Ti       0.00000000       0.00000000       0.00000000       0.00000000       0.00000000      -0.33888072
Ti       0.00000000       0.00000000       1.82828283       0.00000000       0.00000000       0.33888072
2
Properties=species:S:1:pos:R:3:forces:R:3 energy=-18.24404599425038 pbc="F F F"
Ti       0.00000000       0.00000000       0.00000000       0.00000000       0.00000000       0.09221658
Ti       0.00000000       0.00000000       1.88787879       0.00000000       0.00000000      -0.09221658
2
Properties=species:S:1:pos:R:3:forces:R:3 energy=-18.228870138583304 pbc="F F F"
Ti       0.00000000       0.00000000       0.00000000       0.00000000       0.00000000       0.41066459
Ti       0.00000000       0.00000000       1.94747475       0.00000000       0.00000000      -0.41066459
2
Properties=species:S:1:pos:R:3:forces:R:3 energy=-18.195542497392406 pbc="F F F"
Ti       0.00000000       0.00000000       0.00000000       0.00000000       0.00000000       0.70484132
Ti       0.00000000       0.00000000       2.00707071       0.00000000       0.00000000      -0.70484132
2
Properties=species:S:1:pos:R:3:forces:R:3 energy=-18.14529589105669 pbc="F F F"
Ti       0.00000000       0.00000000       0.00000000       0.00000000       0.00000000       0.97642452
Ti       0.00000000       0.00000000       2.06666667       0.00000000       0.00000000      -0.97642452
2
Properties=species:S:1:pos:R:3:forces:R:3 energy=-18.080059838561148 pbc="F F F"
Ti       0.00000000       0.00000000       0.00000000       0.00000000       0.00000000       1.20118892
Ti       0.00000000       0.00000000       2.12626263       0.00000000       0.00000000      -1.20118892
2
Properties=species:S:1:pos:R:3:forces:R:3 energy=-18.004295818107558 pbc="F F F"
Ti       0.00000000       0.00000000       0.00000000       0.00000000       0.00000000       1.31611228
Ti       0.00000000       0.00000000       2.18585859       0.00000000       0.00000000      -1.31611228
2
Properties=species:S:1:pos:R:3:forces:R:3 energy=-17.92671253582381 pbc="F F F"
Ti       0.00000000       0.00000000       0.00000000       0.00000000       0.00000000       1.25774920
Ti       0.00000000       0.00000000       2.24545455       0.00000000       0.00000000      -1.25774920
2
Properties=species:S:1:pos:R:3:forces:R:3 energy=-17.857170987934182 pbc="F F F"
Ti       0.00000000       0.00000000       0.00000000       0.00000000       0.00000000       1.06261992
Ti       0.00000000       0.00000000       2.30505051       0.00000000       0.00000000      -1.06261992
2
Properties=species:S:1:pos:R:3:forces:R:3 energy=-17.80023325537045 pbc="F F F"
Ti       0.00000000       0.00000000       0.00000000       0.00000000       0.00000000       0.85755777
Ti       0.00000000       0.00000000       2.36464646       0.00000000       0.00000000      -0.85755777
2
Properties=species:S:1:pos:R:3:forces:R:3 energy=-17.753022299895058 pbc="F F F"
Ti       0.00000000       0.00000000       0.00000000       0.00000000       0.00000000       0.74658751
Ti       0.00000000       0.00000000       2.42424242       0.00000000       0.00000000      -0.74658751
2
Properties=species:S:1:pos:R:3:forces:R:3 energy=-17.708993785932705 pbc="F F F"
Ti       0.00000000       0.00000000       0.00000000       0.00000000       0.00000000       0.74688125
Ti       0.00000000       0.00000000       2.48383838       0.00000000       0.00000000      -0.74688125
2
Properties=species:S:1:pos:R:3:forces:R:3 energy=-17.66264639284532 pbc="F F F"
Ti       0.00000000       0.00000000       0.00000000       0.00000000       0.00000000       0.81498319
Ti       0.00000000       0.00000000       2.54343434       0.00000000       0.00000000      -0.81498319
2
Properties=species:S:1:pos:R:3:forces:R:3 energy=-17.611645132216918 pbc="F F F"
Ti       0.00000000       0.00000000       0.00000000       0.00000000       0.00000000       0.89370942
Ti       0.00000000       0.00000000       2.60303030       0.00000000       0.00000000      -0.89370942
2
Properties=species:S:1:pos:R:3:forces:R:3 energy=-17.557008560389153 pbc="F F F"
Ti       0.00000000       0.00000000       0.00000000       0.00000000       0.00000000       0.92806637
Ti       0.00000000       0.00000000       2.66262626       0.00000000       0.00000000      -0.92806637
2
Properties=species:S:1:pos:R:3:forces:R:3 energy=-17.50283216425144 pbc="F F F"
Ti       0.00000000       0.00000000       0.00000000       0.00000000       0.00000000       0.87283051
Ti       0.00000000       0.00000000       2.72222222       0.00000000       0.00000000      -0.87283051
2
Properties=species:S:1:pos:R:3:forces:R:3 energy=-17.454938163968443 pbc="F F F"
Ti       0.00000000       0.00000000       0.00000000       0.00000000       0.00000000       0.72051394
Ti       0.00000000       0.00000000       2.78181818       0.00000000       0.00000000      -0.72051394
2
Properties=species:S:1:pos:R:3:forces:R:3 energy=-17.418065220915675 pbc="F F F"
Ti       0.00000000       0.00000000       0.00000000       0.00000000       0.00000000       0.51282960
Ti       0.00000000       0.00000000       2.84141414       0.00000000       0.00000000      -0.51282960
2
Properties=species:S:1:pos:R:3:forces:R:3 energy=-17.393669590658483 pbc="F F F"
Ti       0.00000000       0.00000000       0.00000000       0.00000000       0.00000000       0.31223556
Ti       0.00000000       0.00000000       2.90101010       0.00000000       0.00000000      -0.31223556
2
Properties=species:S:1:pos:R:3:forces:R:3 energy=-17.379550545813284 pbc="F F F"
Ti       0.00000000       0.00000000       0.00000000       0.00000000       0.00000000       0.17638874
Ti       0.00000000       0.00000000       2.96060606       0.00000000       0.00000000      -0.17638874
2
Properties=species:S:1:pos:R:3:forces:R:3 energy=-17.37063779913375 pbc="F F F"
Ti       0.00000000       0.00000000       0.00000000       0.00000000       0.00000000       0.13996421
Ti       0.00000000       0.00000000       3.02020202       0.00000000       0.00000000      -0.13996421
2
Properties=species:S:1:pos:R:3:forces:R:3 energy=-17.361015282608196 pbc="F F F"
Ti       0.00000000       0.00000000       0.00000000       0.00000000       0.00000000       0.19592258
Ti       0.00000000       0.00000000       3.07979798       0.00000000       0.00000000      -0.19592258
2
Properties=species:S:1:pos:R:3:forces:R:3 energy=-17.346094772771725 pbc="F F F"
Ti       0.00000000       0.00000000       0.00000000       0.00000000       0.00000000       0.31193149
Ti       0.00000000       0.00000000       3.13939394       0.00000000       0.00000000      -0.31193149
2
Properties=species:S:1:pos:R:3:forces:R:3 energy=-17.323284484847562 pbc="F F F"
Ti       0.00000000       0.00000000       0.00000000       0.00000000       0.00000000       0.45588961
Ti       0.00000000       0.00000000       3.19898990       0.00000000       0.00000000      -0.45588961
2
Properties=species:S:1:pos:R:3:forces:R:3 energy=-17.29173963448049 pbc="F F F"
Ti       0.00000000       0.00000000       0.00000000       0.00000000       0.00000000       0.60071903
Ti       0.00000000       0.00000000       3.25858586       0.00000000       0.00000000      -0.60071903
2
Properties=species:S:1:pos:R:3:forces:R:3 energy=-17.2521787894084 pbc="F F F"
Ti       0.00000000       0.00000000       0.00000000       0.00000000       0.00000000       0.72073263
Ti       0.00000000       0.00000000       3.31818182       0.00000000       0.00000000      -0.72073263
2
Properties=species:S:1:pos:R:3:forces:R:3 energy=-17.206795557264112 pbc="F F F"
Ti       0.00000000       0.00000000       0.00000000       0.00000000       0.00000000       0.79269665
Ti       0.00000000       0.00000000       3.37777778       0.00000000       0.00000000      -0.79269665
2
Properties=species:S:1:pos:R:3:forces:R:3 energy=-17.1589171868516 pbc="F F F"
Ti       0.00000000       0.00000000       0.00000000       0.00000000       0.00000000       0.80369902
Ti       0.00000000       0.00000000       3.43737374       0.00000000       0.00000000      -0.80369902
2
Properties=species:S:1:pos:R:3:forces:R:3 energy=-17.112136082670617 pbc="F F F"
Ti       0.00000000       0.00000000       0.00000000       0.00000000       0.00000000       0.75809437
Ti       0.00000000       0.00000000       3.49696970       0.00000000       0.00000000      -0.75809437
2
Properties=species:S:1:pos:R:3:forces:R:3 energy=-17.069288294420417 pbc="F F F"
Ti       0.00000000       0.00000000       0.00000000       0.00000000       0.00000000       0.67603308
Ti       0.00000000       0.00000000       3.55656566       0.00000000       0.00000000      -0.67603308
2
Properties=species:S:1:pos:R:3:forces:R:3 energy=-17.03173776644279 pbc="F F F"
Ti       0.00000000       0.00000000       0.00000000       0.00000000       0.00000000       0.58499008
Ti       0.00000000       0.00000000       3.61616162       0.00000000       0.00000000      -0.58499008
2
Properties=species:S:1:pos:R:3:forces:R:3 energy=-16.999209482570706 pbc="F F F"
Ti       0.00000000       0.00000000       0.00000000       0.00000000       0.00000000       0.51147270
Ti       0.00000000       0.00000000       3.67575758       0.00000000       0.00000000      -0.51147270
2
Properties=species:S:1:pos:R:3:forces:R:3 energy=-16.96999776310707 pbc="F F F"
Ti       0.00000000       0.00000000       0.00000000       0.00000000       0.00000000       0.47673014
Ti       0.00000000       0.00000000       3.73535354       0.00000000       0.00000000      -0.47673014
2
Properties=species:S:1:pos:R:3:forces:R:3 energy=-16.941340136834956 pbc="F F F"
Ti       0.00000000       0.00000000       0.00000000       0.00000000       0.00000000       0.49435201
Ti       0.00000000       0.00000000       3.79494949       0.00000000       0.00000000      -0.49435201
2
Properties=species:S:1:pos:R:3:forces:R:3 energy=-16.9099590787145 pbc="F F F"
Ti       0.00000000       0.00000000       0.00000000       0.00000000       0.00000000       0.56779015
Ti       0.00000000       0.00000000       3.85454545       0.00000000       0.00000000      -0.56779015
2
Properties=species:S:1:pos:R:3:forces:R:3 energy=-16.87270877213181 pbc="F F F"
Ti       0.00000000       0.00000000       0.00000000       0.00000000       0.00000000       0.68905419
Ti       0.00000000       0.00000000       3.91414141       0.00000000       0.00000000      -0.68905419
2
Properties=species:S:1:pos:R:3:forces:R:3 energy=-16.827223411029145 pbc="F F F"
Ti       0.00000000       0.00000000       0.00000000       0.00000000       0.00000000       0.84062999
Ti       0.00000000       0.00000000       3.97373737       0.00000000       0.00000000      -0.84062999
2
Properties=species:S:1:pos:R:3:forces:R:3 energy=-16.772354134797304 pbc="F F F"
Ti       0.00000000       0.00000000       0.00000000       0.00000000       0.00000000       1.00021255
Ti       0.00000000       0.00000000       4.03333333       0.00000000       0.00000000      -1.00021255
2
Properties=species:S:1:pos:R:3:forces:R:3 energy=-16.7082872205344 pbc="F F F"
Ti       0.00000000       0.00000000       0.00000000       0.00000000       0.00000000       1.14577663
Ti       0.00000000       0.00000000       4.09292929       0.00000000       0.00000000      -1.14577663
2
Properties=species:S:1:pos:R:3:forces:R:3 energy=-16.636431593826057 pbc="F F F"
Ti       0.00000000       0.00000000       0.00000000       0.00000000       0.00000000       1.25900960
Ti       0.00000000       0.00000000       4.15252525       0.00000000       0.00000000      -1.25900960
2
Properties=species:S:1:pos:R:3:forces:R:3 energy=-16.55912700123675 pbc="F F F"
Ti       0.00000000       0.00000000       0.00000000       0.00000000       0.00000000       1.32699037
Ti       0.00000000       0.00000000       4.21212121       0.00000000       0.00000000      -1.32699037
2
Properties=species:S:1:pos:R:3:forces:R:3 energy=-16.47930259490453 pbc="F F F"
Ti       0.00000000       0.00000000       0.00000000       0.00000000       0.00000000       1.34293091
Ti       0.00000000       0.00000000       4.27171717       0.00000000       0.00000000      -1.34293091
2
Properties=species:S:1:pos:R:3:forces:R:3 energy=-16.400105040739334 pbc="F F F"
Ti       0.00000000       0.00000000       0.00000000       0.00000000       0.00000000       1.30649364
Ti       0.00000000       0.00000000       4.33131313       0.00000000       0.00000000      -1.30649364
2
Properties=species:S:1:pos:R:3:forces:R:3 energy=-16.324505563422907 pbc="F F F"
Ti       0.00000000       0.00000000       0.00000000       0.00000000       0.00000000       1.22367120
Ti       0.00000000       0.00000000       4.39090909       0.00000000       0.00000000      -1.22367120
2
Properties=species:S:1:pos:R:3:forces:R:3 energy=-16.254949044945555 pbc="F F F"
Ti       0.00000000       0.00000000       0.00000000       0.00000000       0.00000000       1.10589588
Ti       0.00000000       0.00000000       4.45050505       0.00000000       0.00000000      -1.10589588
2
Properties=species:S:1:pos:R:3:forces:R:3 energy=-16.193088909481787 pbc="F F F"
Ti       0.00000000       0.00000000       0.00000000       0.00000000       0.00000000       0.96817517
Ti       0.00000000       0.00000000       4.51010101       0.00000000       0.00000000      -0.96817517
2
Properties=species:S:1:pos:R:3:forces:R:3 energy=-16.139628791279083 pbc="F F F"
Ti       0.00000000       0.00000000       0.00000000       0.00000000       0.00000000       0.82640332
Ti       0.00000000       0.00000000       4.56969697       0.00000000       0.00000000      -0.82640332
2
Properties=species:S:1:pos:R:3:forces:R:3 energy=-16.094389342545153 pbc="F F F"
Ti       0.00000000       0.00000000       0.00000000       0.00000000       0.00000000       0.69442010
Ti       0.00000000       0.00000000       4.62929293       0.00000000       0.00000000      -0.69442010
2
Properties=species:S:1:pos:R:3:forces:R:3 energy=-16.056477977972815 pbc="F F F"
Ti       0.00000000       0.00000000       0.00000000       0.00000000       0.00000000       0.58155531
Ti       0.00000000       0.00000000       4.68888889       0.00000000       0.00000000      -0.58155531
2
Properties=species:S:1:pos:R:3:forces:R:3 energy=-16.024617882875692 pbc="F F F"
Ti       0.00000000       0.00000000       0.00000000       0.00000000       0.00000000       0.49136698
Ti       0.00000000       0.00000000       4.74848485       0.00000000       0.00000000      -0.49136698
2
Properties=species:S:1:pos:R:3:forces:R:3 energy=-15.997493287640244 pbc="F F F"
Ti       0.00000000       0.00000000       0.00000000       0.00000000       0.00000000       0.42203808
Ti       0.00000000       0.00000000       4.80808081       0.00000000       0.00000000      -0.42203808
2
Properties=species:S:1:pos:R:3:forces:R:3 energy=-15.974005980774319 pbc="F F F"
Ti       0.00000000       0.00000000       0.00000000       0.00000000       0.00000000       0.36818287
Ti       0.00000000       0.00000000       4.86767677       0.00000000       0.00000000      -0.36818287
2
Properties=species:S:1:pos:R:3:forces:R:3 energy=-15.953427915804701 pbc="F F F"
Ti       0.00000000       0.00000000       0.00000000       0.00000000       0.00000000       0.32345712
Ti       0.00000000       0.00000000       4.92727273       0.00000000       0.00000000      -0.32345712
2
Properties=species:S:1:pos:R:3:forces:R:3 energy=-15.935369730521208 pbc="F F F"
Ti       0.00000000       0.00000000       0.00000000       0.00000000       0.00000000       0.28303105
Ti       0.00000000       0.00000000       4.98686869       0.00000000       0.00000000      -0.28303105
2
Properties=species:S:1:pos:R:3:forces:R:3 energy=-15.919647262666706 pbc="F F F"
Ti       0.00000000       0.00000000       0.00000000       0.00000000       0.00000000       0.24508084
Ti       0.00000000       0.00000000       5.04646465       0.00000000       0.00000000      -0.24508084
2
Properties=species:S:1:pos:R:3:forces:R:3 energy=-15.90608885070439 pbc="F F F"
Ti       0.00000000       0.00000000       0.00000000       0.00000000       0.00000000       0.21073152
Ti       0.00000000       0.00000000       5.10606061       0.00000000       0.00000000      -0.21073152
2
Properties=species:S:1:pos:R:3:forces:R:3 energy=-15.89440282060514 pbc="F F F"
Ti       0.00000000       0.00000000       0.00000000       0.00000000       0.00000000       0.18264839
Ti       0.00000000       0.00000000       5.16565657       0.00000000       0.00000000      -0.18264839
2
Properties=species:S:1:pos:R:3:forces:R:3 energy=-15.884151706546673 pbc="F F F"
Ti       0.00000000       0.00000000       0.00000000       0.00000000       0.00000000       0.16281600
Ti       0.00000000       0.00000000       5.22525253       0.00000000       0.00000000      -0.16281600
2
Properties=species:S:1:pos:R:3:forces:R:3 energy=-15.874842824631015 pbc="F F F"
Ti       0.00000000       0.00000000       0.00000000       0.00000000       0.00000000       0.15064415
Ti       0.00000000       0.00000000       5.28484848       0.00000000       0.00000000      -0.15064415
2
Properties=species:S:1:pos:R:3:forces:R:3 energy=-15.866113312628373 pbc="F F F"
Ti       0.00000000       0.00000000       0.00000000       0.00000000       0.00000000       0.14262941
Ti       0.00000000       0.00000000       5.34444444       0.00000000       0.00000000      -0.14262941
2
Properties=species:S:1:pos:R:3:forces:R:3 energy=-15.85783307295034 pbc="F F F"
Ti       0.00000000       0.00000000       0.00000000       0.00000000       0.00000000       0.13531151
Ti       0.00000000       0.00000000       5.40404040       0.00000000       0.00000000      -0.13531151
2
Properties=species:S:1:pos:R:3:forces:R:3 energy=-15.849930251833893 pbc="F F F"
Ti       0.00000000       0.00000000       0.00000000       0.00000000       0.00000000       0.13081808
Ti       0.00000000       0.00000000       5.46363636       0.00000000       0.00000000      -0.13081808
2
Properties=species:S:1:pos:R:3:forces:R:3 energy=-15.842108942240271 pbc="F F F"
Ti       0.00000000       0.00000000       0.00000000       0.00000000       0.00000000       0.13247006
Ti       0.00000000       0.00000000       5.52323232       0.00000000       0.00000000      -0.13247006
2
Properties=species:S:1:pos:R:3:forces:R:3 energy=-15.834188661817317 pbc="F F F"
Ti       0.00000000       0.00000000       0.00000000       0.00000000       0.00000000       0.13193482
Ti       0.00000000       0.00000000       5.58282828       0.00000000       0.00000000      -0.13193482
2
Properties=species:S:1:pos:R:3:forces:R:3 energy=-15.826583060976343 pbc="F F F"
Ti       0.00000000       0.00000000       0.00000000       0.00000000       0.00000000       0.12189005
Ti       0.00000000       0.00000000       5.64242424       0.00000000       0.00000000      -0.12189005
2
Properties=species:S:1:pos:R:3:forces:R:3 energy=-15.819740136659256 pbc="F F F"
Ti       0.00000000       0.00000000       0.00000000       0.00000000       0.00000000       0.10761747
Ti       0.00000000       0.00000000       5.70202020       0.00000000       0.00000000      -0.10761747
2
Properties=species:S:1:pos:R:3:forces:R:3 energy=-15.813747363654228 pbc="F F F"
Ti       0.00000000       0.00000000       0.00000000       0.00000000       0.00000000       0.09324135
Ti       0.00000000       0.00000000       5.76161616       0.00000000       0.00000000      -0.09324135
2
Properties=species:S:1:pos:R:3:forces:R:3 energy=-15.80880660223051 pbc="F F F"
Ti       0.00000000       0.00000000       0.00000000       0.00000000       0.00000000       0.07043511
Ti       0.00000000       0.00000000       5.82121212       0.00000000       0.00000000      -0.07043511
2
Properties=species:S:1:pos:R:3:forces:R:3 energy=-15.805503048550863 pbc="F F F"
Ti       0.00000000       0.00000000       0.00000000       0.00000000       0.00000000       0.04083640
Ti       0.00000000       0.00000000       5.88080808       0.00000000       0.00000000      -0.04083640
2
Properties=species:S:1:pos:R:3:forces:R:3 energy=-15.803790472929832 pbc="F F F"
Ti       0.00000000       0.00000000       0.00000000       0.00000000       0.00000000       0.01817189
Ti       0.00000000       0.00000000       5.94040404       0.00000000       0.00000000      -0.01817189
2
Properties=species:S:1:pos:R:3:forces:R:3 energy=-15.803041778827716 pbc="F F F"
Ti       0.00000000       0.00000000       0.00000000       0.00000000       0.00000000       0.00980553
Ti       0.00000000       0.00000000       6.00000000       0.00000000       0.00000000      -0.00980553
