2
Properties=species:S:1:pos:R:3:forces:R:3 energy=-475884.4825536203 pbc="F F F"
V        0.00000000       0.00000000       0.00000000       0.00000000       0.00000000 -252946.62500000
V        0.00000000       0.00000000       0.10000000       0.00000000       0.00000000  252946.62500000
2
Properties=species:S:1:pos:R:3:forces:R:3 energy=-481680.5138036203 pbc="F F F"
V        0.00000000       0.00000000       0.00000000       0.00000000       0.00000000   13297.17480469
V        0.00000000       0.00000000       0.15959596       0.00000000       0.00000000  -13297.17480469
2
Properties=species:S:1:pos:R:3:forces:R:3 energy=-475167.7638036203 pbc="F F F"
V        0.00000000       0.00000000       0.00000000       0.00000000       0.00000000  216575.92187500
V        0.00000000       0.00000000       0.21919192       0.00000000       0.00000000 -216575.92187500
2
Properties=species:S:1:pos:R:3:forces:R:3 energy=-453634.5763036203 pbc="F F F"
V        0.00000000       0.00000000       0.00000000       0.00000000       0.00000000  529077.68750000
V        0.00000000       0.00000000       0.27878788       0.00000000       0.00000000 -529077.68750000
2
Properties=species:S:1:pos:R:3:forces:R:3 energy=-409484.3888036187 pbc="F F F"
V        0.00000000       0.00000000       0.00000000       0.00000000       0.00000000  969823.93750000
V        0.00000000       0.00000000       0.33838384       0.00000000       0.00000000 -969823.93750000
2
Properties=species:S:1:pos:R:3:forces:R:3 energy=-337343.7325536187 pbc="F F F"
V        0.00000000       0.00000000       0.00000000       0.00000000       0.00000000 1441043.50000000
V        0.00000000       0.00000000       0.39797980       0.00000000       0.00000000 -1441043.50000000
2
Properties=species:S:1:pos:R:3:forces:R:3 energy=-241496.59192861713 pbc="F F F"
V        0.00000000       0.00000000       0.00000000       0.00000000       0.00000000 1721307.50000000
V        0.00000000       0.00000000       0.45757576       0.00000000       0.00000000 -1721307.50000000
2
Properties=species:S:1:pos:R:3:forces:R:3 energy=-140647.74817861395 pbc="F F F"
V        0.00000000       0.00000000       0.00000000       0.00000000       0.00000000 1583777.62500000
V        0.00000000       0.00000000       0.51717172       0.00000000       0.00000000 -1583777.62500000
2
Properties=species:S:1:pos:R:3:forces:R:3 energy=-59887.92005361078 pbc="F F F"
V        0.00000000       0.00000000       0.00000000       0.00000000       0.00000000 1178863.37500000
V        0.00000000       0.00000000       0.57676768       0.00000000       0.00000000 -1178863.37500000
2
Properties=species:S:1:pos:R:3:forces:R:3 energy=-14879.828256729445 pbc="F F F"
V        0.00000000       0.00000000       0.00000000       0.00000000       0.00000000  221073.70312500
V        0.00000000       0.00000000       0.63636364       0.00000000       0.00000000 -221073.70312500
2
Properties=species:S:1:pos:R:3:forces:R:3 energy=-10386.14466296994 pbc="F F F"
V        0.00000000       0.00000000       0.00000000       0.00000000       0.00000000  -12783.86621094
V        0.00000000       0.00000000       0.69595960       0.00000000       0.00000000   12783.86621094
2
Properties=species:S:1:pos:R:3:forces:R:3 energy=-8675.0763035791 pbc="F F F"
V        0.00000000       0.00000000       0.00000000       0.00000000       0.00000000   67253.48437500
V        0.00000000       0.00000000       0.75555556       0.00000000       0.00000000  -67253.48437500
2
Properties=species:S:1:pos:R:3:forces:R:3 energy=-4989.189584806926 pbc="F F F"
V        0.00000000       0.00000000       0.00000000       0.00000000       0.00000000    6376.18261719
V        0.00000000       0.00000000       0.81515152       0.00000000       0.00000000   -6376.18261719
2
Properties=species:S:1:pos:R:3:forces:R:3 energy=-4299.819955867414 pbc="F F F"
V        0.00000000       0.00000000       0.00000000       0.00000000       0.00000000   13055.71289062
V        0.00000000       0.00000000       0.87474747       0.00000000       0.00000000  -13055.71289062
2
Properties=species:S:1:pos:R:3:forces:R:3 energy=-3519.141733163647 pbc="F F F"
V        0.00000000       0.00000000       0.00000000       0.00000000       0.00000000   13757.70214844
V        0.00000000       0.00000000       0.93434343       0.00000000       0.00000000  -13757.70214844
2
Properties=species:S:1:pos:R:3:forces:R:3 energy=-2657.8919772393315 pbc="F F F"
V        0.00000000       0.00000000       0.00000000       0.00000000       0.00000000   14565.84375000
V        0.00000000       0.00000000       0.99393939       0.00000000       0.00000000  -14565.84375000
2
Properties=species:S:1:pos:R:3:forces:R:3 energy=-1863.4676607443826 pbc="F F F"
V        0.00000000       0.00000000       0.00000000       0.00000000       0.00000000   11634.72851562
V        0.00000000       0.00000000       1.05353535       0.00000000       0.00000000  -11634.72851562
2
Properties=species:S:1:pos:R:3:forces:R:3 energy=-1281.7865082834232 pbc="F F F"
V        0.00000000       0.00000000       0.00000000       0.00000000       0.00000000    8063.04150391
V        0.00000000       0.00000000       1.11313131       0.00000000       0.00000000   -8063.04150391
2
Properties=species:S:1:pos:R:3:forces:R:3 energy=-874.39930109695 pbc="F F F"
V        0.00000000       0.00000000       0.00000000       0.00000000       0.00000000    5810.20214844
V        0.00000000       0.00000000       1.17272727       0.00000000       0.00000000   -5810.20214844
2
Properties=species:S:1:pos:R:3:forces:R:3 energy=-574.3052457231798 pbc="F F F"
V        0.00000000       0.00000000       0.00000000       0.00000000       0.00000000    4322.28515625
V        0.00000000       0.00000000       1.23232323       0.00000000       0.00000000   -4322.28515625
2
Properties=species:S:1:pos:R:3:forces:R:3 energy=-355.55600840762327 pbc="F F F"
V        0.00000000       0.00000000       0.00000000       0.00000000       0.00000000    3037.90893555
V        0.00000000       0.00000000       1.29191919       0.00000000       0.00000000   -3037.90893555
2
Properties=species:S:1:pos:R:3:forces:R:3 energy=-209.07181619314198 pbc="F F F"
V        0.00000000       0.00000000       0.00000000       0.00000000       0.00000000    1916.82092285
V        0.00000000       0.00000000       1.35151515       0.00000000       0.00000000   -1916.82092285
2
Properties=species:S:1:pos:R:3:forces:R:3 energy=-121.29095488836576 pbc="F F F"
V        0.00000000       0.00000000       0.00000000       0.00000000       0.00000000    1081.94091797
V        0.00000000       0.00000000       1.41111111       0.00000000       0.00000000   -1081.94091797
2
Properties=species:S:1:pos:R:3:forces:R:3 energy=-73.93859843240251 pbc="F F F"
V        0.00000000       0.00000000       0.00000000       0.00000000       0.00000000     557.51593018
V        0.00000000       0.00000000       1.47070707       0.00000000       0.00000000    -557.51593018
2
Properties=species:S:1:pos:R:3:forces:R:3 energy=-48.98293604416338 pbc="F F F"
V        0.00000000       0.00000000       0.00000000       0.00000000       0.00000000     323.33251953
V        0.00000000       0.00000000       1.53030303       0.00000000       0.00000000    -323.33251953
2
Properties=species:S:1:pos:R:3:forces:R:3 energy=-32.42048489395745 pbc="F F F"
V        0.00000000       0.00000000       0.00000000       0.00000000       0.00000000     241.20373535
V        0.00000000       0.00000000       1.58989899       0.00000000       0.00000000    -241.20373535
2
Properties=species:S:1:pos:R:3:forces:R:3 energy=-23.12783949989918 pbc="F F F"
V        0.00000000       0.00000000       0.00000000       0.00000000       0.00000000      77.48945618
V        0.00000000       0.00000000       1.64949495       0.00000000       0.00000000     -77.48945618
2
Properties=species:S:1:pos:R:3:forces:R:3 energy=-21.103466326761307 pbc="F F F"
V        0.00000000       0.00000000       0.00000000       0.00000000       0.00000000       5.79753447
V        0.00000000       0.00000000       1.70909091       0.00000000       0.00000000      -5.79753447
2
Properties=species:S:1:pos:R:3:forces:R:3 energy=-21.242484122768776 pbc="F F F"
V        0.00000000       0.00000000       0.00000000       0.00000000       0.00000000      -4.54214764
V        0.00000000       0.00000000       1.76868687       0.00000000       0.00000000       4.54214764
2
Properties=species:S:1:pos:R:3:forces:R:3 energy=-21.355479823578516 pbc="F F F"
V        0.00000000       0.00000000       0.00000000       0.00000000       0.00000000       0.97269982
V        0.00000000       0.00000000       1.82828283       0.00000000       0.00000000      -0.97269982
2
Properties=species:S:1:pos:R:3:forces:R:3 energy=-21.17328088427857 pbc="F F F"
V        0.00000000       0.00000000       0.00000000       0.00000000       0.00000000       4.63051224
V        0.00000000       0.00000000       1.88787879       0.00000000       0.00000000      -4.63051224
2
Properties=species:S:1:pos:R:3:forces:R:3 energy=-20.85511684953044 pbc="F F F"
V        0.00000000       0.00000000       0.00000000       0.00000000       0.00000000       5.65647125
V        0.00000000       0.00000000       1.94747475       0.00000000       0.00000000      -5.65647125
2
Properties=species:S:1:pos:R:3:forces:R:3 energy=-20.54795521741058 pbc="F F F"
V        0.00000000       0.00000000       0.00000000       0.00000000       0.00000000       4.24929667
V        0.00000000       0.00000000       2.00707071       0.00000000       0.00000000      -4.24929667
2
Properties=species:S:1:pos:R:3:forces:R:3 energy=-20.37920220309409 pbc="F F F"
V        0.00000000       0.00000000       0.00000000       0.00000000       0.00000000       1.37054658
V        0.00000000       0.00000000       2.06666667       0.00000000       0.00000000      -1.37054658
2
Properties=species:S:1:pos:R:3:forces:R:3 energy=-20.369596388938913 pbc="F F F"
V        0.00000000       0.00000000       0.00000000       0.00000000       0.00000000      -0.82132399
V        0.00000000       0.00000000       2.12626263       0.00000000       0.00000000       0.82132399
2
Properties=species:S:1:pos:R:3:forces:R:3 energy=-20.44153869726067 pbc="F F F"
V        0.00000000       0.00000000       0.00000000       0.00000000       0.00000000      -1.20097411
V        0.00000000       0.00000000       2.18585859       0.00000000       0.00000000       1.20097411
2
Properties=species:S:1:pos:R:3:forces:R:3 energy=-20.456372255879643 pbc="F F F"
V        0.00000000       0.00000000       0.00000000       0.00000000       0.00000000       1.16679478
V        0.00000000       0.00000000       2.24545455       0.00000000       0.00000000      -1.16679478
2
Properties=species:S:1:pos:R:3:forces:R:3 energy=-20.275699174822158 pbc="F F F"
V        0.00000000       0.00000000       0.00000000       0.00000000       0.00000000       4.75631666
V        0.00000000       0.00000000       2.30505051       0.00000000       0.00000000      -4.75631666
2
Properties=species:S:1:pos:R:3:forces:R:3 energy=-19.946540080340803 pbc="F F F"
V        0.00000000       0.00000000       0.00000000       0.00000000       0.00000000       5.62914705
V        0.00000000       0.00000000       2.36464646       0.00000000       0.00000000      -5.62914705
2
Properties=species:S:1:pos:R:3:forces:R:3 energy=-19.67249375007322 pbc="F F F"
V        0.00000000       0.00000000       0.00000000       0.00000000       0.00000000       3.21652603
V        0.00000000       0.00000000       2.42424242       0.00000000       0.00000000      -3.21652603
2
Properties=species:S:1:pos:R:3:forces:R:3 energy=-19.57347422062398 pbc="F F F"
V        0.00000000       0.00000000       0.00000000       0.00000000       0.00000000       0.24374956
V        0.00000000       0.00000000       2.48383838       0.00000000       0.00000000      -0.24374956
2
Properties=species:S:1:pos:R:3:forces:R:3 energy=-19.612884325079698 pbc="F F F"
V        0.00000000       0.00000000       0.00000000       0.00000000       0.00000000      -1.26470184
V        0.00000000       0.00000000       2.54343434       0.00000000       0.00000000       1.26470184
2
Properties=species:S:1:pos:R:3:forces:R:3 energy=-19.69325840088323 pbc="F F F"
V        0.00000000       0.00000000       0.00000000       0.00000000       0.00000000      -1.24986184
V        0.00000000       0.00000000       2.60303030       0.00000000       0.00000000       1.24986184
2
Properties=species:S:1:pos:R:3:forces:R:3 energy=-19.751186673295383 pbc="F F F"
V        0.00000000       0.00000000       0.00000000       0.00000000       0.00000000      -0.68811548
V        0.00000000       0.00000000       2.66262626       0.00000000       0.00000000       0.68811548
2
Properties=species:S:1:pos:R:3:forces:R:3 energy=-19.780711354429513 pbc="F F F"
V        0.00000000       0.00000000       0.00000000       0.00000000       0.00000000      -0.37549001
V        0.00000000       0.00000000       2.72222222       0.00000000       0.00000000       0.37549001
2
Properties=species:S:1:pos:R:3:forces:R:3 energy=-19.80424348354331 pbc="F F F"
V        0.00000000       0.00000000       0.00000000       0.00000000       0.00000000      -0.46707442
V        0.00000000       0.00000000       2.78181818       0.00000000       0.00000000       0.46707442
2
Properties=species:S:1:pos:R:3:forces:R:3 energy=-19.839543518476614 pbc="F F F"
V        0.00000000       0.00000000       0.00000000       0.00000000       0.00000000      -0.71792769
V        0.00000000       0.00000000       2.84141414       0.00000000       0.00000000       0.71792769
2
Properties=species:S:1:pos:R:3:forces:R:3 energy=-19.88760082378735 pbc="F F F"
V        0.00000000       0.00000000       0.00000000       0.00000000       0.00000000      -0.86480749
V        0.00000000       0.00000000       2.90101010       0.00000000       0.00000000       0.86480749
2
Properties=species:S:1:pos:R:3:forces:R:3 energy=-19.93892944363967 pbc="F F F"
V        0.00000000       0.00000000       0.00000000       0.00000000       0.00000000      -0.83107102
V        0.00000000       0.00000000       2.96060606       0.00000000       0.00000000       0.83107102
2
Properties=species:S:1:pos:R:3:forces:R:3 energy=-19.984408077413644 pbc="F F F"
V        0.00000000       0.00000000       0.00000000       0.00000000       0.00000000      -0.68392110
V        0.00000000       0.00000000       3.02020202       0.00000000       0.00000000       0.68392110
2
Properties=species:S:1:pos:R:3:forces:R:3 energy=-20.019777587290207 pbc="F F F"
V        0.00000000       0.00000000       0.00000000       0.00000000       0.00000000      -0.50120801
V        0.00000000       0.00000000       3.07979798       0.00000000       0.00000000       0.50120801
2
Properties=species:S:1:pos:R:3:forces:R:3 energy=-20.04413305856375 pbc="F F F"
V        0.00000000       0.00000000       0.00000000       0.00000000       0.00000000      -0.31695965
V        0.00000000       0.00000000       3.13939394       0.00000000       0.00000000       0.31695965
2
Properties=species:S:1:pos:R:3:forces:R:3 energy=-20.057721701390186 pbc="F F F"
V        0.00000000       0.00000000       0.00000000       0.00000000       0.00000000      -0.14105631
V        0.00000000       0.00000000       3.19898990       0.00000000       0.00000000       0.14105631
2
Properties=species:S:1:pos:R:3:forces:R:3 energy=-20.061254910047086 pbc="F F F"
V        0.00000000       0.00000000       0.00000000       0.00000000       0.00000000       0.01937894
V        0.00000000       0.00000000       3.25858586       0.00000000       0.00000000      -0.01937894
2
Properties=species:S:1:pos:R:3:forces:R:3 energy=-20.055782763991015 pbc="F F F"
V        0.00000000       0.00000000       0.00000000       0.00000000       0.00000000       0.16151738
V        0.00000000       0.00000000       3.31818182       0.00000000       0.00000000      -0.16151738
2
Properties=species:S:1:pos:R:3:forces:R:3 energy=-20.042241325347984 pbc="F F F"
V        0.00000000       0.00000000       0.00000000       0.00000000       0.00000000       0.29181498
V        0.00000000       0.00000000       3.37777778       0.00000000       0.00000000      -0.29181498
2
Properties=species:S:1:pos:R:3:forces:R:3 energy=-20.021058077159008 pbc="F F F"
V        0.00000000       0.00000000       0.00000000       0.00000000       0.00000000       0.41887963
V        0.00000000       0.00000000       3.43737374       0.00000000       0.00000000      -0.41887963
2
Properties=species:S:1:pos:R:3:forces:R:3 energy=-19.992357855565015 pbc="F F F"
V        0.00000000       0.00000000       0.00000000       0.00000000       0.00000000       0.54341239
V        0.00000000       0.00000000       3.49696970       0.00000000       0.00000000      -0.54341239
2
Properties=species:S:1:pos:R:3:forces:R:3 energy=-19.956502920589895 pbc="F F F"
V        0.00000000       0.00000000       0.00000000       0.00000000       0.00000000       0.65708625
V        0.00000000       0.00000000       3.55656566       0.00000000       0.00000000      -0.65708625
2
Properties=species:S:1:pos:R:3:forces:R:3 energy=-19.914473171089764 pbc="F F F"
V        0.00000000       0.00000000       0.00000000       0.00000000       0.00000000       0.74898344
V        0.00000000       0.00000000       3.61616162       0.00000000       0.00000000      -0.74898344
2
Properties=species:S:1:pos:R:3:forces:R:3 energy=-19.867799707500872 pbc="F F F"
V        0.00000000       0.00000000       0.00000000       0.00000000       0.00000000       0.81241304
V        0.00000000       0.00000000       3.67575758       0.00000000       0.00000000      -0.81241304
2
Properties=species:S:1:pos:R:3:forces:R:3 energy=-19.818204206731643 pbc="F F F"
V        0.00000000       0.00000000       0.00000000       0.00000000       0.00000000       0.84773672
V        0.00000000       0.00000000       3.73535354       0.00000000       0.00000000      -0.84773672
2
Properties=species:S:1:pos:R:3:forces:R:3 energy=-19.767194792335715 pbc="F F F"
V        0.00000000       0.00000000       0.00000000       0.00000000       0.00000000       0.86114776
V        0.00000000       0.00000000       3.79494949       0.00000000       0.00000000      -0.86114776
2
Properties=species:S:1:pos:R:3:forces:R:3 energy=-19.715817965148066 pbc="F F F"
V        0.00000000       0.00000000       0.00000000       0.00000000       0.00000000       0.86162019
V        0.00000000       0.00000000       3.85454545       0.00000000       0.00000000      -0.86162019
2
Properties=species:S:1:pos:R:3:forces:R:3 energy=-19.664578554831074 pbc="F F F"
V        0.00000000       0.00000000       0.00000000       0.00000000       0.00000000       0.85790104
V        0.00000000       0.00000000       3.91414141       0.00000000       0.00000000      -0.85790104
2
Properties=species:S:1:pos:R:3:forces:R:3 energy=-19.61351790532935 pbc="F F F"
V        0.00000000       0.00000000       0.00000000       0.00000000       0.00000000       0.85626417
V        0.00000000       0.00000000       3.97373737       0.00000000       0.00000000      -0.85626417
2
Properties=species:S:1:pos:R:3:forces:R:3 energy=-19.562418056208088 pbc="F F F"
V        0.00000000       0.00000000       0.00000000       0.00000000       0.00000000       0.85957122
V        0.00000000       0.00000000       4.03333333       0.00000000       0.00000000      -0.85957122
2
Properties=species:S:1:pos:R:3:forces:R:3 energy=-19.510969383424346 pbc="F F F"
V        0.00000000       0.00000000       0.00000000       0.00000000       0.00000000       0.86762816
V        0.00000000       0.00000000       4.09292929       0.00000000       0.00000000      -0.86762816
2
Properties=species:S:1:pos:R:3:forces:R:3 energy=-19.458950149859934 pbc="F F F"
V        0.00000000       0.00000000       0.00000000       0.00000000       0.00000000       0.87831080
V        0.00000000       0.00000000       4.15252525       0.00000000       0.00000000      -0.87831080
2
Properties=species:S:1:pos:R:3:forces:R:3 energy=-19.406289279931713 pbc="F F F"
V        0.00000000       0.00000000       0.00000000       0.00000000       0.00000000       0.88863921
V        0.00000000       0.00000000       4.21212121       0.00000000       0.00000000      -0.88863921
2
Properties=species:S:1:pos:R:3:forces:R:3 energy=-19.353100812244236 pbc="F F F"
V        0.00000000       0.00000000       0.00000000       0.00000000       0.00000000       0.89550728
V        0.00000000       0.00000000       4.27171717       0.00000000       0.00000000      -0.89550728
2
Properties=species:S:1:pos:R:3:forces:R:3 energy=-19.29967810785177 pbc="F F F"
V        0.00000000       0.00000000       0.00000000       0.00000000       0.00000000       0.89603800
V        0.00000000       0.00000000       4.33131313       0.00000000       0.00000000      -0.89603800
2
Properties=species:S:1:pos:R:3:forces:R:3 energy=-19.246474821121463 pbc="F F F"
V        0.00000000       0.00000000       0.00000000       0.00000000       0.00000000       0.88782406
V        0.00000000       0.00000000       4.39090909       0.00000000       0.00000000      -0.88782406
2
Properties=species:S:1:pos:R:3:forces:R:3 energy=-19.194064829572948 pbc="F F F"
V        0.00000000       0.00000000       0.00000000       0.00000000       0.00000000       0.86913592
V        0.00000000       0.00000000       4.45050505       0.00000000       0.00000000      -0.86913592
2
Properties=species:S:1:pos:R:3:forces:R:3 energy=-19.14310605761078 pbc="F F F"
V        0.00000000       0.00000000       0.00000000       0.00000000       0.00000000       0.83910602
V        0.00000000       0.00000000       4.51010101       0.00000000       0.00000000      -0.83910602
2
Properties=species:S:1:pos:R:3:forces:R:3 energy=-19.094275566482267 pbc="F F F"
V        0.00000000       0.00000000       0.00000000       0.00000000       0.00000000       0.79774803
V        0.00000000       0.00000000       4.56969697       0.00000000       0.00000000      -0.79774803
2
Properties=species:S:1:pos:R:3:forces:R:3 energy=-19.048231503923414 pbc="F F F"
V        0.00000000       0.00000000       0.00000000       0.00000000       0.00000000       0.74578387
V        0.00000000       0.00000000       4.62929293       0.00000000       0.00000000      -0.74578387
2
Properties=species:S:1:pos:R:3:forces:R:3 energy=-19.00557104587043 pbc="F F F"
V        0.00000000       0.00000000       0.00000000       0.00000000       0.00000000       0.68441415
V        0.00000000       0.00000000       4.68888889       0.00000000       0.00000000      -0.68441415
2
Properties=species:S:1:pos:R:3:forces:R:3 energy=-18.96681331268538 pbc="F F F"
V        0.00000000       0.00000000       0.00000000       0.00000000       0.00000000       0.61506349
V        0.00000000       0.00000000       4.74848485       0.00000000       0.00000000      -0.61506349
2
Properties=species:S:1:pos:R:3:forces:R:3 energy=-18.93238788229882 pbc="F F F"
V        0.00000000       0.00000000       0.00000000       0.00000000       0.00000000       0.53931665
V        0.00000000       0.00000000       4.80808081       0.00000000       0.00000000      -0.53931665
2
Properties=species:S:1:pos:R:3:forces:R:3 energy=-18.902621491038406 pbc="F F F"
V        0.00000000       0.00000000       0.00000000       0.00000000       0.00000000       0.45898634
V        0.00000000       0.00000000       4.86767677       0.00000000       0.00000000      -0.45898634
2
Properties=species:S:1:pos:R:3:forces:R:3 energy=-18.877724641006807 pbc="F F F"
V        0.00000000       0.00000000       0.00000000       0.00000000       0.00000000       0.37637064
V        0.00000000       0.00000000       4.92727273       0.00000000       0.00000000      -0.37637064
2
Properties=species:S:1:pos:R:3:forces:R:3 energy=-18.85774775007005 pbc="F F F"
V        0.00000000       0.00000000       0.00000000       0.00000000       0.00000000       0.29444003
V        0.00000000       0.00000000       4.98686869       0.00000000       0.00000000      -0.29444003
2
Properties=species:S:1:pos:R:3:forces:R:3 energy=-18.8425468116626 pbc="F F F"
V        0.00000000       0.00000000       0.00000000       0.00000000       0.00000000       0.21687698
V        0.00000000       0.00000000       5.04646465       0.00000000       0.00000000      -0.21687698
2
Properties=species:S:1:pos:R:3:forces:R:3 energy=-18.831733791051604 pbc="F F F"
V        0.00000000       0.00000000       0.00000000       0.00000000       0.00000000       0.14772885
V        0.00000000       0.00000000       5.10606061       0.00000000       0.00000000      -0.14772885
2
Properties=species:S:1:pos:R:3:forces:R:3 energy=-18.824691888877695 pbc="F F F"
V        0.00000000       0.00000000       0.00000000       0.00000000       0.00000000       0.09086934
V        0.00000000       0.00000000       5.16565657       0.00000000       0.00000000      -0.09086934
2
Properties=species:S:1:pos:R:3:forces:R:3 energy=-18.82059460038611 pbc="F F F"
V        0.00000000       0.00000000       0.00000000       0.00000000       0.00000000       0.04937323
V        0.00000000       0.00000000       5.22525253       0.00000000       0.00000000      -0.04937323
2
Properties=species:S:1:pos:R:3:forces:R:3 energy=-18.818468631005093 pbc="F F F"
V        0.00000000       0.00000000       0.00000000       0.00000000       0.00000000       0.02488012
V        0.00000000       0.00000000       5.28484848       0.00000000       0.00000000      -0.02488012
2
Properties=species:S:1:pos:R:3:forces:R:3 energy=-18.817310254115963 pbc="F F F"
V        0.00000000       0.00000000       0.00000000       0.00000000       0.00000000       0.01626531
V        0.00000000       0.00000000       5.34444444       0.00000000       0.00000000      -0.01626531
2
Properties=species:S:1:pos:R:3:forces:R:3 energy=-18.81634466928549 pbc="F F F"
V        0.00000000       0.00000000       0.00000000       0.00000000       0.00000000       0.01676969
V        0.00000000       0.00000000       5.40404040       0.00000000       0.00000000      -0.01676969
2
Properties=species:S:1:pos:R:3:forces:R:3 energy=-18.815338805857753 pbc="F F F"
V        0.00000000       0.00000000       0.00000000       0.00000000       0.00000000       0.01630265
V        0.00000000       0.00000000       5.46363636       0.00000000       0.00000000      -0.01630265
2
Properties=species:S:1:pos:R:3:forces:R:3 energy=-18.814410567500033 pbc="F F F"
V        0.00000000       0.00000000       0.00000000       0.00000000       0.00000000       0.01572799
V        0.00000000       0.00000000       5.52323232       0.00000000       0.00000000      -0.01572799
2
Properties=species:S:1:pos:R:3:forces:R:3 energy=-18.813286856161607 pbc="F F F"
V        0.00000000       0.00000000       0.00000000       0.00000000       0.00000000       0.02337125
V        0.00000000       0.00000000       5.58282828       0.00000000       0.00000000      -0.02337125
2
Properties=species:S:1:pos:R:3:forces:R:3 energy=-18.8115991746819 pbc="F F F"
V        0.00000000       0.00000000       0.00000000       0.00000000       0.00000000       0.03202362
V        0.00000000       0.00000000       5.64242424       0.00000000       0.00000000      -0.03202362
2
Properties=species:S:1:pos:R:3:forces:R:3 energy=-18.809789630062344 pbc="F F F"
V        0.00000000       0.00000000       0.00000000       0.00000000       0.00000000       0.02494531
V        0.00000000       0.00000000       5.70202020       0.00000000       0.00000000      -0.02494531
2
Properties=species:S:1:pos:R:3:forces:R:3 energy=-18.809053676577445 pbc="F F F"
V        0.00000000       0.00000000       0.00000000       0.00000000       0.00000000      -0.00262651
V        0.00000000       0.00000000       5.76161616       0.00000000       0.00000000       0.00262651
2
Properties=species:S:1:pos:R:3:forces:R:3 energy=-18.810058361654423 pbc="F F F"
V        0.00000000       0.00000000       0.00000000       0.00000000       0.00000000      -0.02753971
V        0.00000000       0.00000000       5.82121212       0.00000000       0.00000000       0.02753971
2
Properties=species:S:1:pos:R:3:forces:R:3 energy=-18.811704455026604 pbc="F F F"
V        0.00000000       0.00000000       0.00000000       0.00000000       0.00000000      -0.02283727
V        0.00000000       0.00000000       5.88080808       0.00000000       0.00000000       0.02283727
2
Properties=species:S:1:pos:R:3:forces:R:3 energy=-18.812452032274557 pbc="F F F"
V        0.00000000       0.00000000       0.00000000       0.00000000       0.00000000      -0.00160248
V        0.00000000       0.00000000       5.94040404       0.00000000       0.00000000       0.00160248
2
Properties=species:S:1:pos:R:3:forces:R:3 energy=-18.812140088589622 pbc="F F F"
V        0.00000000       0.00000000       0.00000000       0.00000000       0.00000000       0.00861282
V        0.00000000       0.00000000       6.00000000       0.00000000       0.00000000      -0.00861282
