2
Properties=species:S:1:pos:R:3:forces:R:3 energy=1193982.8625805795 pbc="F F F"
Bi       0.00000000       0.00000000       0.00000000       0.00000000       0.00000000 -594362.12500000
Bi       0.00000000       0.00000000       0.18000000       0.00000000       0.00000000  594362.12500000
2
Properties=species:S:1:pos:R:3:forces:R:3 energy=1153806.2375805795 pbc="F F F"
Bi       0.00000000       0.00000000       0.00000000       0.00000000       0.00000000 -869424.37500000
Bi       0.00000000       0.00000000       0.23878788       0.00000000       0.00000000  869424.37500000
2
Properties=species:S:1:pos:R:3:forces:R:3 energy=1082387.9875805795 pbc="F F F"
Bi       0.00000000       0.00000000       0.00000000       0.00000000       0.00000000 -1628149.00000000
Bi       0.00000000       0.00000000       0.29757576       0.00000000       0.00000000 1628149.00000000
2
Properties=species:S:1:pos:R:3:forces:R:3 energy=956225.4250805794 pbc="F F F"
Bi       0.00000000       0.00000000       0.00000000       0.00000000       0.00000000 -2692696.50000000
Bi       0.00000000       0.00000000       0.35636364       0.00000000       0.00000000 2692696.50000000
2
Properties=species:S:1:pos:R:3:forces:R:3 energy=766682.9875805802 pbc="F F F"
Bi       0.00000000       0.00000000       0.00000000       0.00000000       0.00000000 -3703029.50000000
Bi       0.00000000       0.00000000       0.41515152       0.00000000       0.00000000 3703029.50000000
2
Properties=species:S:1:pos:R:3:forces:R:3 energy=533091.050080581 pbc="F F F"
Bi       0.00000000       0.00000000       0.00000000       0.00000000       0.00000000 -4093600.50000000
Bi       0.00000000       0.00000000       0.47393939       0.00000000       0.00000000 4093600.50000000
2
Properties=species:S:1:pos:R:3:forces:R:3 energy=305816.14383058256 pbc="F F F"
Bi       0.00000000       0.00000000       0.00000000       0.00000000       0.00000000 -3466966.75000000
Bi       0.00000000       0.00000000       0.53272727       0.00000000       0.00000000 3466966.75000000
2
Properties=species:S:1:pos:R:3:forces:R:3 energy=140104.15945558494 pbc="F F F"
Bi       0.00000000       0.00000000       0.00000000       0.00000000       0.00000000 -2115725.50000000
Bi       0.00000000       0.00000000       0.59151515       0.00000000       0.00000000 2115725.50000000
2
Properties=species:S:1:pos:R:3:forces:R:3 energy=54372.495393089695 pbc="F F F"
Bi       0.00000000       0.00000000       0.00000000       0.00000000       0.00000000 -886679.25000000
Bi       0.00000000       0.00000000       0.65030303       0.00000000       0.00000000  886679.25000000
2
Properties=species:S:1:pos:R:3:forces:R:3 energy=22877.968049346033 pbc="F F F"
Bi       0.00000000       0.00000000       0.00000000       0.00000000       0.00000000 -297534.46875000
Bi       0.00000000       0.00000000       0.70909091       0.00000000       0.00000000  297534.46875000
2
Properties=species:S:1:pos:R:3:forces:R:3 energy=7056.294221232122 pbc="F F F"
Bi       0.00000000       0.00000000       0.00000000       0.00000000       0.00000000 -317380.71875000
Bi       0.00000000       0.00000000       0.76787879       0.00000000       0.00000000  317380.71875000
2
Properties=species:S:1:pos:R:3:forces:R:3 energy=5195.170686090127 pbc="F F F"
Bi       0.00000000       0.00000000       0.00000000       0.00000000       0.00000000    4718.45507812
Bi       0.00000000       0.00000000       0.82666667       0.00000000       0.00000000   -4718.45507812
2
Properties=species:S:1:pos:R:3:forces:R:3 energy=5002.528596268552 pbc="F F F"
Bi       0.00000000       0.00000000       0.00000000       0.00000000       0.00000000  -10093.67285156
Bi       0.00000000       0.00000000       0.88545455       0.00000000       0.00000000   10093.67285156
2
Properties=species:S:1:pos:R:3:forces:R:3 energy=4146.7834791119385 pbc="F F F"
Bi       0.00000000       0.00000000       0.00000000       0.00000000       0.00000000  -18350.86328125
Bi       0.00000000       0.00000000       0.94424242       0.00000000       0.00000000   18350.86328125
2
Properties=species:S:1:pos:R:3:forces:R:3 energy=2990.9973463414117 pbc="F F F"
Bi       0.00000000       0.00000000       0.00000000       0.00000000       0.00000000  -19399.48437500
Bi       0.00000000       0.00000000       1.00303030       0.00000000       0.00000000   19399.48437500
2
Properties=species:S:1:pos:R:3:forces:R:3 energy=1972.4746413187236 pbc="F F F"
Bi       0.00000000       0.00000000       0.00000000       0.00000000       0.00000000  -15112.53320312
Bi       0.00000000       0.00000000       1.06181818       0.00000000       0.00000000   15112.53320312
2
Properties=species:S:1:pos:R:3:forces:R:3 energy=1189.0349441291264 pbc="F F F"
Bi       0.00000000       0.00000000       0.00000000       0.00000000       0.00000000  -11858.19628906
Bi       0.00000000       0.00000000       1.12060606       0.00000000       0.00000000   11858.19628906
2
Properties=species:S:1:pos:R:3:forces:R:3 energy=567.2718827023075 pbc="F F F"
Bi       0.00000000       0.00000000       0.00000000       0.00000000       0.00000000   -9228.89941406
Bi       0.00000000       0.00000000       1.17939394       0.00000000       0.00000000    9228.89941406
2
Properties=species:S:1:pos:R:3:forces:R:3 energy=124.36951618766896 pbc="F F F"
Bi       0.00000000       0.00000000       0.00000000       0.00000000       0.00000000   -5322.10400391
Bi       0.00000000       0.00000000       1.23818182       0.00000000       0.00000000    5322.10400391
2
Properties=species:S:1:pos:R:3:forces:R:3 energy=-9.562170052931256 pbc="F F F"
Bi       0.00000000       0.00000000       0.00000000       0.00000000       0.00000000   -1002.24011230
Bi       0.00000000       0.00000000       1.29696970       0.00000000       0.00000000    1002.24011230
2
Properties=species:S:1:pos:R:3:forces:R:3 energy=-46.921903434109474 pbc="F F F"
Bi       0.00000000       0.00000000       0.00000000       0.00000000       0.00000000    -368.52120972
Bi       0.00000000       0.00000000       1.35575758       0.00000000       0.00000000     368.52120972
2
Properties=species:S:1:pos:R:3:forces:R:3 energy=-63.02596431135246 pbc="F F F"
Bi       0.00000000       0.00000000       0.00000000       0.00000000       0.00000000    -201.03948975
Bi       0.00000000       0.00000000       1.41454545       0.00000000       0.00000000     201.03948975
2
Properties=species:S:1:pos:R:3:forces:R:3 energy=-73.24183390447034 pbc="F F F"
Bi       0.00000000       0.00000000       0.00000000       0.00000000       0.00000000    -167.49455261
Bi       0.00000000       0.00000000       1.47333333       0.00000000       0.00000000     167.49455261
2
Properties=species:S:1:pos:R:3:forces:R:3 energy=-82.00961001517341 pbc="F F F"
Bi       0.00000000       0.00000000       0.00000000       0.00000000       0.00000000    -173.09667969
Bi       0.00000000       0.00000000       1.53212121       0.00000000       0.00000000     173.09667969
2
Properties=species:S:1:pos:R:3:forces:R:3 energy=-91.28132281029927 pbc="F F F"
Bi       0.00000000       0.00000000       0.00000000       0.00000000       0.00000000    -120.44542694
Bi       0.00000000       0.00000000       1.59090909       0.00000000       0.00000000     120.44542694
2
Properties=species:S:1:pos:R:3:forces:R:3 energy=-96.79530693135445 pbc="F F F"
Bi       0.00000000       0.00000000       0.00000000       0.00000000       0.00000000     -74.37887573
Bi       0.00000000       0.00000000       1.64969697       0.00000000       0.00000000      74.37887573
2
Properties=species:S:1:pos:R:3:forces:R:3 energy=-100.28732591468037 pbc="F F F"
Bi       0.00000000       0.00000000       0.00000000       0.00000000       0.00000000     -45.39814758
Bi       0.00000000       0.00000000       1.70848485       0.00000000       0.00000000      45.39814758
2
Properties=species:S:1:pos:R:3:forces:R:3 energy=-102.38161680023309 pbc="F F F"
Bi       0.00000000       0.00000000       0.00000000       0.00000000       0.00000000     -28.74349785
Bi       0.00000000       0.00000000       1.76727273       0.00000000       0.00000000      28.74349785
2
Properties=species:S:1:pos:R:3:forces:R:3 energy=-103.98893091494692 pbc="F F F"
Bi       0.00000000       0.00000000       0.00000000       0.00000000       0.00000000     -27.84111786
Bi       0.00000000       0.00000000       1.82606061       0.00000000       0.00000000      27.84111786
2
Properties=species:S:1:pos:R:3:forces:R:3 energy=-105.71862034529569 pbc="F F F"
Bi       0.00000000       0.00000000       0.00000000       0.00000000       0.00000000     -30.45014381
Bi       0.00000000       0.00000000       1.88484848       0.00000000       0.00000000      30.45014381
2
Properties=species:S:1:pos:R:3:forces:R:3 energy=-107.47428767632991 pbc="F F F"
Bi       0.00000000       0.00000000       0.00000000       0.00000000       0.00000000     -28.62575340
Bi       0.00000000       0.00000000       1.94363636       0.00000000       0.00000000      28.62575340
2
Properties=species:S:1:pos:R:3:forces:R:3 energy=-109.04364494582087 pbc="F F F"
Bi       0.00000000       0.00000000       0.00000000       0.00000000       0.00000000     -24.65760231
Bi       0.00000000       0.00000000       2.00242424       0.00000000       0.00000000      24.65760231
2
Properties=species:S:1:pos:R:3:forces:R:3 energy=-110.37402645203088 pbc="F F F"
Bi       0.00000000       0.00000000       0.00000000       0.00000000       0.00000000     -20.66238213
Bi       0.00000000       0.00000000       2.06121212       0.00000000       0.00000000      20.66238213
2
Properties=species:S:1:pos:R:3:forces:R:3 energy=-111.48129366421674 pbc="F F F"
Bi       0.00000000       0.00000000       0.00000000       0.00000000       0.00000000     -17.07809067
Bi       0.00000000       0.00000000       2.12000000       0.00000000       0.00000000      17.07809067
2
Properties=species:S:1:pos:R:3:forces:R:3 energy=-112.38980717576031 pbc="F F F"
Bi       0.00000000       0.00000000       0.00000000       0.00000000       0.00000000     -13.89339447
Bi       0.00000000       0.00000000       2.17878788       0.00000000       0.00000000      13.89339447
2
Properties=species:S:1:pos:R:3:forces:R:3 energy=-113.12212711262613 pbc="F F F"
Bi       0.00000000       0.00000000       0.00000000       0.00000000       0.00000000     -11.08157730
Bi       0.00000000       0.00000000       2.23757576       0.00000000       0.00000000      11.08157730
2
Properties=species:S:1:pos:R:3:forces:R:3 energy=-113.69966909181268 pbc="F F F"
Bi       0.00000000       0.00000000       0.00000000       0.00000000       0.00000000      -8.62278366
Bi       0.00000000       0.00000000       2.29636364       0.00000000       0.00000000       8.62278366
2
Properties=species:S:1:pos:R:3:forces:R:3 energy=-114.1420406493457 pbc="F F F"
Bi       0.00000000       0.00000000       0.00000000       0.00000000       0.00000000      -6.47398090
Bi       0.00000000       0.00000000       2.35515152       0.00000000       0.00000000       6.47398090
2
Properties=species:S:1:pos:R:3:forces:R:3 energy=-114.46592722513162 pbc="F F F"
Bi       0.00000000       0.00000000       0.00000000       0.00000000       0.00000000      -4.58541822
Bi       0.00000000       0.00000000       2.41393939       0.00000000       0.00000000       4.58541822
2
Properties=species:S:1:pos:R:3:forces:R:3 energy=-114.68583983886985 pbc="F F F"
Bi       0.00000000       0.00000000       0.00000000       0.00000000       0.00000000      -2.93564463
Bi       0.00000000       0.00000000       2.47272727       0.00000000       0.00000000       2.93564463
2
Properties=species:S:1:pos:R:3:forces:R:3 energy=-114.81567924422852 pbc="F F F"
Bi       0.00000000       0.00000000       0.00000000       0.00000000       0.00000000      -1.51941264
Bi       0.00000000       0.00000000       2.53151515       0.00000000       0.00000000       1.51941264
2
Properties=species:S:1:pos:R:3:forces:R:3 energy=-114.86862131052843 pbc="F F F"
Bi       0.00000000       0.00000000       0.00000000       0.00000000       0.00000000      -0.31377512
Bi       0.00000000       0.00000000       2.59030303       0.00000000       0.00000000       0.31377512
2
Properties=species:S:1:pos:R:3:forces:R:3 energy=-114.85611011451928 pbc="F F F"
Bi       0.00000000       0.00000000       0.00000000       0.00000000       0.00000000       0.71041518
Bi       0.00000000       0.00000000       2.64909091       0.00000000       0.00000000      -0.71041518
2
Properties=species:S:1:pos:R:3:forces:R:3 energy=-114.78857497912865 pbc="F F F"
Bi       0.00000000       0.00000000       0.00000000       0.00000000       0.00000000       1.55628991
Bi       0.00000000       0.00000000       2.70787879       0.00000000       0.00000000      -1.55628991
2
Properties=species:S:1:pos:R:3:forces:R:3 energy=-114.67688776859686 pbc="F F F"
Bi       0.00000000       0.00000000       0.00000000       0.00000000       0.00000000       2.21056461
Bi       0.00000000       0.00000000       2.76666667       0.00000000       0.00000000      -2.21056461
2
Properties=species:S:1:pos:R:3:forces:R:3 energy=-114.53248487959391 pbc="F F F"
Bi       0.00000000       0.00000000       0.00000000       0.00000000       0.00000000       2.67028880
Bi       0.00000000       0.00000000       2.82545455       0.00000000       0.00000000      -2.67028880
2
Properties=species:S:1:pos:R:3:forces:R:3 energy=-114.36658917681788 pbc="F F F"
Bi       0.00000000       0.00000000       0.00000000       0.00000000       0.00000000       2.94327450
Bi       0.00000000       0.00000000       2.88424242       0.00000000       0.00000000      -2.94327450
2
Properties=species:S:1:pos:R:3:forces:R:3 energy=-114.18990465803051 pbc="F F F"
Bi       0.00000000       0.00000000       0.00000000       0.00000000       0.00000000       3.03911948
Bi       0.00000000       0.00000000       2.94303030       0.00000000       0.00000000      -3.03911948
2
Properties=species:S:1:pos:R:3:forces:R:3 energy=-114.01238774011587 pbc="F F F"
Bi       0.00000000       0.00000000       0.00000000       0.00000000       0.00000000       2.97630739
Bi       0.00000000       0.00000000       3.00181818       0.00000000       0.00000000      -2.97630739
2
Properties=species:S:1:pos:R:3:forces:R:3 energy=-113.84227053106167 pbc="F F F"
Bi       0.00000000       0.00000000       0.00000000       0.00000000       0.00000000       2.79645228
Bi       0.00000000       0.00000000       3.06060606       0.00000000       0.00000000      -2.79645228
2
Properties=species:S:1:pos:R:3:forces:R:3 energy=-113.68467250348603 pbc="F F F"
Bi       0.00000000       0.00000000       0.00000000       0.00000000       0.00000000       2.56125665
Bi       0.00000000       0.00000000       3.11939394       0.00000000       0.00000000      -2.56125665
2
Properties=species:S:1:pos:R:3:forces:R:3 energy=-113.54107390564782 pbc="F F F"
Bi       0.00000000       0.00000000       0.00000000       0.00000000       0.00000000       2.32793760
Bi       0.00000000       0.00000000       3.17818182       0.00000000       0.00000000      -2.32793760
2
Properties=species:S:1:pos:R:3:forces:R:3 energy=-113.41033077661419 pbc="F F F"
Bi       0.00000000       0.00000000       0.00000000       0.00000000       0.00000000       2.12572718
Bi       0.00000000       0.00000000       3.23696970       0.00000000       0.00000000      -2.12572718
2
Properties=species:S:1:pos:R:3:forces:R:3 energy=-113.29052134051658 pbc="F F F"
Bi       0.00000000       0.00000000       0.00000000       0.00000000       0.00000000       1.95453131
Bi       0.00000000       0.00000000       3.29575758       0.00000000       0.00000000      -1.95453131
2
Properties=species:S:1:pos:R:3:forces:R:3 energy=-113.18018227336766 pbc="F F F"
Bi       0.00000000       0.00000000       0.00000000       0.00000000       0.00000000       1.80120695
Bi       0.00000000       0.00000000       3.35454545       0.00000000       0.00000000      -1.80120695
2
Properties=species:S:1:pos:R:3:forces:R:3 energy=-113.07861410454993 pbc="F F F"
Bi       0.00000000       0.00000000       0.00000000       0.00000000       0.00000000       1.65455198
Bi       0.00000000       0.00000000       3.41333333       0.00000000       0.00000000      -1.65455198
2
Properties=species:S:1:pos:R:3:forces:R:3 energy=-112.98560627667638 pbc="F F F"
Bi       0.00000000       0.00000000       0.00000000       0.00000000       0.00000000       1.50991046
Bi       0.00000000       0.00000000       3.47212121       0.00000000       0.00000000      -1.50991046
2
Properties=species:S:1:pos:R:3:forces:R:3 energy=-112.90105415134958 pbc="F F F"
Bi       0.00000000       0.00000000       0.00000000       0.00000000       0.00000000       1.36732149
Bi       0.00000000       0.00000000       3.53090909       0.00000000       0.00000000      -1.36732149
2
Properties=species:S:1:pos:R:3:forces:R:3 energy=-112.8247579562148 pbc="F F F"
Bi       0.00000000       0.00000000       0.00000000       0.00000000       0.00000000       1.22931266
Bi       0.00000000       0.00000000       3.58969697       0.00000000       0.00000000      -1.22931266
2
Properties=species:S:1:pos:R:3:forces:R:3 energy=-112.75634471228247 pbc="F F F"
Bi       0.00000000       0.00000000       0.00000000       0.00000000       0.00000000       1.09970105
Bi       0.00000000       0.00000000       3.64848485       0.00000000       0.00000000      -1.09970105
2
Properties=species:S:1:pos:R:3:forces:R:3 energy=-112.69521762218574 pbc="F F F"
Bi       0.00000000       0.00000000       0.00000000       0.00000000       0.00000000       0.98243916
Bi       0.00000000       0.00000000       3.70727273       0.00000000       0.00000000      -0.98243916
2
Properties=species:S:1:pos:R:3:forces:R:3 energy=-112.64053842553443 pbc="F F F"
Bi       0.00000000       0.00000000       0.00000000       0.00000000       0.00000000       0.88032246
Bi       0.00000000       0.00000000       3.76606061       0.00000000       0.00000000      -0.88032246
2
Properties=species:S:1:pos:R:3:forces:R:3 energy=-112.59139750029212 pbc="F F F"
Bi       0.00000000       0.00000000       0.00000000       0.00000000       0.00000000       0.79418635
Bi       0.00000000       0.00000000       3.82484848       0.00000000       0.00000000      -0.79418635
2
Properties=species:S:1:pos:R:3:forces:R:3 energy=-112.54687332510869 pbc="F F F"
Bi       0.00000000       0.00000000       0.00000000       0.00000000       0.00000000       0.72280443
Bi       0.00000000       0.00000000       3.88363636       0.00000000       0.00000000      -0.72280443
2
Properties=species:S:1:pos:R:3:forces:R:3 energy=-112.50617496374738 pbc="F F F"
Bi       0.00000000       0.00000000       0.00000000       0.00000000       0.00000000       0.66340101
Bi       0.00000000       0.00000000       3.94242424       0.00000000       0.00000000      -0.66340101
2
Properties=species:S:1:pos:R:3:forces:R:3 energy=-112.46870952269529 pbc="F F F"
Bi       0.00000000       0.00000000       0.00000000       0.00000000       0.00000000       0.61234075
Bi       0.00000000       0.00000000       4.00121212       0.00000000       0.00000000      -0.61234075
2
Properties=species:S:1:pos:R:3:forces:R:3 energy=-112.43408940041923 pbc="F F F"
Bi       0.00000000       0.00000000       0.00000000       0.00000000       0.00000000       0.56581515
Bi       0.00000000       0.00000000       4.06000000       0.00000000       0.00000000      -0.56581515
2
Properties=species:S:1:pos:R:3:forces:R:3 energy=-112.4021629791741 pbc="F F F"
Bi       0.00000000       0.00000000       0.00000000       0.00000000       0.00000000       0.52035403
Bi       0.00000000       0.00000000       4.11878788       0.00000000       0.00000000      -0.52035403
2
Properties=species:S:1:pos:R:3:forces:R:3 energy=-112.37294605707068 pbc="F F F"
Bi       0.00000000       0.00000000       0.00000000       0.00000000       0.00000000       0.47314829
Bi       0.00000000       0.00000000       4.17757576       0.00000000       0.00000000      -0.47314829
2
Properties=species:S:1:pos:R:3:forces:R:3 energy=-112.34660672787882 pbc="F F F"
Bi       0.00000000       0.00000000       0.00000000       0.00000000       0.00000000       0.42226395
Bi       0.00000000       0.00000000       4.23636364       0.00000000       0.00000000      -0.42226395
2
Properties=species:S:1:pos:R:3:forces:R:3 energy=-112.32338929140656 pbc="F F F"
Bi       0.00000000       0.00000000       0.00000000       0.00000000       0.00000000       0.36673805
Bi       0.00000000       0.00000000       4.29515152       0.00000000       0.00000000      -0.36673805
2
Properties=species:S:1:pos:R:3:forces:R:3 energy=-112.30357601070092 pbc="F F F"
Bi       0.00000000       0.00000000       0.00000000       0.00000000       0.00000000       0.30661455
Bi       0.00000000       0.00000000       4.35393939       0.00000000       0.00000000      -0.30661455
2
Properties=species:S:1:pos:R:3:forces:R:3 energy=-112.28741101292368 pbc="F F F"
Bi       0.00000000       0.00000000       0.00000000       0.00000000       0.00000000       0.24287474
Bi       0.00000000       0.00000000       4.41272727       0.00000000       0.00000000      -0.24287474
2
Properties=species:S:1:pos:R:3:forces:R:3 energy=-112.2750544512116 pbc="F F F"
Bi       0.00000000       0.00000000       0.00000000       0.00000000       0.00000000       0.17728491
Bi       0.00000000       0.00000000       4.47151515       0.00000000       0.00000000      -0.17728491
2
Properties=species:S:1:pos:R:3:forces:R:3 energy=-112.26655962362042 pbc="F F F"
Bi       0.00000000       0.00000000       0.00000000       0.00000000       0.00000000       0.11212751
Bi       0.00000000       0.00000000       4.53030303       0.00000000       0.00000000      -0.11212751
2
Properties=species:S:1:pos:R:3:forces:R:3 energy=-112.26181203379531 pbc="F F F"
Bi       0.00000000       0.00000000       0.00000000       0.00000000       0.00000000       0.04987995
Bi       0.00000000       0.00000000       4.58909091       0.00000000       0.00000000      -0.04987995
2
Properties=species:S:1:pos:R:3:forces:R:3 energy=-112.26059035801885 pbc="F F F"
Bi       0.00000000       0.00000000       0.00000000       0.00000000       0.00000000      -0.00712300
Bi       0.00000000       0.00000000       4.64787879       0.00000000       0.00000000       0.00712300
2
Properties=species:S:1:pos:R:3:forces:R:3 energy=-112.26251307587933 pbc="F F F"
Bi       0.00000000       0.00000000       0.00000000       0.00000000       0.00000000      -0.05697954
Bi       0.00000000       0.00000000       4.70666667       0.00000000       0.00000000       0.05697954
2
Properties=species:S:1:pos:R:3:forces:R:3 energy=-112.26712240628184 pbc="F F F"
Bi       0.00000000       0.00000000       0.00000000       0.00000000       0.00000000      -0.09842712
Bi       0.00000000       0.00000000       4.76545455       0.00000000       0.00000000       0.09842712
2
Properties=species:S:1:pos:R:3:forces:R:3 energy=-112.27390715603414 pbc="F F F"
Bi       0.00000000       0.00000000       0.00000000       0.00000000       0.00000000      -0.13097425
Bi       0.00000000       0.00000000       4.82424242       0.00000000       0.00000000       0.13097425
2
Properties=species:S:1:pos:R:3:forces:R:3 energy=-112.28234858649672 pbc="F F F"
Bi       0.00000000       0.00000000       0.00000000       0.00000000       0.00000000      -0.15488110
Bi       0.00000000       0.00000000       4.88303030       0.00000000       0.00000000       0.15488110
2
Properties=species:S:1:pos:R:3:forces:R:3 energy=-112.29196611154642 pbc="F F F"
Bi       0.00000000       0.00000000       0.00000000       0.00000000       0.00000000      -0.17106158
Bi       0.00000000       0.00000000       4.94181818       0.00000000       0.00000000       0.17106158
2
Properties=species:S:1:pos:R:3:forces:R:3 energy=-112.30234019605543 pbc="F F F"
Bi       0.00000000       0.00000000       0.00000000       0.00000000       0.00000000      -0.18080498
Bi       0.00000000       0.00000000       5.00060606       0.00000000       0.00000000       0.18080498
2
Properties=species:S:1:pos:R:3:forces:R:3 energy=-112.31312769150007 pbc="F F F"
Bi       0.00000000       0.00000000       0.00000000       0.00000000       0.00000000      -0.18544908
Bi       0.00000000       0.00000000       5.05939394       0.00000000       0.00000000       0.18544908
2
Properties=species:S:1:pos:R:3:forces:R:3 energy=-112.32406174884565 pbc="F F F"
Bi       0.00000000       0.00000000       0.00000000       0.00000000       0.00000000      -0.18595015
Bi       0.00000000       0.00000000       5.11818182       0.00000000       0.00000000       0.18595015
2
Properties=species:S:1:pos:R:3:forces:R:3 energy=-112.3349137151314 pbc="F F F"
Bi       0.00000000       0.00000000       0.00000000       0.00000000       0.00000000      -0.18246338
Bi       0.00000000       0.00000000       5.17696970       0.00000000       0.00000000       0.18246338
2
Properties=species:S:1:pos:R:3:forces:R:3 energy=-112.34542445624834 pbc="F F F"
Bi       0.00000000       0.00000000       0.00000000       0.00000000       0.00000000      -0.17411023
Bi       0.00000000       0.00000000       5.23575758       0.00000000       0.00000000       0.17411023
2
Properties=species:S:1:pos:R:3:forces:R:3 energy=-112.35525860353889 pbc="F F F"
Bi       0.00000000       0.00000000       0.00000000       0.00000000       0.00000000      -0.15944466
Bi       0.00000000       0.00000000       5.29454545       0.00000000       0.00000000       0.15944466
2
Properties=species:S:1:pos:R:3:forces:R:3 energy=-112.36404265721187 pbc="F F F"
Bi       0.00000000       0.00000000       0.00000000       0.00000000       0.00000000      -0.13868098
Bi       0.00000000       0.00000000       5.35333333       0.00000000       0.00000000       0.13868098
2
Properties=species:S:1:pos:R:3:forces:R:3 energy=-112.3715633862384 pbc="F F F"
Bi       0.00000000       0.00000000       0.00000000       0.00000000       0.00000000      -0.11812931
Bi       0.00000000       0.00000000       5.41212121       0.00000000       0.00000000       0.11812931
2
Properties=species:S:1:pos:R:3:forces:R:3 energy=-112.37816455607556 pbc="F F F"
Bi       0.00000000       0.00000000       0.00000000       0.00000000       0.00000000      -0.10867450
Bi       0.00000000       0.00000000       5.47090909       0.00000000       0.00000000       0.10867450
2
Properties=species:S:1:pos:R:3:forces:R:3 energy=-112.38447985946799 pbc="F F F"
Bi       0.00000000       0.00000000       0.00000000       0.00000000       0.00000000      -0.10546669
Bi       0.00000000       0.00000000       5.52969697       0.00000000       0.00000000       0.10546669
2
Properties=species:S:1:pos:R:3:forces:R:3 energy=-112.39028088896112 pbc="F F F"
Bi       0.00000000       0.00000000       0.00000000       0.00000000       0.00000000      -0.08902273
Bi       0.00000000       0.00000000       5.58848485       0.00000000       0.00000000       0.08902273
2
Properties=species:S:1:pos:R:3:forces:R:3 energy=-112.39475944588159 pbc="F F F"
Bi       0.00000000       0.00000000       0.00000000       0.00000000       0.00000000      -0.06370509
Bi       0.00000000       0.00000000       5.64727273       0.00000000       0.00000000       0.06370509
2
Properties=species:S:1:pos:R:3:forces:R:3 energy=-112.39800761594988 pbc="F F F"
Bi       0.00000000       0.00000000       0.00000000       0.00000000       0.00000000      -0.05007333
Bi       0.00000000       0.00000000       5.70606061       0.00000000       0.00000000       0.05007333
2
Properties=species:S:1:pos:R:3:forces:R:3 energy=-112.40096434688743 pbc="F F F"
Bi       0.00000000       0.00000000       0.00000000       0.00000000       0.00000000      -0.05092378
Bi       0.00000000       0.00000000       5.76484848       0.00000000       0.00000000       0.05092378
2
Properties=species:S:1:pos:R:3:forces:R:3 energy=-112.40382855652899 pbc="F F F"
Bi       0.00000000       0.00000000       0.00000000       0.00000000       0.00000000      -0.04405687
Bi       0.00000000       0.00000000       5.82363636       0.00000000       0.00000000       0.04405687
2
Properties=species:S:1:pos:R:3:forces:R:3 energy=-112.40584547572159 pbc="F F F"
Bi       0.00000000       0.00000000       0.00000000       0.00000000       0.00000000      -0.02346635
Bi       0.00000000       0.00000000       5.88242424       0.00000000       0.00000000       0.02346635
2
Properties=species:S:1:pos:R:3:forces:R:3 energy=-112.40661891606328 pbc="F F F"
Bi       0.00000000       0.00000000       0.00000000       0.00000000       0.00000000      -0.00387298
Bi       0.00000000       0.00000000       5.94121212       0.00000000       0.00000000       0.00387298
2
Properties=species:S:1:pos:R:3:forces:R:3 energy=-112.40654614539142 pbc="F F F"
Bi       0.00000000       0.00000000       0.00000000       0.00000000       0.00000000       0.00369515
Bi       0.00000000       0.00000000       6.00000000       0.00000000       0.00000000      -0.00369515
