2
Properties=species:S:1:pos:R:3:forces:R:3 energy=-2347.496538566139 pbc="F F F"
Dy       0.00000000       0.00000000       0.00000000       0.00000000       0.00000000 -218313.17187500
Dy       0.00000000       0.00000000       0.18000000       0.00000000       0.00000000  218313.17187500
2
Properties=species:S:1:pos:R:3:forces:R:3 energy=-9959.22261278489 pbc="F F F"
Dy       0.00000000       0.00000000       0.00000000       0.00000000       0.00000000  -71171.96093750
Dy       0.00000000       0.00000000       0.23878788       0.00000000       0.00000000   71171.96093750
2
Properties=species:S:1:pos:R:3:forces:R:3 energy=-12543.71772997239 pbc="F F F"
Dy       0.00000000       0.00000000       0.00000000       0.00000000       0.00000000  -24308.55859375
Dy       0.00000000       0.00000000       0.29757576       0.00000000       0.00000000   24308.55859375
2
Properties=species:S:1:pos:R:3:forces:R:3 energy=-13313.38276903489 pbc="F F F"
Dy       0.00000000       0.00000000       0.00000000       0.00000000       0.00000000   -4100.88916016
Dy       0.00000000       0.00000000       0.35636364       0.00000000       0.00000000    4100.88916016
2
Properties=species:S:1:pos:R:3:forces:R:3 energy=-13173.56440965989 pbc="F F F"
Dy       0.00000000       0.00000000       0.00000000       0.00000000       0.00000000    8220.76464844
Dy       0.00000000       0.00000000       0.41515152       0.00000000       0.00000000   -8220.76464844
2
Properties=species:S:1:pos:R:3:forces:R:3 energy=-12385.979448719221 pbc="F F F"
Dy       0.00000000       0.00000000       0.00000000       0.00000000       0.00000000   18418.32226562
Dy       0.00000000       0.00000000       0.47393939       0.00000000       0.00000000  -18418.32226562
2
Properties=species:S:1:pos:R:3:forces:R:3 energy=-11020.268511219221 pbc="F F F"
Dy       0.00000000       0.00000000       0.00000000       0.00000000       0.00000000   27922.14257812
Dy       0.00000000       0.00000000       0.53272727       0.00000000       0.00000000  -27922.14257812
2
Properties=species:S:1:pos:R:3:forces:R:3 energy=-9130.004839337886 pbc="F F F"
Dy       0.00000000       0.00000000       0.00000000       0.00000000       0.00000000   36003.78515625
Dy       0.00000000       0.00000000       0.59151515       0.00000000       0.00000000  -36003.78515625
2
Properties=species:S:1:pos:R:3:forces:R:3 energy=-7074.066362772218 pbc="F F F"
Dy       0.00000000       0.00000000       0.00000000       0.00000000       0.00000000   37144.25781250
Dy       0.00000000       0.00000000       0.65030303       0.00000000       0.00000000  -37144.25781250
2
Properties=species:S:1:pos:R:3:forces:R:3 energy=-4810.166948703382 pbc="F F F"
Dy       0.00000000       0.00000000       0.00000000       0.00000000       0.00000000   38749.21484375
Dy       0.00000000       0.00000000       0.70909091       0.00000000       0.00000000  -38749.21484375
2
Properties=species:S:1:pos:R:3:forces:R:3 energy=-2671.716509237586 pbc="F F F"
Dy       0.00000000       0.00000000       0.00000000       0.00000000       0.00000000   32652.57617188
Dy       0.00000000       0.00000000       0.76787879       0.00000000       0.00000000  -32652.57617188
2
Properties=species:S:1:pos:R:3:forces:R:3 energy=-1106.0723441826842 pbc="F F F"
Dy       0.00000000       0.00000000       0.00000000       0.00000000       0.00000000   20074.02148438
Dy       0.00000000       0.00000000       0.82666667       0.00000000       0.00000000  -20074.02148438
2
Properties=species:S:1:pos:R:3:forces:R:3 energy=-308.4148734542166 pbc="F F F"
Dy       0.00000000       0.00000000       0.00000000       0.00000000       0.00000000    7513.35742188
Dy       0.00000000       0.00000000       0.88545455       0.00000000       0.00000000   -7513.35742188
2
Properties=species:S:1:pos:R:3:forces:R:3 energy=-82.89016181048386 pbc="F F F"
Dy       0.00000000       0.00000000       0.00000000       0.00000000       0.00000000    2267.43505859
Dy       0.00000000       0.00000000       0.94424242       0.00000000       0.00000000   -2267.43505859
2
Properties=species:S:1:pos:R:3:forces:R:3 energy=-61.834871543966386 pbc="F F F"
Dy       0.00000000       0.00000000       0.00000000       0.00000000       0.00000000     -37.98785400
Dy       0.00000000       0.00000000       1.00303030       0.00000000       0.00000000      37.98785400
2
Properties=species:S:1:pos:R:3:forces:R:3 energy=-62.26468868031697 pbc="F F F"
Dy       0.00000000       0.00000000       0.00000000       0.00000000       0.00000000      -8.56301117
Dy       0.00000000       0.00000000       1.06181818       0.00000000       0.00000000       8.56301117
2
Properties=species:S:1:pos:R:3:forces:R:3 energy=-63.00806247197103 pbc="F F F"
Dy       0.00000000       0.00000000       0.00000000       0.00000000       0.00000000     -15.20761108
Dy       0.00000000       0.00000000       1.12060606       0.00000000       0.00000000      15.20761108
2
Properties=species:S:1:pos:R:3:forces:R:3 energy=-63.83961677710687 pbc="F F F"
Dy       0.00000000       0.00000000       0.00000000       0.00000000       0.00000000     -12.13203812
Dy       0.00000000       0.00000000       1.17939394       0.00000000       0.00000000      12.13203812
2
Properties=species:S:1:pos:R:3:forces:R:3 energy=-64.40435205032036 pbc="F F F"
Dy       0.00000000       0.00000000       0.00000000       0.00000000       0.00000000      -7.27174473
Dy       0.00000000       0.00000000       1.23818182       0.00000000       0.00000000       7.27174473
2
Properties=species:S:1:pos:R:3:forces:R:3 energy=-64.76334540319576 pbc="F F F"
Dy       0.00000000       0.00000000       0.00000000       0.00000000       0.00000000      -5.72556877
Dy       0.00000000       0.00000000       1.29696970       0.00000000       0.00000000       5.72556877
2
Properties=species:S:1:pos:R:3:forces:R:3 energy=-65.14561599443648 pbc="F F F"
Dy       0.00000000       0.00000000       0.00000000       0.00000000       0.00000000      -7.54038286
Dy       0.00000000       0.00000000       1.35575758       0.00000000       0.00000000       7.54038286
2
Properties=species:S:1:pos:R:3:forces:R:3 energy=-65.6521998831486 pbc="F F F"
Dy       0.00000000       0.00000000       0.00000000       0.00000000       0.00000000      -9.57196522
Dy       0.00000000       0.00000000       1.41454545       0.00000000       0.00000000       9.57196522
2
Properties=species:S:1:pos:R:3:forces:R:3 energy=-66.25159529297693 pbc="F F F"
Dy       0.00000000       0.00000000       0.00000000       0.00000000       0.00000000     -10.63801670
Dy       0.00000000       0.00000000       1.47333333       0.00000000       0.00000000      10.63801670
2
Properties=species:S:1:pos:R:3:forces:R:3 energy=-66.88133272882831 pbc="F F F"
Dy       0.00000000       0.00000000       0.00000000       0.00000000       0.00000000     -10.60355663
Dy       0.00000000       0.00000000       1.53212121       0.00000000       0.00000000      10.60355663
2
Properties=species:S:1:pos:R:3:forces:R:3 energy=-67.4784391524027 pbc="F F F"
Dy       0.00000000       0.00000000       0.00000000       0.00000000       0.00000000      -9.56788826
Dy       0.00000000       0.00000000       1.59090909       0.00000000       0.00000000       9.56788826
2
Properties=species:S:1:pos:R:3:forces:R:3 energy=-67.9950706147555 pbc="F F F"
Dy       0.00000000       0.00000000       0.00000000       0.00000000       0.00000000      -7.97079420
Dy       0.00000000       0.00000000       1.64969697       0.00000000       0.00000000       7.97079420
2
Properties=species:S:1:pos:R:3:forces:R:3 energy=-68.41795958295778 pbc="F F F"
Dy       0.00000000       0.00000000       0.00000000       0.00000000       0.00000000      -6.48057175
Dy       0.00000000       0.00000000       1.70848485       0.00000000       0.00000000       6.48057175
2
Properties=species:S:1:pos:R:3:forces:R:3 energy=-68.76646943815508 pbc="F F F"
Dy       0.00000000       0.00000000       0.00000000       0.00000000       0.00000000      -5.45493984
Dy       0.00000000       0.00000000       1.76727273       0.00000000       0.00000000       5.45493984
2
Properties=species:S:1:pos:R:3:forces:R:3 energy=-69.06675372579359 pbc="F F F"
Dy       0.00000000       0.00000000       0.00000000       0.00000000       0.00000000      -4.80506802
Dy       0.00000000       0.00000000       1.82606061       0.00000000       0.00000000       4.80506802
2
Properties=species:S:1:pos:R:3:forces:R:3 energy=-69.33413987414403 pbc="F F F"
Dy       0.00000000       0.00000000       0.00000000       0.00000000       0.00000000      -4.29177284
Dy       0.00000000       0.00000000       1.88484848       0.00000000       0.00000000       4.29177284
2
Properties=species:S:1:pos:R:3:forces:R:3 energy=-69.56872703999272 pbc="F F F"
Dy       0.00000000       0.00000000       0.00000000       0.00000000       0.00000000      -3.64958501
Dy       0.00000000       0.00000000       1.94363636       0.00000000       0.00000000       3.64958501
2
Properties=species:S:1:pos:R:3:forces:R:3 energy=-69.75841496876706 pbc="F F F"
Dy       0.00000000       0.00000000       0.00000000       0.00000000       0.00000000      -2.77224970
Dy       0.00000000       0.00000000       2.00242424       0.00000000       0.00000000       2.77224970
2
Properties=species:S:1:pos:R:3:forces:R:3 energy=-69.89365925939804 pbc="F F F"
Dy       0.00000000       0.00000000       0.00000000       0.00000000       0.00000000      -1.84645724
Dy       0.00000000       0.00000000       2.06121212       0.00000000       0.00000000       1.84645724
2
Properties=species:S:1:pos:R:3:forces:R:3 energy=-69.98026583994226 pbc="F F F"
Dy       0.00000000       0.00000000       0.00000000       0.00000000       0.00000000      -1.15704572
Dy       0.00000000       0.00000000       2.12000000       0.00000000       0.00000000       1.15704572
2
Properties=species:S:1:pos:R:3:forces:R:3 energy=-70.03702587111633 pbc="F F F"
Dy       0.00000000       0.00000000       0.00000000       0.00000000       0.00000000      -0.83448064
Dy       0.00000000       0.00000000       2.17878788       0.00000000       0.00000000       0.83448064
2
Properties=species:S:1:pos:R:3:forces:R:3 energy=-70.0845386706373 pbc="F F F"
Dy       0.00000000       0.00000000       0.00000000       0.00000000       0.00000000      -0.82459390
Dy       0.00000000       0.00000000       2.23757576       0.00000000       0.00000000       0.82459390
2
Properties=species:S:1:pos:R:3:forces:R:3 energy=-70.13791802155423 pbc="F F F"
Dy       0.00000000       0.00000000       0.00000000       0.00000000       0.00000000      -1.01715732
Dy       0.00000000       0.00000000       2.29636364       0.00000000       0.00000000       1.01715732
2
Properties=species:S:1:pos:R:3:forces:R:3 energy=-70.2064259581429 pbc="F F F"
Dy       0.00000000       0.00000000       0.00000000       0.00000000       0.00000000      -1.32767761
Dy       0.00000000       0.00000000       2.35515152       0.00000000       0.00000000       1.32767761
2
Properties=species:S:1:pos:R:3:forces:R:3 energy=-70.29502915288673 pbc="F F F"
Dy       0.00000000       0.00000000       0.00000000       0.00000000       0.00000000      -1.68924522
Dy       0.00000000       0.00000000       2.41393939       0.00000000       0.00000000       1.68924522
2
Properties=species:S:1:pos:R:3:forces:R:3 energy=-70.40464307610864 pbc="F F F"
Dy       0.00000000       0.00000000       0.00000000       0.00000000       0.00000000      -2.03047466
Dy       0.00000000       0.00000000       2.47272727       0.00000000       0.00000000       2.03047466
2
Properties=species:S:1:pos:R:3:forces:R:3 energy=-70.53197175334343 pbc="F F F"
Dy       0.00000000       0.00000000       0.00000000       0.00000000       0.00000000      -2.28104019
Dy       0.00000000       0.00000000       2.53151515       0.00000000       0.00000000       2.28104019
2
Properties=species:S:1:pos:R:3:forces:R:3 energy=-70.67007236587557 pbc="F F F"
Dy       0.00000000       0.00000000       0.00000000       0.00000000       0.00000000      -2.39159799
Dy       0.00000000       0.00000000       2.59030303       0.00000000       0.00000000       2.39159799
2
Properties=species:S:1:pos:R:3:forces:R:3 energy=-70.81007947172853 pbc="F F F"
Dy       0.00000000       0.00000000       0.00000000       0.00000000       0.00000000      -2.34557176
Dy       0.00000000       0.00000000       2.64909091       0.00000000       0.00000000       2.34557176
2
Properties=species:S:1:pos:R:3:forces:R:3 energy=-70.94303607935926 pbc="F F F"
Dy       0.00000000       0.00000000       0.00000000       0.00000000       0.00000000      -2.15608072
Dy       0.00000000       0.00000000       2.70787879       0.00000000       0.00000000       2.15608072
2
Properties=species:S:1:pos:R:3:forces:R:3 energy=-71.06138899314716 pbc="F F F"
Dy       0.00000000       0.00000000       0.00000000       0.00000000       0.00000000      -1.85532880
Dy       0.00000000       0.00000000       2.76666667       0.00000000       0.00000000       1.85532880
2
Properties=species:S:1:pos:R:3:forces:R:3 energy=-71.15980516811241 pbc="F F F"
Dy       0.00000000       0.00000000       0.00000000       0.00000000       0.00000000      -1.48461759
Dy       0.00000000       0.00000000       2.82545455       0.00000000       0.00000000       1.48461759
2
Properties=species:S:1:pos:R:3:forces:R:3 energy=-71.23541584103747 pbc="F F F"
Dy       0.00000000       0.00000000       0.00000000       0.00000000       0.00000000      -1.08674824
Dy       0.00000000       0.00000000       2.88424242       0.00000000       0.00000000       1.08674824
2
Properties=species:S:1:pos:R:3:forces:R:3 energy=-71.28779363911569 pbc="F F F"
Dy       0.00000000       0.00000000       0.00000000       0.00000000       0.00000000      -0.69950294
Dy       0.00000000       0.00000000       2.94303030       0.00000000       0.00000000       0.69950294
2
Properties=species:S:1:pos:R:3:forces:R:3 energy=-71.31841856985149 pbc="F F F"
Dy       0.00000000       0.00000000       0.00000000       0.00000000       0.00000000      -0.35042167
Dy       0.00000000       0.00000000       3.00181818       0.00000000       0.00000000       0.35042167
2
Properties=species:S:1:pos:R:3:forces:R:3 energy=-71.33005231567407 pbc="F F F"
Dy       0.00000000       0.00000000       0.00000000       0.00000000       0.00000000      -0.05483531
Dy       0.00000000       0.00000000       3.06060606       0.00000000       0.00000000       0.05483531
2
Properties=species:S:1:pos:R:3:forces:R:3 energy=-71.32601353015599 pbc="F F F"
Dy       0.00000000       0.00000000       0.00000000       0.00000000       0.00000000       0.18253458
Dy       0.00000000       0.00000000       3.11939394       0.00000000       0.00000000      -0.18253458
2
Properties=species:S:1:pos:R:3:forces:R:3 energy=-71.30968951874931 pbc="F F F"
Dy       0.00000000       0.00000000       0.00000000       0.00000000       0.00000000       0.36387703
Dy       0.00000000       0.00000000       3.17818182       0.00000000       0.00000000      -0.36387703
2
Properties=species:S:1:pos:R:3:forces:R:3 energy=-71.28422341460286 pbc="F F F"
Dy       0.00000000       0.00000000       0.00000000       0.00000000       0.00000000       0.49453899
Dy       0.00000000       0.00000000       3.23696970       0.00000000       0.00000000      -0.49453899
2
Properties=species:S:1:pos:R:3:forces:R:3 energy=-71.25241501544029 pbc="F F F"
Dy       0.00000000       0.00000000       0.00000000       0.00000000       0.00000000       0.58063298
Dy       0.00000000       0.00000000       3.29575758       0.00000000       0.00000000      -0.58063298
2
Properties=species:S:1:pos:R:3:forces:R:3 energy=-71.21670558179177 pbc="F F F"
Dy       0.00000000       0.00000000       0.00000000       0.00000000       0.00000000       0.62845391
Dy       0.00000000       0.00000000       3.35454545       0.00000000       0.00000000      -0.62845391
2
Properties=species:S:1:pos:R:3:forces:R:3 energy=-71.17913953796591 pbc="F F F"
Dy       0.00000000       0.00000000       0.00000000       0.00000000       0.00000000       0.64505154
Dy       0.00000000       0.00000000       3.41333333       0.00000000       0.00000000      -0.64505154
2
Properties=species:S:1:pos:R:3:forces:R:3 energy=-71.1413188445702 pbc="F F F"
Dy       0.00000000       0.00000000       0.00000000       0.00000000       0.00000000       0.63854426
Dy       0.00000000       0.00000000       3.47212121       0.00000000       0.00000000      -0.63854426
2
Properties=species:S:1:pos:R:3:forces:R:3 energy=-71.1043495452319 pbc="F F F"
Dy       0.00000000       0.00000000       0.00000000       0.00000000       0.00000000       0.61739612
Dy       0.00000000       0.00000000       3.53090909       0.00000000       0.00000000      -0.61739612
2
Properties=species:S:1:pos:R:3:forces:R:3 energy=-71.0688646421105 pbc="F F F"
Dy       0.00000000       0.00000000       0.00000000       0.00000000       0.00000000       0.58900338
Dy       0.00000000       0.00000000       3.58969697       0.00000000       0.00000000      -0.58900338
2
Properties=species:S:1:pos:R:3:forces:R:3 energy=-71.03513092642788 pbc="F F F"
Dy       0.00000000       0.00000000       0.00000000       0.00000000       0.00000000       0.55851525
Dy       0.00000000       0.00000000       3.64848485       0.00000000       0.00000000      -0.55851525
2
Properties=species:S:1:pos:R:3:forces:R:3 energy=-71.00318630440225 pbc="F F F"
Dy       0.00000000       0.00000000       0.00000000       0.00000000       0.00000000       0.52846414
Dy       0.00000000       0.00000000       3.70727273       0.00000000       0.00000000      -0.52846414
2
Properties=species:S:1:pos:R:3:forces:R:3 energy=-70.97298472723371 pbc="F F F"
Dy       0.00000000       0.00000000       0.00000000       0.00000000       0.00000000       0.49921083
Dy       0.00000000       0.00000000       3.76606061       0.00000000       0.00000000      -0.49921083
2
Properties=species:S:1:pos:R:3:forces:R:3 energy=-70.94449541124706 pbc="F F F"
Dy       0.00000000       0.00000000       0.00000000       0.00000000       0.00000000       0.46984056
Dy       0.00000000       0.00000000       3.82484848       0.00000000       0.00000000      -0.46984056
2
Properties=species:S:1:pos:R:3:forces:R:3 energy=-70.91776384136986 pbc="F F F"
Dy       0.00000000       0.00000000       0.00000000       0.00000000       0.00000000       0.43918777
Dy       0.00000000       0.00000000       3.88363636       0.00000000       0.00000000      -0.43918777
2
Properties=species:S:1:pos:R:3:forces:R:3 energy=-70.89288889878793 pbc="F F F"
Dy       0.00000000       0.00000000       0.00000000       0.00000000       0.00000000       0.40683106
Dy       0.00000000       0.00000000       3.94242424       0.00000000       0.00000000      -0.40683106
2
Properties=species:S:1:pos:R:3:forces:R:3 energy=-70.8699465574965 pbc="F F F"
Dy       0.00000000       0.00000000       0.00000000       0.00000000       0.00000000       0.37386653
Dy       0.00000000       0.00000000       4.00121212       0.00000000       0.00000000      -0.37386653
2
Properties=species:S:1:pos:R:3:forces:R:3 energy=-70.84889072117839 pbc="F F F"
Dy       0.00000000       0.00000000       0.00000000       0.00000000       0.00000000       0.34318650
Dy       0.00000000       0.00000000       4.06000000       0.00000000       0.00000000      -0.34318650
2
Properties=species:S:1:pos:R:3:forces:R:3 energy=-70.82946927768927 pbc="F F F"
Dy       0.00000000       0.00000000       0.00000000       0.00000000       0.00000000       0.31906232
Dy       0.00000000       0.00000000       4.11878788       0.00000000       0.00000000      -0.31906232
2
Properties=species:S:1:pos:R:3:forces:R:3 energy=-70.81115545351385 pbc="F F F"
Dy       0.00000000       0.00000000       0.00000000       0.00000000       0.00000000       0.30606708
Dy       0.00000000       0.00000000       4.17757576       0.00000000       0.00000000      -0.30606708
2
Properties=species:S:1:pos:R:3:forces:R:3 energy=-70.7931935901331 pbc="F F F"
Dy       0.00000000       0.00000000       0.00000000       0.00000000       0.00000000       0.30770397
Dy       0.00000000       0.00000000       4.23636364       0.00000000       0.00000000      -0.30770397
2
Properties=species:S:1:pos:R:3:forces:R:3 energy=-70.77466778640027 pbc="F F F"
Dy       0.00000000       0.00000000       0.00000000       0.00000000       0.00000000       0.32514733
Dy       0.00000000       0.00000000       4.29515152       0.00000000       0.00000000      -0.32514733
2
Properties=species:S:1:pos:R:3:forces:R:3 energy=-70.75469267141801 pbc="F F F"
Dy       0.00000000       0.00000000       0.00000000       0.00000000       0.00000000       0.35646990
Dy       0.00000000       0.00000000       4.35393939       0.00000000       0.00000000      -0.35646990
2
Properties=species:S:1:pos:R:3:forces:R:3 energy=-70.73258122270767 pbc="F F F"
Dy       0.00000000       0.00000000       0.00000000       0.00000000       0.00000000       0.39653978
Dy       0.00000000       0.00000000       4.41272727       0.00000000       0.00000000      -0.39653978
2
Properties=species:S:1:pos:R:3:forces:R:3 energy=-70.70804313680276 pbc="F F F"
Dy       0.00000000       0.00000000       0.00000000       0.00000000       0.00000000       0.43765658
Dy       0.00000000       0.00000000       4.47151515       0.00000000       0.00000000      -0.43765658
2
Properties=species:S:1:pos:R:3:forces:R:3 energy=-70.68127641049371 pbc="F F F"
Dy       0.00000000       0.00000000       0.00000000       0.00000000       0.00000000       0.47089347
Dy       0.00000000       0.00000000       4.53030303       0.00000000       0.00000000      -0.47089347
2
Properties=species:S:1:pos:R:3:forces:R:3 energy=-70.65299781722435 pbc="F F F"
Dy       0.00000000       0.00000000       0.00000000       0.00000000       0.00000000       0.48794770
Dy       0.00000000       0.00000000       4.58909091       0.00000000       0.00000000      -0.48794770
2
Properties=species:S:1:pos:R:3:forces:R:3 energy=-70.62433613041446 pbc="F F F"
Dy       0.00000000       0.00000000       0.00000000       0.00000000       0.00000000       0.48314631
Dy       0.00000000       0.00000000       4.64787879       0.00000000       0.00000000      -0.48314631
2
Properties=species:S:1:pos:R:3:forces:R:3 energy=-70.59664901482326 pbc="F F F"
Dy       0.00000000       0.00000000       0.00000000       0.00000000       0.00000000       0.45502430
Dy       0.00000000       0.00000000       4.70666667       0.00000000       0.00000000      -0.45502430
2
Properties=species:S:1:pos:R:3:forces:R:3 energy=-70.571233093718 pbc="F F F"
Dy       0.00000000       0.00000000       0.00000000       0.00000000       0.00000000       0.40688697
Dy       0.00000000       0.00000000       4.76545455       0.00000000       0.00000000      -0.40688697
2
Properties=species:S:1:pos:R:3:forces:R:3 energy=-70.54906458113828 pbc="F F F"
Dy       0.00000000       0.00000000       0.00000000       0.00000000       0.00000000       0.34599778
Dy       0.00000000       0.00000000       4.82424242       0.00000000       0.00000000      -0.34599778
2
Properties=species:S:1:pos:R:3:forces:R:3 energy=-70.53062379631824 pbc="F F F"
Dy       0.00000000       0.00000000       0.00000000       0.00000000       0.00000000       0.28155607
Dy       0.00000000       0.00000000       4.88303030       0.00000000       0.00000000      -0.28155607
2
Properties=species:S:1:pos:R:3:forces:R:3 energy=-70.51585700404266 pbc="F F F"
Dy       0.00000000       0.00000000       0.00000000       0.00000000       0.00000000       0.22211212
Dy       0.00000000       0.00000000       4.94181818       0.00000000       0.00000000      -0.22211212
2
Properties=species:S:1:pos:R:3:forces:R:3 energy=-70.50429087773965 pbc="F F F"
Dy       0.00000000       0.00000000       0.00000000       0.00000000       0.00000000       0.17347488
Dy       0.00000000       0.00000000       5.00060606       0.00000000       0.00000000      -0.17347488
2
Properties=species:S:1:pos:R:3:forces:R:3 energy=-70.49520799139405 pbc="F F F"
Dy       0.00000000       0.00000000       0.00000000       0.00000000       0.00000000       0.13776341
Dy       0.00000000       0.00000000       5.05939394       0.00000000       0.00000000      -0.13776341
2
Properties=species:S:1:pos:R:3:forces:R:3 energy=-70.48786040774823 pbc="F F F"
Dy       0.00000000       0.00000000       0.00000000       0.00000000       0.00000000       0.11401204
Dy       0.00000000       0.00000000       5.11818182       0.00000000       0.00000000      -0.11401204
2
Properties=species:S:1:pos:R:3:forces:R:3 energy=-70.48161468431543 pbc="F F F"
Dy       0.00000000       0.00000000       0.00000000       0.00000000       0.00000000       0.09982979
Dy       0.00000000       0.00000000       5.17696970       0.00000000       0.00000000      -0.09982979
2
Properties=species:S:1:pos:R:3:forces:R:3 energy=-70.4759747298853 pbc="F F F"
Dy       0.00000000       0.00000000       0.00000000       0.00000000       0.00000000       0.09307452
Dy       0.00000000       0.00000000       5.23575758       0.00000000       0.00000000      -0.09307452
2
Properties=species:S:1:pos:R:3:forces:R:3 energy=-70.470551315456 pbc="F F F"
Dy       0.00000000       0.00000000       0.00000000       0.00000000       0.00000000       0.09242270
Dy       0.00000000       0.00000000       5.29454545       0.00000000       0.00000000      -0.09242270
2
Properties=species:S:1:pos:R:3:forces:R:3 energy=-70.46500866688872 pbc="F F F"
Dy       0.00000000       0.00000000       0.00000000       0.00000000       0.00000000       0.09704288
Dy       0.00000000       0.00000000       5.35333333       0.00000000       0.00000000      -0.09704288
2
Properties=species:S:1:pos:R:3:forces:R:3 energy=-70.4590415656366 pbc="F F F"
Dy       0.00000000       0.00000000       0.00000000       0.00000000       0.00000000       0.10681687
Dy       0.00000000       0.00000000       5.41212121       0.00000000       0.00000000      -0.10681687
2
Properties=species:S:1:pos:R:3:forces:R:3 energy=-70.45236012163394 pbc="F F F"
Dy       0.00000000       0.00000000       0.00000000       0.00000000       0.00000000       0.12095169
Dy       0.00000000       0.00000000       5.47090909       0.00000000       0.00000000      -0.12095169
2
Properties=species:S:1:pos:R:3:forces:R:3 energy=-70.44484233267642 pbc="F F F"
Dy       0.00000000       0.00000000       0.00000000       0.00000000       0.00000000       0.13359411
Dy       0.00000000       0.00000000       5.52969697       0.00000000       0.00000000      -0.13359411
2
Properties=species:S:1:pos:R:3:forces:R:3 energy=-70.4369003254529 pbc="F F F"
Dy       0.00000000       0.00000000       0.00000000       0.00000000       0.00000000       0.13392651
Dy       0.00000000       0.00000000       5.58848485       0.00000000       0.00000000      -0.13392651
2
Properties=species:S:1:pos:R:3:forces:R:3 energy=-70.4293887980593 pbc="F F F"
Dy       0.00000000       0.00000000       0.00000000       0.00000000       0.00000000       0.12034658
Dy       0.00000000       0.00000000       5.64727273       0.00000000       0.00000000      -0.12034658
2
Properties=species:S:1:pos:R:3:forces:R:3 energy=-70.42266659338395 pbc="F F F"
Dy       0.00000000       0.00000000       0.00000000       0.00000000       0.00000000       0.11115609
Dy       0.00000000       0.00000000       5.70606061       0.00000000       0.00000000      -0.11115609
2
Properties=species:S:1:pos:R:3:forces:R:3 energy=-70.41588717016782 pbc="F F F"
Dy       0.00000000       0.00000000       0.00000000       0.00000000       0.00000000       0.12178057
Dy       0.00000000       0.00000000       5.76484848       0.00000000       0.00000000      -0.12178057
2
Properties=species:S:1:pos:R:3:forces:R:3 energy=-70.40845585220607 pbc="F F F"
Dy       0.00000000       0.00000000       0.00000000       0.00000000       0.00000000       0.12607673
Dy       0.00000000       0.00000000       5.82363636       0.00000000       0.00000000      -0.12607673
2
Properties=species:S:1:pos:R:3:forces:R:3 energy=-70.40199052730573 pbc="F F F"
Dy       0.00000000       0.00000000       0.00000000       0.00000000       0.00000000       0.08743379
Dy       0.00000000       0.00000000       5.88242424       0.00000000       0.00000000      -0.08743379
2
Properties=species:S:1:pos:R:3:forces:R:3 energy=-70.39852877441685 pbc="F F F"
Dy       0.00000000       0.00000000       0.00000000       0.00000000       0.00000000       0.03137099
Dy       0.00000000       0.00000000       5.94121212       0.00000000       0.00000000      -0.03137099
2
Properties=species:S:1:pos:R:3:forces:R:3 energy=-70.39763631676952 pbc="F F F"
Dy       0.00000000       0.00000000       0.00000000       0.00000000       0.00000000       0.00708159
Dy       0.00000000       0.00000000       6.00000000       0.00000000       0.00000000      -0.00708159
