2
Properties=species:S:1:pos:R:3:forces:R:3 energy=-203013.38735914248 pbc="F F F"
Hf       0.00000000       0.00000000       0.00000000       0.00000000       0.00000000 -201388.62500000
Hf       0.00000000       0.00000000       0.18000000       0.00000000       0.00000000  201388.62500000
2
Properties=species:S:1:pos:R:3:forces:R:3 energy=-206793.05923414248 pbc="F F F"
Hf       0.00000000       0.00000000       0.00000000       0.00000000       0.00000000   46517.91015625
Hf       0.00000000       0.00000000       0.23878788       0.00000000       0.00000000  -46517.91015625
2
Properties=species:S:1:pos:R:3:forces:R:3 energy=-198465.32485914248 pbc="F F F"
Hf       0.00000000       0.00000000       0.00000000       0.00000000       0.00000000  238890.75000000
Hf       0.00000000       0.00000000       0.29757576       0.00000000       0.00000000 -238890.75000000
2
Properties=species:S:1:pos:R:3:forces:R:3 energy=-178152.59048414248 pbc="F F F"
Hf       0.00000000       0.00000000       0.00000000       0.00000000       0.00000000  457023.09375000
Hf       0.00000000       0.00000000       0.35636364       0.00000000       0.00000000 -457023.09375000
2
Properties=species:S:1:pos:R:3:forces:R:3 energy=-144592.82485914248 pbc="F F F"
Hf       0.00000000       0.00000000       0.00000000       0.00000000       0.00000000  679857.81250000
Hf       0.00000000       0.00000000       0.41515152       0.00000000       0.00000000 -679857.81250000
2
Properties=species:S:1:pos:R:3:forces:R:3 energy=-99784.40298414169 pbc="F F F"
Hf       0.00000000       0.00000000       0.00000000       0.00000000       0.00000000  821598.81250000
Hf       0.00000000       0.00000000       0.47393939       0.00000000       0.00000000 -821598.81250000
2
Properties=species:S:1:pos:R:3:forces:R:3 energy=-52502.7311091409 pbc="F F F"
Hf       0.00000000       0.00000000       0.00000000       0.00000000       0.00000000  618888.43750000
Hf       0.00000000       0.00000000       0.53272727       0.00000000       0.00000000 -618888.43750000
2
Properties=species:S:1:pos:R:3:forces:R:3 energy=-20104.295562264317 pbc="F F F"
Hf       0.00000000       0.00000000       0.00000000       0.00000000       0.00000000  457901.12500000
Hf       0.00000000       0.00000000       0.59151515       0.00000000       0.00000000 -457901.12500000
2
Properties=species:S:1:pos:R:3:forces:R:3 energy=-3418.770904059608 pbc="F F F"
Hf       0.00000000       0.00000000       0.00000000       0.00000000       0.00000000  156140.84375000
Hf       0.00000000       0.00000000       0.65030303       0.00000000       0.00000000 -156140.84375000
2
Properties=species:S:1:pos:R:3:forces:R:3 energy=1286.7892766084142 pbc="F F F"
Hf       0.00000000       0.00000000       0.00000000       0.00000000       0.00000000   19749.39648438
Hf       0.00000000       0.00000000       0.70909091       0.00000000       0.00000000  -19749.39648438
2
Properties=species:S:1:pos:R:3:forces:R:3 energy=2458.1856389186455 pbc="F F F"
Hf       0.00000000       0.00000000       0.00000000       0.00000000       0.00000000   12389.17480469
Hf       0.00000000       0.00000000       0.76787879       0.00000000       0.00000000  -12389.17480469
2
Properties=species:S:1:pos:R:3:forces:R:3 energy=889.1416325781169 pbc="F F F"
Hf       0.00000000       0.00000000       0.00000000       0.00000000       0.00000000  -23231.96679688
Hf       0.00000000       0.00000000       0.82666667       0.00000000       0.00000000   23231.96679688
2
Properties=species:S:1:pos:R:3:forces:R:3 energy=13.003944905306774 pbc="F F F"
Hf       0.00000000       0.00000000       0.00000000       0.00000000       0.00000000   -3237.98242188
Hf       0.00000000       0.00000000       0.88545455       0.00000000       0.00000000    3237.98242188
2
Properties=species:S:1:pos:R:3:forces:R:3 energy=-247.31066842034733 pbc="F F F"
Hf       0.00000000       0.00000000       0.00000000       0.00000000       0.00000000     940.85766602
Hf       0.00000000       0.00000000       0.94424242       0.00000000       0.00000000    -940.85766602
2
Properties=species:S:1:pos:R:3:forces:R:3 energy=-236.07467596811586 pbc="F F F"
Hf       0.00000000       0.00000000       0.00000000       0.00000000       0.00000000     269.94680786
Hf       0.00000000       0.00000000       1.00303030       0.00000000       0.00000000    -269.94680786
2
Properties=species:S:1:pos:R:3:forces:R:3 energy=-211.22631778610054 pbc="F F F"
Hf       0.00000000       0.00000000       0.00000000       0.00000000       0.00000000     485.14624023
Hf       0.00000000       0.00000000       1.06181818       0.00000000       0.00000000    -485.14624023
2
Properties=species:S:1:pos:R:3:forces:R:3 energy=-184.49346862857684 pbc="F F F"
Hf       0.00000000       0.00000000       0.00000000       0.00000000       0.00000000     415.56997681
Hf       0.00000000       0.00000000       1.12060606       0.00000000       0.00000000    -415.56997681
2
Properties=species:S:1:pos:R:3:forces:R:3 energy=-162.69087153357714 pbc="F F F"
Hf       0.00000000       0.00000000       0.00000000       0.00000000       0.00000000     323.59246826
Hf       0.00000000       0.00000000       1.17939394       0.00000000       0.00000000    -323.59246826
2
Properties=species:S:1:pos:R:3:forces:R:3 energy=-146.4259636340986 pbc="F F F"
Hf       0.00000000       0.00000000       0.00000000       0.00000000       0.00000000     234.93910217
Hf       0.00000000       0.00000000       1.23818182       0.00000000       0.00000000    -234.93910217
2
Properties=species:S:1:pos:R:3:forces:R:3 energy=-133.94637981387672 pbc="F F F"
Hf       0.00000000       0.00000000       0.00000000       0.00000000       0.00000000     200.22065735
Hf       0.00000000       0.00000000       1.29696970       0.00000000       0.00000000    -200.22065735
2
Properties=species:S:1:pos:R:3:forces:R:3 energy=-122.18667512424656 pbc="F F F"
Hf       0.00000000       0.00000000       0.00000000       0.00000000       0.00000000     200.00559998
Hf       0.00000000       0.00000000       1.35575758       0.00000000       0.00000000    -200.00559998
2
Properties=species:S:1:pos:R:3:forces:R:3 energy=-110.75122730624649 pbc="F F F"
Hf       0.00000000       0.00000000       0.00000000       0.00000000       0.00000000     185.61988831
Hf       0.00000000       0.00000000       1.41454545       0.00000000       0.00000000    -185.61988831
2
Properties=species:S:1:pos:R:3:forces:R:3 energy=-100.70811344411102 pbc="F F F"
Hf       0.00000000       0.00000000       0.00000000       0.00000000       0.00000000     153.56001282
Hf       0.00000000       0.00000000       1.47333333       0.00000000       0.00000000    -153.56001282
2
Properties=species:S:1:pos:R:3:forces:R:3 energy=-92.92676407191279 pbc="F F F"
Hf       0.00000000       0.00000000       0.00000000       0.00000000       0.00000000     109.99712372
Hf       0.00000000       0.00000000       1.53212121       0.00000000       0.00000000    -109.99712372
2
Properties=species:S:1:pos:R:3:forces:R:3 energy=-87.77125389272325 pbc="F F F"
Hf       0.00000000       0.00000000       0.00000000       0.00000000       0.00000000      66.74542999
Hf       0.00000000       0.00000000       1.59090909       0.00000000       0.00000000     -66.74542999
2
Properties=species:S:1:pos:R:3:forces:R:3 energy=-84.83465388330156 pbc="F F F"
Hf       0.00000000       0.00000000       0.00000000       0.00000000       0.00000000      35.22417450
Hf       0.00000000       0.00000000       1.64969697       0.00000000       0.00000000     -35.22417450
2
Properties=species:S:1:pos:R:3:forces:R:3 energy=-83.44013755788538 pbc="F F F"
Hf       0.00000000       0.00000000       0.00000000       0.00000000       0.00000000      13.73483181
Hf       0.00000000       0.00000000       1.70848485       0.00000000       0.00000000     -13.73483181
2
Properties=species:S:1:pos:R:3:forces:R:3 energy=-82.9976627919215 pbc="F F F"
Hf       0.00000000       0.00000000       0.00000000       0.00000000       0.00000000       3.45453477
Hf       0.00000000       0.00000000       1.76727273       0.00000000       0.00000000      -3.45453477
2
Properties=species:S:1:pos:R:3:forces:R:3 energy=-82.81673122860741 pbc="F F F"
Hf       0.00000000       0.00000000       0.00000000       0.00000000       0.00000000       3.96419883
Hf       0.00000000       0.00000000       1.82606061       0.00000000       0.00000000      -3.96419883
2
Properties=species:S:1:pos:R:3:forces:R:3 energy=-82.47036379191431 pbc="F F F"
Hf       0.00000000       0.00000000       0.00000000       0.00000000       0.00000000       7.65344810
Hf       0.00000000       0.00000000       1.88484848       0.00000000       0.00000000      -7.65344810
2
Properties=species:S:1:pos:R:3:forces:R:3 energy=-81.98067808550094 pbc="F F F"
Hf       0.00000000       0.00000000       0.00000000       0.00000000       0.00000000       8.38938141
Hf       0.00000000       0.00000000       1.94363636       0.00000000       0.00000000      -8.38938141
2
Properties=species:S:1:pos:R:3:forces:R:3 energy=-81.52827714146275 pbc="F F F"
Hf       0.00000000       0.00000000       0.00000000       0.00000000       0.00000000       6.88218498
Hf       0.00000000       0.00000000       2.00242424       0.00000000       0.00000000      -6.88218498
2
Properties=species:S:1:pos:R:3:forces:R:3 energy=-81.17218958053633 pbc="F F F"
Hf       0.00000000       0.00000000       0.00000000       0.00000000       0.00000000       5.24706793
Hf       0.00000000       0.00000000       2.06121212       0.00000000       0.00000000      -5.24706793
2
Properties=species:S:1:pos:R:3:forces:R:3 energy=-80.91201869638076 pbc="F F F"
Hf       0.00000000       0.00000000       0.00000000       0.00000000       0.00000000       3.59672403
Hf       0.00000000       0.00000000       2.12000000       0.00000000       0.00000000      -3.59672403
2
Properties=species:S:1:pos:R:3:forces:R:3 energy=-80.74588771654611 pbc="F F F"
Hf       0.00000000       0.00000000       0.00000000       0.00000000       0.00000000       2.13150978
Hf       0.00000000       0.00000000       2.17878788       0.00000000       0.00000000      -2.13150978
2
Properties=species:S:1:pos:R:3:forces:R:3 energy=-80.6484900478701 pbc="F F F"
Hf       0.00000000       0.00000000       0.00000000       0.00000000       0.00000000       1.30424523
Hf       0.00000000       0.00000000       2.23757576       0.00000000       0.00000000      -1.30424523
2
Properties=species:S:1:pos:R:3:forces:R:3 energy=-80.58001570134192 pbc="F F F"
Hf       0.00000000       0.00000000       0.00000000       0.00000000       0.00000000       1.10555506
Hf       0.00000000       0.00000000       2.29636364       0.00000000       0.00000000      -1.10555506
2
Properties=species:S:1:pos:R:3:forces:R:3 energy=-80.51253382313048 pbc="F F F"
Hf       0.00000000       0.00000000       0.00000000       0.00000000       0.00000000       1.21527505
Hf       0.00000000       0.00000000       2.35515152       0.00000000       0.00000000      -1.21527505
2
Properties=species:S:1:pos:R:3:forces:R:3 energy=-80.43619543985565 pbc="F F F"
Hf       0.00000000       0.00000000       0.00000000       0.00000000       0.00000000       1.37902331
Hf       0.00000000       0.00000000       2.41393939       0.00000000       0.00000000      -1.37902331
2
Properties=species:S:1:pos:R:3:forces:R:3 energy=-80.35105489891428 pbc="F F F"
Hf       0.00000000       0.00000000       0.00000000       0.00000000       0.00000000       1.51276660
Hf       0.00000000       0.00000000       2.47272727       0.00000000       0.00000000      -1.51276660
2
Properties=species:S:1:pos:R:3:forces:R:3 energy=-80.25848694693629 pbc="F F F"
Hf       0.00000000       0.00000000       0.00000000       0.00000000       0.00000000       1.63863230
Hf       0.00000000       0.00000000       2.53151515       0.00000000       0.00000000      -1.63863230
2
Properties=species:S:1:pos:R:3:forces:R:3 energy=-80.15782243526925 pbc="F F F"
Hf       0.00000000       0.00000000       0.00000000       0.00000000       0.00000000       1.79206955
Hf       0.00000000       0.00000000       2.59030303       0.00000000       0.00000000      -1.79206955
2
Properties=species:S:1:pos:R:3:forces:R:3 energy=-80.04723361168027 pbc="F F F"
Hf       0.00000000       0.00000000       0.00000000       0.00000000       0.00000000       1.97231483
Hf       0.00000000       0.00000000       2.64909091       0.00000000       0.00000000      -1.97231483
2
Properties=species:S:1:pos:R:3:forces:R:3 energy=-79.92617601920226 pbc="F F F"
Hf       0.00000000       0.00000000       0.00000000       0.00000000       0.00000000       2.13890243
Hf       0.00000000       0.00000000       2.70787879       0.00000000       0.00000000      -2.13890243
2
Properties=species:S:1:pos:R:3:forces:R:3 energy=-79.797136191354 pbc="F F F"
Hf       0.00000000       0.00000000       0.00000000       0.00000000       0.00000000       2.23592710
Hf       0.00000000       0.00000000       2.76666667       0.00000000       0.00000000      -2.23592710
2
Properties=species:S:1:pos:R:3:forces:R:3 energy=-79.66515184371724 pbc="F F F"
Hf       0.00000000       0.00000000       0.00000000       0.00000000       0.00000000       2.24017501
Hf       0.00000000       0.00000000       2.82545455       0.00000000       0.00000000      -2.24017501
2
Properties=species:S:1:pos:R:3:forces:R:3 energy=-79.53486026839872 pbc="F F F"
Hf       0.00000000       0.00000000       0.00000000       0.00000000       0.00000000       2.18840122
Hf       0.00000000       0.00000000       2.88424242       0.00000000       0.00000000      -2.18840122
2
Properties=species:S:1:pos:R:3:forces:R:3 energy=-79.40773769381438 pbc="F F F"
Hf       0.00000000       0.00000000       0.00000000       0.00000000       0.00000000       2.14100814
Hf       0.00000000       0.00000000       2.94303030       0.00000000       0.00000000      -2.14100814
2
Properties=species:S:1:pos:R:3:forces:R:3 energy=-79.2824508878253 pbc="F F F"
Hf       0.00000000       0.00000000       0.00000000       0.00000000       0.00000000       2.12668610
Hf       0.00000000       0.00000000       3.00181818       0.00000000       0.00000000      -2.12668610
2
Properties=species:S:1:pos:R:3:forces:R:3 energy=-79.15738109110994 pbc="F F F"
Hf       0.00000000       0.00000000       0.00000000       0.00000000       0.00000000       2.12726021
Hf       0.00000000       0.00000000       3.06060606       0.00000000       0.00000000      -2.12726021
2
Properties=species:S:1:pos:R:3:forces:R:3 energy=-79.03288230576086 pbc="F F F"
Hf       0.00000000       0.00000000       0.00000000       0.00000000       0.00000000       2.09987044
Hf       0.00000000       0.00000000       3.11939394       0.00000000       0.00000000      -2.09987044
2
Properties=species:S:1:pos:R:3:forces:R:3 energy=-78.91185676023224 pbc="F F F"
Hf       0.00000000       0.00000000       0.00000000       0.00000000       0.00000000       2.00310731
Hf       0.00000000       0.00000000       3.17818182       0.00000000       0.00000000      -2.00310731
2
Properties=species:S:1:pos:R:3:forces:R:3 energy=-78.79925869811561 pbc="F F F"
Hf       0.00000000       0.00000000       0.00000000       0.00000000       0.00000000       1.81049585
Hf       0.00000000       0.00000000       3.23696970       0.00000000       0.00000000      -1.81049585
2
Properties=species:S:1:pos:R:3:forces:R:3 energy=-78.70095910404399 pbc="F F F"
Hf       0.00000000       0.00000000       0.00000000       0.00000000       0.00000000       1.51848066
Hf       0.00000000       0.00000000       3.29575758       0.00000000       0.00000000      -1.51848066
2
Properties=species:S:1:pos:R:3:forces:R:3 energy=-78.62210872933454 pbc="F F F"
Hf       0.00000000       0.00000000       0.00000000       0.00000000       0.00000000       1.15734792
Hf       0.00000000       0.00000000       3.35454545       0.00000000       0.00000000      -1.15734792
2
Properties=species:S:1:pos:R:3:forces:R:3 energy=-78.5648925653335 pbc="F F F"
Hf       0.00000000       0.00000000       0.00000000       0.00000000       0.00000000       0.79661733
Hf       0.00000000       0.00000000       3.41333333       0.00000000       0.00000000      -0.79661733
2
Properties=species:S:1:pos:R:3:forces:R:3 energy=-78.52664099833756 pbc="F F F"
Hf       0.00000000       0.00000000       0.00000000       0.00000000       0.00000000       0.52725571
Hf       0.00000000       0.00000000       3.47212121       0.00000000       0.00000000      -0.52725571
2
Properties=species:S:1:pos:R:3:forces:R:3 energy=-78.4996829942022 pbc="F F F"
Hf       0.00000000       0.00000000       0.00000000       0.00000000       0.00000000       0.41981003
Hf       0.00000000       0.00000000       3.53090909       0.00000000       0.00000000      -0.41981003
2
Properties=species:S:1:pos:R:3:forces:R:3 energy=-78.47382471967275 pbc="F F F"
Hf       0.00000000       0.00000000       0.00000000       0.00000000       0.00000000       0.48654732
Hf       0.00000000       0.00000000       3.58969697       0.00000000       0.00000000      -0.48654732
2
Properties=species:S:1:pos:R:3:forces:R:3 energy=-78.44002069656011 pbc="F F F"
Hf       0.00000000       0.00000000       0.00000000       0.00000000       0.00000000       0.67779642
Hf       0.00000000       0.00000000       3.64848485       0.00000000       0.00000000      -0.67779642
2
Properties=species:S:1:pos:R:3:forces:R:3 energy=-78.39329614208762 pbc="F F F"
Hf       0.00000000       0.00000000       0.00000000       0.00000000       0.00000000       0.91172075
Hf       0.00000000       0.00000000       3.70727273       0.00000000       0.00000000      -0.91172075
2
Properties=species:S:1:pos:R:3:forces:R:3 energy=-78.3334965109557 pbc="F F F"
Hf       0.00000000       0.00000000       0.00000000       0.00000000       0.00000000       1.11218131
Hf       0.00000000       0.00000000       3.76606061       0.00000000       0.00000000      -1.11218131
2
Properties=species:S:1:pos:R:3:forces:R:3 energy=-78.26411798872768 pbc="F F F"
Hf       0.00000000       0.00000000       0.00000000       0.00000000       0.00000000       1.23300731
Hf       0.00000000       0.00000000       3.82484848       0.00000000       0.00000000      -1.23300731
2
Properties=species:S:1:pos:R:3:forces:R:3 energy=-78.19031860364338 pbc="F F F"
Hf       0.00000000       0.00000000       0.00000000       0.00000000       0.00000000       1.26338565
Hf       0.00000000       0.00000000       3.88363636       0.00000000       0.00000000      -1.26338565
2
Properties=species:S:1:pos:R:3:forces:R:3 energy=-78.11703463573707 pbc="F F F"
Hf       0.00000000       0.00000000       0.00000000       0.00000000       0.00000000       1.21953273
Hf       0.00000000       0.00000000       3.94242424       0.00000000       0.00000000      -1.21953273
2
Properties=species:S:1:pos:R:3:forces:R:3 energy=-78.04781366001502 pbc="F F F"
Hf       0.00000000       0.00000000       0.00000000       0.00000000       0.00000000       1.13072658
Hf       0.00000000       0.00000000       4.00121212       0.00000000       0.00000000      -1.13072658
2
Properties=species:S:1:pos:R:3:forces:R:3 energy=-77.98438736530214 pbc="F F F"
Hf       0.00000000       0.00000000       0.00000000       0.00000000       0.00000000       1.02662969
Hf       0.00000000       0.00000000       4.06000000       0.00000000       0.00000000      -1.02662969
2
Properties=species:S:1:pos:R:3:forces:R:3 energy=-77.92695392261909 pbc="F F F"
Hf       0.00000000       0.00000000       0.00000000       0.00000000       0.00000000       0.92966110
Hf       0.00000000       0.00000000       4.11878788       0.00000000       0.00000000      -0.92966110
2
Properties=species:S:1:pos:R:3:forces:R:3 energy=-77.8746891435285 pbc="F F F"
Hf       0.00000000       0.00000000       0.00000000       0.00000000       0.00000000       0.85239911
Hf       0.00000000       0.00000000       4.17757576       0.00000000       0.00000000      -0.85239911
2
Properties=species:S:1:pos:R:3:forces:R:3 energy=-77.82628055517519 pbc="F F F"
Hf       0.00000000       0.00000000       0.00000000       0.00000000       0.00000000       0.79820848
Hf       0.00000000       0.00000000       4.23636364       0.00000000       0.00000000      -0.79820848
2
Properties=species:S:1:pos:R:3:forces:R:3 energy=-77.78045380475011 pbc="F F F"
Hf       0.00000000       0.00000000       0.00000000       0.00000000       0.00000000       0.76323688
Hf       0.00000000       0.00000000       4.29515152       0.00000000       0.00000000      -0.76323688
2
Properties=species:S:1:pos:R:3:forces:R:3 energy=-77.7363312996381 pbc="F F F"
Hf       0.00000000       0.00000000       0.00000000       0.00000000       0.00000000       0.73885930
Hf       0.00000000       0.00000000       4.35393939       0.00000000       0.00000000      -0.73885930
2
Properties=species:S:1:pos:R:3:forces:R:3 energy=-77.69359236609827 pbc="F F F"
Hf       0.00000000       0.00000000       0.00000000       0.00000000       0.00000000       0.71417904
Hf       0.00000000       0.00000000       4.41272727       0.00000000       0.00000000      -0.71417904
2
Properties=species:S:1:pos:R:3:forces:R:3 energy=-77.65258008613004 pbc="F F F"
Hf       0.00000000       0.00000000       0.00000000       0.00000000       0.00000000       0.67858994
Hf       0.00000000       0.00000000       4.47151515       0.00000000       0.00000000      -0.67858994
2
Properties=species:S:1:pos:R:3:forces:R:3 energy=-77.61417923824804 pbc="F F F"
Hf       0.00000000       0.00000000       0.00000000       0.00000000       0.00000000       0.62421644
Hf       0.00000000       0.00000000       4.53030303       0.00000000       0.00000000      -0.62421644
2
Properties=species:S:1:pos:R:3:forces:R:3 energy=-77.57961792688857 pbc="F F F"
Hf       0.00000000       0.00000000       0.00000000       0.00000000       0.00000000       0.54794770
Hf       0.00000000       0.00000000       4.58909091       0.00000000       0.00000000      -0.54794770
2
Properties=species:S:1:pos:R:3:forces:R:3 energy=-77.5501318795469 pbc="F F F"
Hf       0.00000000       0.00000000       0.00000000       0.00000000       0.00000000       0.45237088
Hf       0.00000000       0.00000000       4.64787879       0.00000000       0.00000000      -0.45237088
2
Properties=species:S:1:pos:R:3:forces:R:3 energy=-77.52665929158668 pbc="F F F"
Hf       0.00000000       0.00000000       0.00000000       0.00000000       0.00000000       0.34521973
Hf       0.00000000       0.00000000       4.70666667       0.00000000       0.00000000      -0.34521973
2
Properties=species:S:1:pos:R:3:forces:R:3 energy=-77.50955852280337 pbc="F F F"
Hf       0.00000000       0.00000000       0.00000000       0.00000000       0.00000000       0.23737170
Hf       0.00000000       0.00000000       4.76545455       0.00000000       0.00000000      -0.23737170
2
Properties=species:S:1:pos:R:3:forces:R:3 energy=-77.4985470860265 pbc="F F F"
Hf       0.00000000       0.00000000       0.00000000       0.00000000       0.00000000       0.13989118
Hf       0.00000000       0.00000000       4.82424242       0.00000000       0.00000000      -0.13989118
2
Properties=species:S:1:pos:R:3:forces:R:3 energy=-77.49273977191766 pbc="F F F"
Hf       0.00000000       0.00000000       0.00000000       0.00000000       0.00000000       0.06136467
Hf       0.00000000       0.00000000       4.88303030       0.00000000       0.00000000      -0.06136467
2
Properties=species:S:1:pos:R:3:forces:R:3 energy=-77.49086992041879 pbc="F F F"
Hf       0.00000000       0.00000000       0.00000000       0.00000000       0.00000000       0.00620938
Hf       0.00000000       0.00000000       4.94181818       0.00000000       0.00000000      -0.00620938
2
Properties=species:S:1:pos:R:3:forces:R:3 energy=-77.49154118760393 pbc="F F F"
Hf       0.00000000       0.00000000       0.00000000       0.00000000       0.00000000      -0.02545098
Hf       0.00000000       0.00000000       5.00060606       0.00000000       0.00000000       0.02545098
2
Properties=species:S:1:pos:R:3:forces:R:3 energy=-77.49346406007746 pbc="F F F"
Hf       0.00000000       0.00000000       0.00000000       0.00000000       0.00000000      -0.03681674
Hf       0.00000000       0.00000000       5.05939394       0.00000000       0.00000000       0.03681674
2
Properties=species:S:1:pos:R:3:forces:R:3 energy=-77.49557029905996 pbc="F F F"
Hf       0.00000000       0.00000000       0.00000000       0.00000000       0.00000000      -0.03283942
Hf       0.00000000       0.00000000       5.11818182       0.00000000       0.00000000       0.03283942
2
Properties=species:S:1:pos:R:3:forces:R:3 energy=-77.49712738447396 pbc="F F F"
Hf       0.00000000       0.00000000       0.00000000       0.00000000       0.00000000      -0.01887592
Hf       0.00000000       0.00000000       5.17696970       0.00000000       0.00000000       0.01887592
2
Properties=species:S:1:pos:R:3:forces:R:3 energy=-77.49769273540886 pbc="F F F"
Hf       0.00000000       0.00000000       0.00000000       0.00000000       0.00000000      -0.00005300
Hf       0.00000000       0.00000000       5.23575758       0.00000000       0.00000000       0.00005300
2
Properties=species:S:1:pos:R:3:forces:R:3 energy=-77.497136610976 pbc="F F F"
Hf       0.00000000       0.00000000       0.00000000       0.00000000       0.00000000       0.01881223
Hf       0.00000000       0.00000000       5.29454545       0.00000000       0.00000000      -0.01881223
2
Properties=species:S:1:pos:R:3:forces:R:3 energy=-77.49555055915799 pbc="F F F"
Hf       0.00000000       0.00000000       0.00000000       0.00000000       0.00000000       0.03435086
Hf       0.00000000       0.00000000       5.35333333       0.00000000       0.00000000      -0.03435086
2
Properties=species:S:1:pos:R:3:forces:R:3 energy=-77.49312533224114 pbc="F F F"
Hf       0.00000000       0.00000000       0.00000000       0.00000000       0.00000000       0.04845219
Hf       0.00000000       0.00000000       5.41212121       0.00000000       0.00000000      -0.04845219
2
Properties=species:S:1:pos:R:3:forces:R:3 energy=-77.48974655583174 pbc="F F F"
Hf       0.00000000       0.00000000       0.00000000       0.00000000       0.00000000       0.06760495
Hf       0.00000000       0.00000000       5.47090909       0.00000000       0.00000000      -0.06760495
2
Properties=species:S:1:pos:R:3:forces:R:3 energy=-77.48516255652885 pbc="F F F"
Hf       0.00000000       0.00000000       0.00000000       0.00000000       0.00000000       0.08686345
Hf       0.00000000       0.00000000       5.52969697       0.00000000       0.00000000      -0.08686345
2
Properties=species:S:1:pos:R:3:forces:R:3 energy=-77.47985412715602 pbc="F F F"
Hf       0.00000000       0.00000000       0.00000000       0.00000000       0.00000000       0.09061915
Hf       0.00000000       0.00000000       5.58848485       0.00000000       0.00000000      -0.09061915
2
Properties=species:S:1:pos:R:3:forces:R:3 energy=-77.4747751225955 pbc="F F F"
Hf       0.00000000       0.00000000       0.00000000       0.00000000       0.00000000       0.08131181
Hf       0.00000000       0.00000000       5.64727273       0.00000000       0.00000000      -0.08131181
2
Properties=species:S:1:pos:R:3:forces:R:3 energy=-77.4702080506086 pbc="F F F"
Hf       0.00000000       0.00000000       0.00000000       0.00000000       0.00000000       0.07606680
Hf       0.00000000       0.00000000       5.70606061       0.00000000       0.00000000      -0.07606680
2
Properties=species:S:1:pos:R:3:forces:R:3 energy=-77.46564200627489 pbc="F F F"
Hf       0.00000000       0.00000000       0.00000000       0.00000000       0.00000000       0.07932370
Hf       0.00000000       0.00000000       5.76484848       0.00000000       0.00000000      -0.07932370
2
Properties=species:S:1:pos:R:3:forces:R:3 energy=-77.46111544780553 pbc="F F F"
Hf       0.00000000       0.00000000       0.00000000       0.00000000       0.00000000       0.07109281
Hf       0.00000000       0.00000000       5.82363636       0.00000000       0.00000000      -0.07109281
2
Properties=species:S:1:pos:R:3:forces:R:3 energy=-77.4576892039571 pbc="F F F"
Hf       0.00000000       0.00000000       0.00000000       0.00000000       0.00000000       0.04370971
Hf       0.00000000       0.00000000       5.88242424       0.00000000       0.00000000      -0.04370971
2
Properties=species:S:1:pos:R:3:forces:R:3 energy=-77.45598927076355 pbc="F F F"
Hf       0.00000000       0.00000000       0.00000000       0.00000000       0.00000000       0.01556441
Hf       0.00000000       0.00000000       5.94121212       0.00000000       0.00000000      -0.01556441
2
Properties=species:S:1:pos:R:3:forces:R:3 energy=-77.4555125334659 pbc="F F F"
Hf       0.00000000       0.00000000       0.00000000       0.00000000       0.00000000       0.00438702
Hf       0.00000000       0.00000000       6.00000000       0.00000000       0.00000000      -0.00438702
