2
Properties=species:S:1:pos:R:3:forces:R:3 energy=16111.823847285521 pbc="F F F"
Hg       0.00000000       0.00000000       0.00000000       0.00000000       0.00000000 -290869.37500000
Hg       0.00000000       0.00000000       0.18000000       0.00000000       0.00000000  290869.37500000
2
Properties=species:S:1:pos:R:3:forces:R:3 energy=6002.940546504272 pbc="F F F"
Hg       0.00000000       0.00000000       0.00000000       0.00000000       0.00000000  -94702.31250000
Hg       0.00000000       0.00000000       0.23878788       0.00000000       0.00000000   94702.31250000
2
Properties=species:S:1:pos:R:3:forces:R:3 energy=2483.604364863647 pbc="F F F"
Hg       0.00000000       0.00000000       0.00000000       0.00000000       0.00000000  -35403.86718750
Hg       0.00000000       0.00000000       0.29757576       0.00000000       0.00000000   35403.86718750
2
Properties=species:S:1:pos:R:3:forces:R:3 energy=1145.5306343956888 pbc="F F F"
Hg       0.00000000       0.00000000       0.00000000       0.00000000       0.00000000  -13381.42187500
Hg       0.00000000       0.00000000       0.35636364       0.00000000       0.00000000   13381.42187500
2
Properties=species:S:1:pos:R:3:forces:R:3 energy=673.867609494137 pbc="F F F"
Hg       0.00000000       0.00000000       0.00000000       0.00000000       0.00000000   -3891.15722656
Hg       0.00000000       0.00000000       0.41515152       0.00000000       0.00000000    3891.15722656
2
Properties=species:S:1:pos:R:3:forces:R:3 energy=589.138117307429 pbc="F F F"
Hg       0.00000000       0.00000000       0.00000000       0.00000000       0.00000000     406.18548584
Hg       0.00000000       0.00000000       0.47393939       0.00000000       0.00000000    -406.18548584
2
Properties=species:S:1:pos:R:3:forces:R:3 energy=636.861078735586 pbc="F F F"
Hg       0.00000000       0.00000000       0.00000000       0.00000000       0.00000000     966.33978271
Hg       0.00000000       0.00000000       0.53272727       0.00000000       0.00000000    -966.33978271
2
Properties=species:S:1:pos:R:3:forces:R:3 energy=618.3699898715664 pbc="F F F"
Hg       0.00000000       0.00000000       0.00000000       0.00000000       0.00000000    -911.18939209
Hg       0.00000000       0.00000000       0.59151515       0.00000000       0.00000000     911.18939209
2
Properties=species:S:1:pos:R:3:forces:R:3 energy=551.6696114599333 pbc="F F F"
Hg       0.00000000       0.00000000       0.00000000       0.00000000       0.00000000   -1321.35693359
Hg       0.00000000       0.00000000       0.65030303       0.00000000       0.00000000    1321.35693359
2
Properties=species:S:1:pos:R:3:forces:R:3 energy=474.210443988968 pbc="F F F"
Hg       0.00000000       0.00000000       0.00000000       0.00000000       0.00000000   -1416.26733398
Hg       0.00000000       0.00000000       0.70909091       0.00000000       0.00000000    1416.26733398
2
Properties=species:S:1:pos:R:3:forces:R:3 energy=405.4033150969732 pbc="F F F"
Hg       0.00000000       0.00000000       0.00000000       0.00000000       0.00000000    -800.70904541
Hg       0.00000000       0.00000000       0.76787879       0.00000000       0.00000000     800.70904541
2
Properties=species:S:1:pos:R:3:forces:R:3 energy=362.53844695429353 pbc="F F F"
Hg       0.00000000       0.00000000       0.00000000       0.00000000       0.00000000    -787.94152832
Hg       0.00000000       0.00000000       0.82666667       0.00000000       0.00000000     787.94152832
2
Properties=species:S:1:pos:R:3:forces:R:3 energy=311.0164132937735 pbc="F F F"
Hg       0.00000000       0.00000000       0.00000000       0.00000000       0.00000000    -934.32983398
Hg       0.00000000       0.00000000       0.88545455       0.00000000       0.00000000     934.32983398
2
Properties=species:S:1:pos:R:3:forces:R:3 energy=253.6249796191349 pbc="F F F"
Hg       0.00000000       0.00000000       0.00000000       0.00000000       0.00000000   -1001.06835938
Hg       0.00000000       0.00000000       0.94424242       0.00000000       0.00000000    1001.06835938
2
Properties=species:S:1:pos:R:3:forces:R:3 energy=195.30906170898962 pbc="F F F"
Hg       0.00000000       0.00000000       0.00000000       0.00000000       0.00000000    -980.83569336
Hg       0.00000000       0.00000000       1.00303030       0.00000000       0.00000000     980.83569336
2
Properties=species:S:1:pos:R:3:forces:R:3 energy=139.05619313504945 pbc="F F F"
Hg       0.00000000       0.00000000       0.00000000       0.00000000       0.00000000    -919.27960205
Hg       0.00000000       0.00000000       1.06181818       0.00000000       0.00000000     919.27960205
2
Properties=species:S:1:pos:R:3:forces:R:3 energy=89.06011474758469 pbc="F F F"
Hg       0.00000000       0.00000000       0.00000000       0.00000000       0.00000000    -768.99664307
Hg       0.00000000       0.00000000       1.12060606       0.00000000       0.00000000     768.99664307
2
Properties=species:S:1:pos:R:3:forces:R:3 energy=49.26475050233432 pbc="F F F"
Hg       0.00000000       0.00000000       0.00000000       0.00000000       0.00000000    -587.55438232
Hg       0.00000000       0.00000000       1.17939394       0.00000000       0.00000000     587.55438232
2
Properties=species:S:1:pos:R:3:forces:R:3 energy=18.602465825490324 pbc="F F F"
Hg       0.00000000       0.00000000       0.00000000       0.00000000       0.00000000    -464.10186768
Hg       0.00000000       0.00000000       1.23818182       0.00000000       0.00000000     464.10186768
2
Properties=species:S:1:pos:R:3:forces:R:3 energy=-5.422550739014007 pbc="F F F"
Hg       0.00000000       0.00000000       0.00000000       0.00000000       0.00000000    -355.19989014
Hg       0.00000000       0.00000000       1.29696970       0.00000000       0.00000000     355.19989014
2
Properties=species:S:1:pos:R:3:forces:R:3 energy=-23.489551803019094 pbc="F F F"
Hg       0.00000000       0.00000000       0.00000000       0.00000000       0.00000000    -264.39379883
Hg       0.00000000       0.00000000       1.35575758       0.00000000       0.00000000     264.39379883
2
Properties=species:S:1:pos:R:3:forces:R:3 energy=-37.25545874294827 pbc="F F F"
Hg       0.00000000       0.00000000       0.00000000       0.00000000       0.00000000    -209.60733032
Hg       0.00000000       0.00000000       1.41454545       0.00000000       0.00000000     209.60733032
2
Properties=species:S:1:pos:R:3:forces:R:3 energy=-48.54257150261368 pbc="F F F"
Hg       0.00000000       0.00000000       0.00000000       0.00000000       0.00000000    -175.88507080
Hg       0.00000000       0.00000000       1.47333333       0.00000000       0.00000000     175.88507080
2
Properties=species:S:1:pos:R:3:forces:R:3 energy=-57.99233141297496 pbc="F F F"
Hg       0.00000000       0.00000000       0.00000000       0.00000000       0.00000000    -145.71325684
Hg       0.00000000       0.00000000       1.53212121       0.00000000       0.00000000     145.71325684
2
Properties=species:S:1:pos:R:3:forces:R:3 energy=-65.71641753375755 pbc="F F F"
Hg       0.00000000       0.00000000       0.00000000       0.00000000       0.00000000    -117.78846741
Hg       0.00000000       0.00000000       1.59090909       0.00000000       0.00000000     117.78846741
2
Properties=species:S:1:pos:R:3:forces:R:3 energy=-71.95402662092236 pbc="F F F"
Hg       0.00000000       0.00000000       0.00000000       0.00000000       0.00000000     -95.42699432
Hg       0.00000000       0.00000000       1.64969697       0.00000000       0.00000000      95.42699432
2
Properties=species:S:1:pos:R:3:forces:R:3 energy=-77.03727764429156 pbc="F F F"
Hg       0.00000000       0.00000000       0.00000000       0.00000000       0.00000000     -78.17261505
Hg       0.00000000       0.00000000       1.70848485       0.00000000       0.00000000      78.17261505
2
Properties=species:S:1:pos:R:3:forces:R:3 energy=-81.20372703287428 pbc="F F F"
Hg       0.00000000       0.00000000       0.00000000       0.00000000       0.00000000     -63.95240021
Hg       0.00000000       0.00000000       1.76727273       0.00000000       0.00000000      63.95240021
2
Properties=species:S:1:pos:R:3:forces:R:3 energy=-84.59518232064808 pbc="F F F"
Hg       0.00000000       0.00000000       0.00000000       0.00000000       0.00000000     -51.73435211
Hg       0.00000000       0.00000000       1.82606061       0.00000000       0.00000000      51.73435211
2
Properties=species:S:1:pos:R:3:forces:R:3 energy=-87.32301737730195 pbc="F F F"
Hg       0.00000000       0.00000000       0.00000000       0.00000000       0.00000000     -41.38782883
Hg       0.00000000       0.00000000       1.88484848       0.00000000       0.00000000      41.38782883
2
Properties=species:S:1:pos:R:3:forces:R:3 energy=-89.49961315260296 pbc="F F F"
Hg       0.00000000       0.00000000       0.00000000       0.00000000       0.00000000     -32.98411942
Hg       0.00000000       0.00000000       1.94363636       0.00000000       0.00000000      32.98411942
2
Properties=species:S:1:pos:R:3:forces:R:3 energy=-91.23708357226137 pbc="F F F"
Hg       0.00000000       0.00000000       0.00000000       0.00000000       0.00000000     -26.40522766
Hg       0.00000000       0.00000000       2.00242424       0.00000000       0.00000000      26.40522766
2
Properties=species:S:1:pos:R:3:forces:R:3 energy=-92.63292463731378 pbc="F F F"
Hg       0.00000000       0.00000000       0.00000000       0.00000000       0.00000000     -21.28907585
Hg       0.00000000       0.00000000       2.06121212       0.00000000       0.00000000      21.28907585
2
Properties=species:S:1:pos:R:3:forces:R:3 energy=-93.76040140760468 pbc="F F F"
Hg       0.00000000       0.00000000       0.00000000       0.00000000       0.00000000     -17.21001053
Hg       0.00000000       0.00000000       2.12000000       0.00000000       0.00000000      17.21001053
2
Properties=species:S:1:pos:R:3:forces:R:3 energy=-94.6704324574839 pbc="F F F"
Hg       0.00000000       0.00000000       0.00000000       0.00000000       0.00000000     -13.85182381
Hg       0.00000000       0.00000000       2.17878788       0.00000000       0.00000000      13.85182381
2
Properties=species:S:1:pos:R:3:forces:R:3 energy=-95.39970757693044 pbc="F F F"
Hg       0.00000000       0.00000000       0.00000000       0.00000000       0.00000000     -11.04116631
Hg       0.00000000       0.00000000       2.23757576       0.00000000       0.00000000      11.04116631
2
Properties=species:S:1:pos:R:3:forces:R:3 energy=-95.97766868180376 pbc="F F F"
Hg       0.00000000       0.00000000       0.00000000       0.00000000       0.00000000      -8.69432068
Hg       0.00000000       0.00000000       2.29636364       0.00000000       0.00000000       8.69432068
2
Properties=species:S:1:pos:R:3:forces:R:3 energy=-96.43004988775236 pbc="F F F"
Hg       0.00000000       0.00000000       0.00000000       0.00000000       0.00000000      -6.76104832
Hg       0.00000000       0.00000000       2.35515152       0.00000000       0.00000000       6.76104832
2
Properties=species:S:1:pos:R:3:forces:R:3 energy=-96.77981597009058 pbc="F F F"
Hg       0.00000000       0.00000000       0.00000000       0.00000000       0.00000000      -5.19516945
Hg       0.00000000       0.00000000       2.41393939       0.00000000       0.00000000       5.19516945
2
Properties=species:S:1:pos:R:3:forces:R:3 energy=-97.04709376973189 pbc="F F F"
Hg       0.00000000       0.00000000       0.00000000       0.00000000       0.00000000      -3.94635010
Hg       0.00000000       0.00000000       2.47272727       0.00000000       0.00000000       3.94635010
2
Properties=species:S:1:pos:R:3:forces:R:3 energy=-97.24898916770763 pbc="F F F"
Hg       0.00000000       0.00000000       0.00000000       0.00000000       0.00000000      -2.96206188
Hg       0.00000000       0.00000000       2.53151515       0.00000000       0.00000000       2.96206188
2
Properties=species:S:1:pos:R:3:forces:R:3 energy=-97.39956430944115 pbc="F F F"
Hg       0.00000000       0.00000000       0.00000000       0.00000000       0.00000000      -2.19255614
Hg       0.00000000       0.00000000       2.59030303       0.00000000       0.00000000       2.19255614
2
Properties=species:S:1:pos:R:3:forces:R:3 energy=-97.51014294050401 pbc="F F F"
Hg       0.00000000       0.00000000       0.00000000       0.00000000       0.00000000      -1.59472978
Hg       0.00000000       0.00000000       2.64909091       0.00000000       0.00000000       1.59472978
2
Properties=species:S:1:pos:R:3:forces:R:3 energy=-97.58973778971811 pbc="F F F"
Hg       0.00000000       0.00000000       0.00000000       0.00000000       0.00000000      -1.13340580
Hg       0.00000000       0.00000000       2.70787879       0.00000000       0.00000000       1.13340580
2
Properties=species:S:1:pos:R:3:forces:R:3 energy=-97.64552377614223 pbc="F F F"
Hg       0.00000000       0.00000000       0.00000000       0.00000000       0.00000000      -0.78064746
Hg       0.00000000       0.00000000       2.76666667       0.00000000       0.00000000       0.78064746
2
Properties=species:S:1:pos:R:3:forces:R:3 energy=-97.68321951602046 pbc="F F F"
Hg       0.00000000       0.00000000       0.00000000       0.00000000       0.00000000      -0.51466292
Hg       0.00000000       0.00000000       2.82545455       0.00000000       0.00000000       0.51466292
2
Properties=species:S:1:pos:R:3:forces:R:3 energy=-97.70741512777765 pbc="F F F"
Hg       0.00000000       0.00000000       0.00000000       0.00000000       0.00000000      -0.31896013
Hg       0.00000000       0.00000000       2.88424242       0.00000000       0.00000000       0.31896013
2
Properties=species:S:1:pos:R:3:forces:R:3 energy=-97.72185340375174 pbc="F F F"
Hg       0.00000000       0.00000000       0.00000000       0.00000000       0.00000000      -0.18132040
Hg       0.00000000       0.00000000       2.94303030       0.00000000       0.00000000       0.18132040
2
Properties=species:S:1:pos:R:3:forces:R:3 energy=-97.7296789129069 pbc="F F F"
Hg       0.00000000       0.00000000       0.00000000       0.00000000       0.00000000      -0.09227026
Hg       0.00000000       0.00000000       3.00181818       0.00000000       0.00000000       0.09227026
2
Properties=species:S:1:pos:R:3:forces:R:3 energy=-97.73349461767003 pbc="F F F"
Hg       0.00000000       0.00000000       0.00000000       0.00000000       0.00000000      -0.04337212
Hg       0.00000000       0.00000000       3.06060606       0.00000000       0.00000000       0.04337212
2
Properties=species:S:1:pos:R:3:forces:R:3 energy=-97.7353965790645 pbc="F F F"
Hg       0.00000000       0.00000000       0.00000000       0.00000000       0.00000000      -0.02585536
Hg       0.00000000       0.00000000       3.11939394       0.00000000       0.00000000       0.02585536
2
Properties=species:S:1:pos:R:3:forces:R:3 energy=-97.73696278045195 pbc="F F F"
Hg       0.00000000       0.00000000       0.00000000       0.00000000       0.00000000      -0.03011687
Hg       0.00000000       0.00000000       3.17818182       0.00000000       0.00000000       0.03011687
2
Properties=species:S:1:pos:R:3:forces:R:3 energy=-97.73916734370714 pbc="F F F"
Hg       0.00000000       0.00000000       0.00000000       0.00000000       0.00000000      -0.04621530
Hg       0.00000000       0.00000000       3.23696970       0.00000000       0.00000000       0.04621530
2
Properties=species:S:1:pos:R:3:forces:R:3 energy=-97.7424441567498 pbc="F F F"
Hg       0.00000000       0.00000000       0.00000000       0.00000000       0.00000000      -0.06503981
Hg       0.00000000       0.00000000       3.29575758       0.00000000       0.00000000       0.06503981
2
Properties=species:S:1:pos:R:3:forces:R:3 energy=-97.7467282133769 pbc="F F F"
Hg       0.00000000       0.00000000       0.00000000       0.00000000       0.00000000      -0.07965703
Hg       0.00000000       0.00000000       3.35454545       0.00000000       0.00000000       0.07965703
2
Properties=species:S:1:pos:R:3:forces:R:3 energy=-97.75165054804782 pbc="F F F"
Hg       0.00000000       0.00000000       0.00000000       0.00000000       0.00000000      -0.08629397
Hg       0.00000000       0.00000000       3.41333333       0.00000000       0.00000000       0.08629397
2
Properties=species:S:1:pos:R:3:forces:R:3 energy=-97.75670800354317 pbc="F F F"
Hg       0.00000000       0.00000000       0.00000000       0.00000000       0.00000000      -0.08439065
Hg       0.00000000       0.00000000       3.47212121       0.00000000       0.00000000       0.08439065
2
Properties=species:S:1:pos:R:3:forces:R:3 energy=-97.76143888522888 pbc="F F F"
Hg       0.00000000       0.00000000       0.00000000       0.00000000       0.00000000      -0.07575381
Hg       0.00000000       0.00000000       3.53090909       0.00000000       0.00000000       0.07575381
2
Properties=species:S:1:pos:R:3:forces:R:3 energy=-97.76553934939291 pbc="F F F"
Hg       0.00000000       0.00000000       0.00000000       0.00000000       0.00000000      -0.06332496
Hg       0.00000000       0.00000000       3.58969697       0.00000000       0.00000000       0.06332496
2
Properties=species:S:1:pos:R:3:forces:R:3 energy=-97.76887237104464 pbc="F F F"
Hg       0.00000000       0.00000000       0.00000000       0.00000000       0.00000000      -0.05007324
Hg       0.00000000       0.00000000       3.64848485       0.00000000       0.00000000       0.05007324
2
Properties=species:S:1:pos:R:3:forces:R:3 energy=-97.7714607876825 pbc="F F F"
Hg       0.00000000       0.00000000       0.00000000       0.00000000       0.00000000      -0.03828857
Hg       0.00000000       0.00000000       3.70727273       0.00000000       0.00000000       0.03828857
2
Properties=species:S:1:pos:R:3:forces:R:3 energy=-97.7734264930129 pbc="F F F"
Hg       0.00000000       0.00000000       0.00000000       0.00000000       0.00000000      -0.02929360
Hg       0.00000000       0.00000000       3.76606061       0.00000000       0.00000000       0.02929360
2
Properties=species:S:1:pos:R:3:forces:R:3 energy=-97.77496764459327 pbc="F F F"
Hg       0.00000000       0.00000000       0.00000000       0.00000000       0.00000000      -0.02349273
Hg       0.00000000       0.00000000       3.82484848       0.00000000       0.00000000       0.02349273
2
Properties=species:S:1:pos:R:3:forces:R:3 energy=-97.77625186814771 pbc="F F F"
Hg       0.00000000       0.00000000       0.00000000       0.00000000       0.00000000      -0.02058077
Hg       0.00000000       0.00000000       3.88363636       0.00000000       0.00000000       0.02058077
2
Properties=species:S:1:pos:R:3:forces:R:3 energy=-97.77743154169859 pbc="F F F"
Hg       0.00000000       0.00000000       0.00000000       0.00000000       0.00000000      -0.01983701
Hg       0.00000000       0.00000000       3.94242424       0.00000000       0.00000000       0.01983701
2
Properties=species:S:1:pos:R:3:forces:R:3 energy=-97.7786056398825 pbc="F F F"
Hg       0.00000000       0.00000000       0.00000000       0.00000000       0.00000000      -0.02038424
Hg       0.00000000       0.00000000       4.00121212       0.00000000       0.00000000       0.02038424
2
Properties=species:S:1:pos:R:3:forces:R:3 energy=-97.77983500620245 pbc="F F F"
Hg       0.00000000       0.00000000       0.00000000       0.00000000       0.00000000      -0.02139712
Hg       0.00000000       0.00000000       4.06000000       0.00000000       0.00000000       0.02139712
2
Properties=species:S:1:pos:R:3:forces:R:3 energy=-97.78111946484428 pbc="F F F"
Hg       0.00000000       0.00000000       0.00000000       0.00000000       0.00000000      -0.02224267
Hg       0.00000000       0.00000000       4.11878788       0.00000000       0.00000000       0.02224267
2
Properties=species:S:1:pos:R:3:forces:R:3 energy=-97.78243597477702 pbc="F F F"
Hg       0.00000000       0.00000000       0.00000000       0.00000000       0.00000000      -0.02253396
Hg       0.00000000       0.00000000       4.17757576       0.00000000       0.00000000       0.02253396
2
Properties=species:S:1:pos:R:3:forces:R:3 energy=-97.78375388537397 pbc="F F F"
Hg       0.00000000       0.00000000       0.00000000       0.00000000       0.00000000      -0.02213449
Hg       0.00000000       0.00000000       4.23636364       0.00000000       0.00000000       0.02213449
2
Properties=species:S:1:pos:R:3:forces:R:3 energy=-97.78502730939421 pbc="F F F"
Hg       0.00000000       0.00000000       0.00000000       0.00000000       0.00000000      -0.02111235
Hg       0.00000000       0.00000000       4.29515152       0.00000000       0.00000000       0.02111235
2
Properties=species:S:1:pos:R:3:forces:R:3 energy=-97.78622566748705 pbc="F F F"
Hg       0.00000000       0.00000000       0.00000000       0.00000000       0.00000000      -0.01967617
Hg       0.00000000       0.00000000       4.35393939       0.00000000       0.00000000       0.01967617
2
Properties=species:S:1:pos:R:3:forces:R:3 energy=-97.7873412835326 pbc="F F F"
Hg       0.00000000       0.00000000       0.00000000       0.00000000       0.00000000      -0.01811236
Hg       0.00000000       0.00000000       4.41272727       0.00000000       0.00000000       0.01811236
2
Properties=species:S:1:pos:R:3:forces:R:3 energy=-97.7883588916142 pbc="F F F"
Hg       0.00000000       0.00000000       0.00000000       0.00000000       0.00000000      -0.01674477
Hg       0.00000000       0.00000000       4.47151515       0.00000000       0.00000000       0.01674477
2
Properties=species:S:1:pos:R:3:forces:R:3 energy=-97.78931668780572 pbc="F F F"
Hg       0.00000000       0.00000000       0.00000000       0.00000000       0.00000000      -0.01590438
Hg       0.00000000       0.00000000       4.53030303       0.00000000       0.00000000       0.01590438
2
Properties=species:S:1:pos:R:3:forces:R:3 energy=-97.79024526254524 pbc="F F F"
Hg       0.00000000       0.00000000       0.00000000       0.00000000       0.00000000      -0.01589949
Hg       0.00000000       0.00000000       4.58909091       0.00000000       0.00000000       0.01589949
2
Properties=species:S:1:pos:R:3:forces:R:3 energy=-97.79120577928578 pbc="F F F"
Hg       0.00000000       0.00000000       0.00000000       0.00000000       0.00000000      -0.01697153
Hg       0.00000000       0.00000000       4.64787879       0.00000000       0.00000000       0.01697153
2
Properties=species:S:1:pos:R:3:forces:R:3 energy=-97.79226707601639 pbc="F F F"
Hg       0.00000000       0.00000000       0.00000000       0.00000000       0.00000000      -0.01923151
Hg       0.00000000       0.00000000       4.70666667       0.00000000       0.00000000       0.01923151
2
Properties=species:S:1:pos:R:3:forces:R:3 energy=-97.79349041122477 pbc="F F F"
Hg       0.00000000       0.00000000       0.00000000       0.00000000       0.00000000      -0.02260623
Hg       0.00000000       0.00000000       4.76545455       0.00000000       0.00000000       0.02260623
2
Properties=species:S:1:pos:R:3:forces:R:3 energy=-97.79494471635073 pbc="F F F"
Hg       0.00000000       0.00000000       0.00000000       0.00000000       0.00000000      -0.02681780
Hg       0.00000000       0.00000000       4.82424242       0.00000000       0.00000000       0.02681780
2
Properties=species:S:1:pos:R:3:forces:R:3 energy=-97.79665320190375 pbc="F F F"
Hg       0.00000000       0.00000000       0.00000000       0.00000000       0.00000000      -0.03143404
Hg       0.00000000       0.00000000       4.88303030       0.00000000       0.00000000       0.03143404
2
Properties=species:S:1:pos:R:3:forces:R:3 energy=-97.79863911957504 pbc="F F F"
Hg       0.00000000       0.00000000       0.00000000       0.00000000       0.00000000      -0.03598461
Hg       0.00000000       0.00000000       4.94181818       0.00000000       0.00000000       0.03598461
2
Properties=species:S:1:pos:R:3:forces:R:3 energy=-97.80087235330794 pbc="F F F"
Hg       0.00000000       0.00000000       0.00000000       0.00000000       0.00000000      -0.04008829
Hg       0.00000000       0.00000000       5.00060606       0.00000000       0.00000000       0.04008829
2
Properties=species:S:1:pos:R:3:forces:R:3 energy=-97.80333809889582 pbc="F F F"
Hg       0.00000000       0.00000000       0.00000000       0.00000000       0.00000000      -0.04352900
Hg       0.00000000       0.00000000       5.05939394       0.00000000       0.00000000       0.04352900
2
Properties=species:S:1:pos:R:3:forces:R:3 energy=-97.8059758050673 pbc="F F F"
Hg       0.00000000       0.00000000       0.00000000       0.00000000       0.00000000      -0.04618883
Hg       0.00000000       0.00000000       5.11818182       0.00000000       0.00000000       0.04618883
2
Properties=species:S:1:pos:R:3:forces:R:3 energy=-97.80874783724495 pbc="F F F"
Hg       0.00000000       0.00000000       0.00000000       0.00000000       0.00000000      -0.04787085
Hg       0.00000000       0.00000000       5.17696970       0.00000000       0.00000000       0.04787085
2
Properties=species:S:1:pos:R:3:forces:R:3 energy=-97.81157844476495 pbc="F F F"
Hg       0.00000000       0.00000000       0.00000000       0.00000000       0.00000000      -0.04813746
Hg       0.00000000       0.00000000       5.23575758       0.00000000       0.00000000       0.04813746
2
Properties=species:S:1:pos:R:3:forces:R:3 energy=-97.814369004619 pbc="F F F"
Hg       0.00000000       0.00000000       0.00000000       0.00000000       0.00000000      -0.04644034
Hg       0.00000000       0.00000000       5.29454545       0.00000000       0.00000000       0.04644034
2
Properties=species:S:1:pos:R:3:forces:R:3 energy=-97.81699801907847 pbc="F F F"
Hg       0.00000000       0.00000000       0.00000000       0.00000000       0.00000000      -0.04273242
Hg       0.00000000       0.00000000       5.35333333       0.00000000       0.00000000       0.04273242
2
Properties=species:S:1:pos:R:3:forces:R:3 energy=-97.81937451432846 pbc="F F F"
Hg       0.00000000       0.00000000       0.00000000       0.00000000       0.00000000      -0.03810094
Hg       0.00000000       0.00000000       5.41212121       0.00000000       0.00000000       0.03810094
2
Properties=species:S:1:pos:R:3:forces:R:3 energy=-97.82148380812355 pbc="F F F"
Hg       0.00000000       0.00000000       0.00000000       0.00000000       0.00000000      -0.03378963
Hg       0.00000000       0.00000000       5.47090909       0.00000000       0.00000000       0.03378963
2
Properties=species:S:1:pos:R:3:forces:R:3 energy=-97.82333409729442 pbc="F F F"
Hg       0.00000000       0.00000000       0.00000000       0.00000000       0.00000000      -0.02867367
Hg       0.00000000       0.00000000       5.52969697       0.00000000       0.00000000       0.02867367
2
Properties=species:S:1:pos:R:3:forces:R:3 energy=-97.8248114929161 pbc="F F F"
Hg       0.00000000       0.00000000       0.00000000       0.00000000       0.00000000      -0.02148510
Hg       0.00000000       0.00000000       5.58848485       0.00000000       0.00000000       0.02148510
2
Properties=species:S:1:pos:R:3:forces:R:3 energy=-97.82585549598623 pbc="F F F"
Hg       0.00000000       0.00000000       0.00000000       0.00000000       0.00000000      -0.01403453
Hg       0.00000000       0.00000000       5.64727273       0.00000000       0.00000000       0.01403453
2
Properties=species:S:1:pos:R:3:forces:R:3 energy=-97.82647424037505 pbc="F F F"
Hg       0.00000000       0.00000000       0.00000000       0.00000000       0.00000000      -0.00715117
Hg       0.00000000       0.00000000       5.70606061       0.00000000       0.00000000       0.00715117
2
Properties=species:S:1:pos:R:3:forces:R:3 energy=-97.8266834564811 pbc="F F F"
Hg       0.00000000       0.00000000       0.00000000       0.00000000       0.00000000       0.00015569
Hg       0.00000000       0.00000000       5.76484848       0.00000000       0.00000000      -0.00015569
2
Properties=species:S:1:pos:R:3:forces:R:3 energy=-97.8264835901754 pbc="F F F"
Hg       0.00000000       0.00000000       0.00000000       0.00000000       0.00000000       0.00615051
Hg       0.00000000       0.00000000       5.82363636       0.00000000       0.00000000      -0.00615051
2
Properties=species:S:1:pos:R:3:forces:R:3 energy=-97.82606577625873 pbc="F F F"
Hg       0.00000000       0.00000000       0.00000000       0.00000000       0.00000000       0.00702116
Hg       0.00000000       0.00000000       5.88242424       0.00000000       0.00000000      -0.00702116
2
Properties=species:S:1:pos:R:3:forces:R:3 energy=-97.82572792304151 pbc="F F F"
Hg       0.00000000       0.00000000       0.00000000       0.00000000       0.00000000       0.00448304
Hg       0.00000000       0.00000000       5.94121212       0.00000000       0.00000000      -0.00448304
2
Properties=species:S:1:pos:R:3:forces:R:3 energy=-97.82551613040478 pbc="F F F"
Hg       0.00000000       0.00000000       0.00000000       0.00000000       0.00000000       0.00304799
Hg       0.00000000       0.00000000       6.00000000       0.00000000       0.00000000      -0.00304799
