2
Properties=species:S:1:pos:R:3:forces:R:3 energy=799.3464318752535 pbc="F F F"
Ne       0.00000000       0.00000000       0.00000000       0.00000000       0.00000000  -11240.26074219
Ne       0.00000000       0.00000000       0.18000000       0.00000000       0.00000000   11240.26074219
2
Properties=species:S:1:pos:R:3:forces:R:3 energy=374.43090453160255 pbc="F F F"
Ne       0.00000000       0.00000000       0.00000000       0.00000000       0.00000000   -4464.08837891
Ne       0.00000000       0.00000000       0.23878788       0.00000000       0.00000000    4464.08837891
2
Properties=species:S:1:pos:R:3:forces:R:3 energy=193.5161706448838 pbc="F F F"
Ne       0.00000000       0.00000000       0.00000000       0.00000000       0.00000000   -2060.10815430
Ne       0.00000000       0.00000000       0.29757576       0.00000000       0.00000000    2060.10815430
2
Properties=species:S:1:pos:R:3:forces:R:3 energy=105.9041863923501 pbc="F F F"
Ne       0.00000000       0.00000000       0.00000000       0.00000000       0.00000000   -1053.29553223
Ne       0.00000000       0.00000000       0.35636364       0.00000000       0.00000000    1053.29553223
2
Properties=species:S:1:pos:R:3:forces:R:3 energy=59.57447447888156 pbc="F F F"
Ne       0.00000000       0.00000000       0.00000000       0.00000000       0.00000000    -577.74090576
Ne       0.00000000       0.00000000       0.41515152       0.00000000       0.00000000     577.74090576
2
Properties=species:S:1:pos:R:3:forces:R:3 energy=33.56965651742301 pbc="F F F"
Ne       0.00000000       0.00000000       0.00000000       0.00000000       0.00000000    -332.31375122
Ne       0.00000000       0.00000000       0.47393939       0.00000000       0.00000000     332.31375122
2
Properties=species:S:1:pos:R:3:forces:R:3 energy=18.37645926943267 pbc="F F F"
Ne       0.00000000       0.00000000       0.00000000       0.00000000       0.00000000    -197.28947449
Ne       0.00000000       0.00000000       0.53272727       0.00000000       0.00000000     197.28947449
2
Properties=species:S:1:pos:R:3:forces:R:3 energy=9.280201109940299 pbc="F F F"
Ne       0.00000000       0.00000000       0.00000000       0.00000000       0.00000000    -118.97024536
Ne       0.00000000       0.00000000       0.59151515       0.00000000       0.00000000     118.97024536
2
Properties=species:S:1:pos:R:3:forces:R:3 energy=3.7775205764880866 pbc="F F F"
Ne       0.00000000       0.00000000       0.00000000       0.00000000       0.00000000     -72.15982819
Ne       0.00000000       0.00000000       0.65030303       0.00000000       0.00000000      72.15982819
2
Properties=species:S:1:pos:R:3:forces:R:3 energy=0.4437026279517215 pbc="F F F"
Ne       0.00000000       0.00000000       0.00000000       0.00000000       0.00000000     -43.52391052
Ne       0.00000000       0.00000000       0.70909091       0.00000000       0.00000000      43.52391052
2
Properties=species:S:1:pos:R:3:forces:R:3 energy=-1.5505505147785037 pbc="F F F"
Ne       0.00000000       0.00000000       0.00000000       0.00000000       0.00000000     -25.74111366
Ne       0.00000000       0.00000000       0.76787879       0.00000000       0.00000000      25.74111366
2
Properties=species:S:1:pos:R:3:forces:R:3 energy=-2.7155912231428525 pbc="F F F"
Ne       0.00000000       0.00000000       0.00000000       0.00000000       0.00000000     -14.77885151
Ne       0.00000000       0.00000000       0.82666667       0.00000000       0.00000000      14.77885151
2
Properties=species:S:1:pos:R:3:forces:R:3 energy=-3.3707921483306618 pbc="F F F"
Ne       0.00000000       0.00000000       0.00000000       0.00000000       0.00000000      -8.06643105
Ne       0.00000000       0.00000000       0.88545455       0.00000000       0.00000000       8.06643105
2
Properties=species:S:1:pos:R:3:forces:R:3 energy=-3.716469001155551 pbc="F F F"
Ne       0.00000000       0.00000000       0.00000000       0.00000000       0.00000000      -4.04993916
Ne       0.00000000       0.00000000       0.94424242       0.00000000       0.00000000       4.04993916
2
Properties=species:S:1:pos:R:3:forces:R:3 energy=-3.880681880417493 pbc="F F F"
Ne       0.00000000       0.00000000       0.00000000       0.00000000       0.00000000      -1.76421368
Ne       0.00000000       0.00000000       1.00303030       0.00000000       0.00000000       1.76421368
2
Properties=species:S:1:pos:R:3:forces:R:3 energy=-3.9452269503487782 pbc="F F F"
Ne       0.00000000       0.00000000       0.00000000       0.00000000       0.00000000      -0.57425565
Ne       0.00000000       0.00000000       1.06181818       0.00000000       0.00000000       0.57425565
2
Properties=species:S:1:pos:R:3:forces:R:3 energy=-3.9615127348853227 pbc="F F F"
Ne       0.00000000       0.00000000       0.00000000       0.00000000       0.00000000      -0.06847261
Ne       0.00000000       0.00000000       1.12060606       0.00000000       0.00000000       0.06847261
2
Properties=species:S:1:pos:R:3:forces:R:3 energy=-3.9613869428713007 pbc="F F F"
Ne       0.00000000       0.00000000       0.00000000       0.00000000       0.00000000       0.03119069
Ne       0.00000000       0.00000000       1.17939394       0.00000000       0.00000000      -0.03119069
2
Properties=species:S:1:pos:R:3:forces:R:3 energy=-3.95856268799933 pbc="F F F"
Ne       0.00000000       0.00000000       0.00000000       0.00000000       0.00000000       0.06669853
Ne       0.00000000       0.00000000       1.23818182       0.00000000       0.00000000      -0.06669853
2
Properties=species:S:1:pos:R:3:forces:R:3 energy=-3.9534138012959654 pbc="F F F"
Ne       0.00000000       0.00000000       0.00000000       0.00000000       0.00000000       0.10889696
Ne       0.00000000       0.00000000       1.29696970       0.00000000       0.00000000      -0.10889696
2
Properties=species:S:1:pos:R:3:forces:R:3 energy=-3.9457845853316194 pbc="F F F"
Ne       0.00000000       0.00000000       0.00000000       0.00000000       0.00000000       0.14984106
Ne       0.00000000       0.00000000       1.35575758       0.00000000       0.00000000      -0.14984106
2
Properties=species:S:1:pos:R:3:forces:R:3 energy=-3.935948970877364 pbc="F F F"
Ne       0.00000000       0.00000000       0.00000000       0.00000000       0.00000000       0.18307452
Ne       0.00000000       0.00000000       1.41454545       0.00000000       0.00000000      -0.18307452
2
Properties=species:S:1:pos:R:3:forces:R:3 energy=-3.9244848711056965 pbc="F F F"
Ne       0.00000000       0.00000000       0.00000000       0.00000000       0.00000000       0.20492619
Ne       0.00000000       0.00000000       1.47333333       0.00000000       0.00000000      -0.20492619
2
Properties=species:S:1:pos:R:3:forces:R:3 energy=-3.912085353382933 pbc="F F F"
Ne       0.00000000       0.00000000       0.00000000       0.00000000       0.00000000       0.21509609
Ne       0.00000000       0.00000000       1.53212121       0.00000000       0.00000000      -0.21509609
2
Properties=species:S:1:pos:R:3:forces:R:3 energy=-3.899385785601368 pbc="F F F"
Ne       0.00000000       0.00000000       0.00000000       0.00000000       0.00000000       0.21553415
Ne       0.00000000       0.00000000       1.59090909       0.00000000       0.00000000      -0.21553415
2
Properties=species:S:1:pos:R:3:forces:R:3 energy=-3.8868830128749274 pbc="F F F"
Ne       0.00000000       0.00000000       0.00000000       0.00000000       0.00000000       0.20884460
Ne       0.00000000       0.00000000       1.64969697       0.00000000       0.00000000      -0.20884460
2
Properties=species:S:1:pos:R:3:forces:R:3 energy=-3.8749236740388477 pbc="F F F"
Ne       0.00000000       0.00000000       0.00000000       0.00000000       0.00000000       0.19739483
Ne       0.00000000       0.00000000       1.70848485       0.00000000       0.00000000      -0.19739483
2
Properties=species:S:1:pos:R:3:forces:R:3 energy=-3.863730189274798 pbc="F F F"
Ne       0.00000000       0.00000000       0.00000000       0.00000000       0.00000000       0.18307509
Ne       0.00000000       0.00000000       1.76727273       0.00000000       0.00000000      -0.18307509
2
Properties=species:S:1:pos:R:3:forces:R:3 energy=-3.853425794853641 pbc="F F F"
Ne       0.00000000       0.00000000       0.00000000       0.00000000       0.00000000       0.16734883
Ne       0.00000000       0.00000000       1.82606061       0.00000000       0.00000000      -0.16734883
2
Properties=species:S:1:pos:R:3:forces:R:3 energy=-3.8440590987641636 pbc="F F F"
Ne       0.00000000       0.00000000       0.00000000       0.00000000       0.00000000       0.15135147
Ne       0.00000000       0.00000000       1.88484848       0.00000000       0.00000000      -0.15135147
2
Properties=species:S:1:pos:R:3:forces:R:3 energy=-3.8356195791086534 pbc="F F F"
Ne       0.00000000       0.00000000       0.00000000       0.00000000       0.00000000       0.13591267
Ne       0.00000000       0.00000000       1.94363636       0.00000000       0.00000000      -0.13591267
2
Properties=species:S:1:pos:R:3:forces:R:3 energy=-3.8280578485931818 pbc="F F F"
Ne       0.00000000       0.00000000       0.00000000       0.00000000       0.00000000       0.12153896
Ne       0.00000000       0.00000000       2.00242424       0.00000000       0.00000000      -0.12153896
2
Properties=species:S:1:pos:R:3:forces:R:3 energy=-3.8213044906842915 pbc="F F F"
Ne       0.00000000       0.00000000       0.00000000       0.00000000       0.00000000       0.10844132
Ne       0.00000000       0.00000000       2.06121212       0.00000000       0.00000000      -0.10844132
2
Properties=species:S:1:pos:R:3:forces:R:3 energy=-3.815282456484162 pbc="F F F"
Ne       0.00000000       0.00000000       0.00000000       0.00000000       0.00000000       0.09663481
Ne       0.00000000       0.00000000       2.12000000       0.00000000       0.00000000      -0.09663481
2
Properties=species:S:1:pos:R:3:forces:R:3 energy=-3.809918509218382 pbc="F F F"
Ne       0.00000000       0.00000000       0.00000000       0.00000000       0.00000000       0.08605409
Ne       0.00000000       0.00000000       2.17878788       0.00000000       0.00000000      -0.08605409
2
Properties=species:S:1:pos:R:3:forces:R:3 energy=-3.805142270759623 pbc="F F F"
Ne       0.00000000       0.00000000       0.00000000       0.00000000       0.00000000       0.07661910
Ne       0.00000000       0.00000000       2.23757576       0.00000000       0.00000000      -0.07661910
2
Properties=species:S:1:pos:R:3:forces:R:3 energy=-3.8008888450239655 pbc="F F F"
Ne       0.00000000       0.00000000       0.00000000       0.00000000       0.00000000       0.06825480
Ne       0.00000000       0.00000000       2.29636364       0.00000000       0.00000000      -0.06825480
2
Properties=species:S:1:pos:R:3:forces:R:3 energy=-3.7970976248880572 pbc="F F F"
Ne       0.00000000       0.00000000       0.00000000       0.00000000       0.00000000       0.06088396
Ne       0.00000000       0.00000000       2.35515152       0.00000000       0.00000000      -0.06088396
2
Properties=species:S:1:pos:R:3:forces:R:3 energy=-3.793712532191605 pbc="F F F"
Ne       0.00000000       0.00000000       0.00000000       0.00000000       0.00000000       0.05442198
Ne       0.00000000       0.00000000       2.41393939       0.00000000       0.00000000      -0.05442198
2
Properties=species:S:1:pos:R:3:forces:R:3 energy=-3.7906829714116905 pbc="F F F"
Ne       0.00000000       0.00000000       0.00000000       0.00000000       0.00000000       0.04877510
Ne       0.00000000       0.00000000       2.47272727       0.00000000       0.00000000      -0.04877510
2
Properties=species:S:1:pos:R:3:forces:R:3 energy=-3.787963830652715 pbc="F F F"
Ne       0.00000000       0.00000000       0.00000000       0.00000000       0.00000000       0.04384560
Ne       0.00000000       0.00000000       2.53151515       0.00000000       0.00000000      -0.04384560
2
Properties=species:S:1:pos:R:3:forces:R:3 energy=-3.785515719866989 pbc="F F F"
Ne       0.00000000       0.00000000       0.00000000       0.00000000       0.00000000       0.03953906
Ne       0.00000000       0.00000000       2.59030303       0.00000000       0.00000000      -0.03953906
2
Properties=species:S:1:pos:R:3:forces:R:3 energy=-3.783304496096457 pbc="F F F"
Ne       0.00000000       0.00000000       0.00000000       0.00000000       0.00000000       0.03576887
Ne       0.00000000       0.00000000       2.64909091       0.00000000       0.00000000      -0.03576887
2
Properties=species:S:1:pos:R:3:forces:R:3 energy=-3.781301024955126 pbc="F F F"
Ne       0.00000000       0.00000000       0.00000000       0.00000000       0.00000000       0.03245985
Ne       0.00000000       0.00000000       2.70787879       0.00000000       0.00000000      -0.03245985
2
Properties=species:S:1:pos:R:3:forces:R:3 energy=-3.7794802284396636 pbc="F F F"
Ne       0.00000000       0.00000000       0.00000000       0.00000000       0.00000000       0.02954904
Ne       0.00000000       0.00000000       2.76666667       0.00000000       0.00000000      -0.02954904
2
Properties=species:S:1:pos:R:3:forces:R:3 energy=-3.777819893826447 pbc="F F F"
Ne       0.00000000       0.00000000       0.00000000       0.00000000       0.00000000       0.02698465
Ne       0.00000000       0.00000000       2.82545455       0.00000000       0.00000000      -0.02698465
2
Properties=species:S:1:pos:R:3:forces:R:3 energy=-3.7763013903132245 pbc="F F F"
Ne       0.00000000       0.00000000       0.00000000       0.00000000       0.00000000       0.02472443
Ne       0.00000000       0.00000000       2.88424242       0.00000000       0.00000000      -0.02472443
2
Properties=species:S:1:pos:R:3:forces:R:3 energy=-3.774907762462435 pbc="F F F"
Ne       0.00000000       0.00000000       0.00000000       0.00000000       0.00000000       0.02273345
Ne       0.00000000       0.00000000       2.94303030       0.00000000       0.00000000      -0.02273345
2
Properties=species:S:1:pos:R:3:forces:R:3 energy=-3.7736239701047083 pbc="F F F"
Ne       0.00000000       0.00000000       0.00000000       0.00000000       0.00000000       0.02098240
Ne       0.00000000       0.00000000       3.00181818       0.00000000       0.00000000      -0.02098240
2
Properties=species:S:1:pos:R:3:forces:R:3 energy=-3.7724364128876235 pbc="F F F"
Ne       0.00000000       0.00000000       0.00000000       0.00000000       0.00000000       0.01944534
Ne       0.00000000       0.00000000       3.06060606       0.00000000       0.00000000      -0.01944534
2
Properties=species:S:1:pos:R:3:forces:R:3 energy=-3.7713338845439965 pbc="F F F"
Ne       0.00000000       0.00000000       0.00000000       0.00000000       0.00000000       0.01809930
Ne       0.00000000       0.00000000       3.11939394       0.00000000       0.00000000      -0.01809930
2
Properties=species:S:1:pos:R:3:forces:R:3 energy=-3.7703051900920097 pbc="F F F"
Ne       0.00000000       0.00000000       0.00000000       0.00000000       0.00000000       0.01692302
Ne       0.00000000       0.00000000       3.17818182       0.00000000       0.00000000      -0.01692302
2
Properties=species:S:1:pos:R:3:forces:R:3 energy=-3.7693410540747934 pbc="F F F"
Ne       0.00000000       0.00000000       0.00000000       0.00000000       0.00000000       0.01589716
Ne       0.00000000       0.00000000       3.23696970       0.00000000       0.00000000      -0.01589716
2
Properties=species:S:1:pos:R:3:forces:R:3 energy=-3.768433405205697 pbc="F F F"
Ne       0.00000000       0.00000000       0.00000000       0.00000000       0.00000000       0.01500401
Ne       0.00000000       0.00000000       3.29575758       0.00000000       0.00000000      -0.01500401
2
Properties=species:S:1:pos:R:3:forces:R:3 energy=-3.7675746622509845 pbc="F F F"
Ne       0.00000000       0.00000000       0.00000000       0.00000000       0.00000000       0.01422840
Ne       0.00000000       0.00000000       3.35454545       0.00000000       0.00000000      -0.01422840
2
Properties=species:S:1:pos:R:3:forces:R:3 energy=-3.766758448345128 pbc="F F F"
Ne       0.00000000       0.00000000       0.00000000       0.00000000       0.00000000       0.01355802
Ne       0.00000000       0.00000000       3.41333333       0.00000000       0.00000000      -0.01355802
2
Properties=species:S:1:pos:R:3:forces:R:3 energy=-3.7659786380094493 pbc="F F F"
Ne       0.00000000       0.00000000       0.00000000       0.00000000       0.00000000       0.01298445
Ne       0.00000000       0.00000000       3.47212121       0.00000000       0.00000000      -0.01298445
2
Properties=species:S:1:pos:R:3:forces:R:3 energy=-3.7652300707249533 pbc="F F F"
Ne       0.00000000       0.00000000       0.00000000       0.00000000       0.00000000       0.01250346
Ne       0.00000000       0.00000000       3.53090909       0.00000000       0.00000000      -0.01250346
2
Properties=species:S:1:pos:R:3:forces:R:3 energy=-3.764506880517358 pbc="F F F"
Ne       0.00000000       0.00000000       0.00000000       0.00000000       0.00000000       0.01211522
Ne       0.00000000       0.00000000       3.58969697       0.00000000       0.00000000      -0.01211522
2
Properties=species:S:1:pos:R:3:forces:R:3 energy=-3.7638036880004906 pbc="F F F"
Ne       0.00000000       0.00000000       0.00000000       0.00000000       0.00000000       0.01182320
Ne       0.00000000       0.00000000       3.64848485       0.00000000       0.00000000      -0.01182320
2
Properties=species:S:1:pos:R:3:forces:R:3 energy=-3.7631146428411912 pbc="F F F"
Ne       0.00000000       0.00000000       0.00000000       0.00000000       0.00000000       0.01163200
Ne       0.00000000       0.00000000       3.70727273       0.00000000       0.00000000      -0.01163200
2
Properties=species:S:1:pos:R:3:forces:R:3 energy=-3.7624339005469714 pbc="F F F"
Ne       0.00000000       0.00000000       0.00000000       0.00000000       0.00000000       0.01154406
Ne       0.00000000       0.00000000       3.76606061       0.00000000       0.00000000      -0.01154406
2
Properties=species:S:1:pos:R:3:forces:R:3 energy=-3.761755379840171 pbc="F F F"
Ne       0.00000000       0.00000000       0.00000000       0.00000000       0.00000000       0.01155548
Ne       0.00000000       0.00000000       3.82484848       0.00000000       0.00000000      -0.01155548
2
Properties=species:S:1:pos:R:3:forces:R:3 energy=-3.761073715045349 pbc="F F F"
Ne       0.00000000       0.00000000       0.00000000       0.00000000       0.00000000       0.01165244
Ne       0.00000000       0.00000000       3.88363636       0.00000000       0.00000000      -0.01165244
2
Properties=species:S:1:pos:R:3:forces:R:3 energy=-3.760384254010398 pbc="F F F"
Ne       0.00000000       0.00000000       0.00000000       0.00000000       0.00000000       0.01180884
Ne       0.00000000       0.00000000       3.94242424       0.00000000       0.00000000      -0.01180884
2
Properties=species:S:1:pos:R:3:forces:R:3 energy=-3.759684723918275 pbc="F F F"
Ne       0.00000000       0.00000000       0.00000000       0.00000000       0.00000000       0.01198683
Ne       0.00000000       0.00000000       4.00121212       0.00000000       0.00000000      -0.01198683
2
Properties=species:S:1:pos:R:3:forces:R:3 energy=-3.758975230000072 pbc="F F F"
Ne       0.00000000       0.00000000       0.00000000       0.00000000       0.00000000       0.01214036
Ne       0.00000000       0.00000000       4.06000000       0.00000000       0.00000000      -0.01214036
2
Properties=species:S:1:pos:R:3:forces:R:3 energy=-3.7582587304912796 pbc="F F F"
Ne       0.00000000       0.00000000       0.00000000       0.00000000       0.00000000       0.01222155
Ne       0.00000000       0.00000000       4.11878788       0.00000000       0.00000000      -0.01222155
2
Properties=species:S:1:pos:R:3:forces:R:3 energy=-3.7575405587551893 pbc="F F F"
Ne       0.00000000       0.00000000       0.00000000       0.00000000       0.00000000       0.01218859
Ne       0.00000000       0.00000000       4.17757576       0.00000000       0.00000000      -0.01218859
2
Properties=species:S:1:pos:R:3:forces:R:3 energy=-3.7568284217484775 pbc="F F F"
Ne       0.00000000       0.00000000       0.00000000       0.00000000       0.00000000       0.01201300
Ne       0.00000000       0.00000000       4.23636364       0.00000000       0.00000000      -0.01201300
2
Properties=species:S:1:pos:R:3:forces:R:3 energy=-3.7561312077303226 pbc="F F F"
Ne       0.00000000       0.00000000       0.00000000       0.00000000       0.00000000       0.01168456
Ne       0.00000000       0.00000000       4.29515152       0.00000000       0.00000000      -0.01168456
2
Properties=species:S:1:pos:R:3:forces:R:3 energy=-3.7554575565923813 pbc="F F F"
Ne       0.00000000       0.00000000       0.00000000       0.00000000       0.00000000       0.01121180
Ne       0.00000000       0.00000000       4.35393939       0.00000000       0.00000000      -0.01121180
2
Properties=species:S:1:pos:R:3:forces:R:3 energy=-3.754815380992247 pbc="F F F"
Ne       0.00000000       0.00000000       0.00000000       0.00000000       0.00000000       0.01061852
Ne       0.00000000       0.00000000       4.41272727       0.00000000       0.00000000      -0.01061852
2
Properties=species:S:1:pos:R:3:forces:R:3 energy=-3.7542106756959712 pbc="F F F"
Ne       0.00000000       0.00000000       0.00000000       0.00000000       0.00000000       0.00993718
Ne       0.00000000       0.00000000       4.47151515       0.00000000       0.00000000      -0.00993718
2
Properties=species:S:1:pos:R:3:forces:R:3 energy=-3.7536479961476252 pbc="F F F"
Ne       0.00000000       0.00000000       0.00000000       0.00000000       0.00000000       0.00920084
Ne       0.00000000       0.00000000       4.53030303       0.00000000       0.00000000      -0.00920084
2
Properties=species:S:1:pos:R:3:forces:R:3 energy=-3.75312950345856 pbc="F F F"
Ne       0.00000000       0.00000000       0.00000000       0.00000000       0.00000000       0.00843569
Ne       0.00000000       0.00000000       4.58909091       0.00000000       0.00000000      -0.00843569
2
Properties=species:S:1:pos:R:3:forces:R:3 energy=-3.7526563971957514 pbc="F F F"
Ne       0.00000000       0.00000000       0.00000000       0.00000000       0.00000000       0.00765622
Ne       0.00000000       0.00000000       4.64787879       0.00000000       0.00000000      -0.00765622
2
Properties=species:S:1:pos:R:3:forces:R:3 energy=-3.7522296313057506 pbc="F F F"
Ne       0.00000000       0.00000000       0.00000000       0.00000000       0.00000000       0.00686366
Ne       0.00000000       0.00000000       4.70666667       0.00000000       0.00000000      -0.00686366
2
Properties=species:S:1:pos:R:3:forces:R:3 energy=-3.7518499146839015 pbc="F F F"
Ne       0.00000000       0.00000000       0.00000000       0.00000000       0.00000000       0.00604940
Ne       0.00000000       0.00000000       4.76545455       0.00000000       0.00000000      -0.00604940
2
Properties=species:S:1:pos:R:3:forces:R:3 energy=-3.7515189045046684 pbc="F F F"
Ne       0.00000000       0.00000000       0.00000000       0.00000000       0.00000000       0.00520114
Ne       0.00000000       0.00000000       4.82424242       0.00000000       0.00000000      -0.00520114
2
Properties=species:S:1:pos:R:3:forces:R:3 energy=-3.751239207434316 pbc="F F F"
Ne       0.00000000       0.00000000       0.00000000       0.00000000       0.00000000       0.00431232
Ne       0.00000000       0.00000000       4.88303030       0.00000000       0.00000000      -0.00431232
2
Properties=species:S:1:pos:R:3:forces:R:3 energy=-3.7510127106513593 pbc="F F F"
Ne       0.00000000       0.00000000       0.00000000       0.00000000       0.00000000       0.00338913
Ne       0.00000000       0.00000000       4.94181818       0.00000000       0.00000000      -0.00338913
2
Properties=species:S:1:pos:R:3:forces:R:3 energy=-3.7508408215768196 pbc="F F F"
Ne       0.00000000       0.00000000       0.00000000       0.00000000       0.00000000       0.00245432
Ne       0.00000000       0.00000000       5.00060606       0.00000000       0.00000000      -0.00245432
2
Properties=species:S:1:pos:R:3:forces:R:3 energy=-3.750723753732174 pbc="F F F"
Ne       0.00000000       0.00000000       0.00000000       0.00000000       0.00000000       0.00154261
Ne       0.00000000       0.00000000       5.05939394       0.00000000       0.00000000      -0.00154261
2
Properties=species:S:1:pos:R:3:forces:R:3 energy=-3.7506583807741536 pbc="F F F"
Ne       0.00000000       0.00000000       0.00000000       0.00000000       0.00000000       0.00068994
Ne       0.00000000       0.00000000       5.11818182       0.00000000       0.00000000      -0.00068994
2
Properties=species:S:1:pos:R:3:forces:R:3 energy=-3.750640860014815 pbc="F F F"
Ne       0.00000000       0.00000000       0.00000000       0.00000000       0.00000000      -0.00008059
Ne       0.00000000       0.00000000       5.17696970       0.00000000       0.00000000       0.00008059
2
Properties=species:S:1:pos:R:3:forces:R:3 energy=-3.750666156029855 pbc="F F F"
Ne       0.00000000       0.00000000       0.00000000       0.00000000       0.00000000      -0.00076913
Ne       0.00000000       0.00000000       5.23575758       0.00000000       0.00000000       0.00076913
2
Properties=species:S:1:pos:R:3:forces:R:3 energy=-3.7507301868836715 pbc="F F F"
Ne       0.00000000       0.00000000       0.00000000       0.00000000       0.00000000      -0.00139760
Ne       0.00000000       0.00000000       5.29454545       0.00000000       0.00000000       0.00139760
2
Properties=species:S:1:pos:R:3:forces:R:3 energy=-3.750829824463471 pbc="F F F"
Ne       0.00000000       0.00000000       0.00000000       0.00000000       0.00000000      -0.00198763
Ne       0.00000000       0.00000000       5.35333333       0.00000000       0.00000000       0.00198763
2
Properties=species:S:1:pos:R:3:forces:R:3 energy=-3.7509626559616938 pbc="F F F"
Ne       0.00000000       0.00000000       0.00000000       0.00000000       0.00000000      -0.00250854
Ne       0.00000000       0.00000000       5.41212121       0.00000000       0.00000000       0.00250854
2
Properties=species:S:1:pos:R:3:forces:R:3 energy=-3.7511210241911193 pbc="F F F"
Ne       0.00000000       0.00000000       0.00000000       0.00000000       0.00000000      -0.00283118
Ne       0.00000000       0.00000000       5.47090909       0.00000000       0.00000000       0.00283118
2
Properties=species:S:1:pos:R:3:forces:R:3 energy=-3.7512889278587283 pbc="F F F"
Ne       0.00000000       0.00000000       0.00000000       0.00000000       0.00000000      -0.00282814
Ne       0.00000000       0.00000000       5.52969697       0.00000000       0.00000000       0.00282814
2
Properties=species:S:1:pos:R:3:forces:R:3 energy=-3.7514479822776643 pbc="F F F"
Ne       0.00000000       0.00000000       0.00000000       0.00000000       0.00000000      -0.00254952
Ne       0.00000000       0.00000000       5.58848485       0.00000000       0.00000000       0.00254952
2
Properties=species:S:1:pos:R:3:forces:R:3 energy=-3.751585526056776 pbc="F F F"
Ne       0.00000000       0.00000000       0.00000000       0.00000000       0.00000000      -0.00211198
Ne       0.00000000       0.00000000       5.64727273       0.00000000       0.00000000       0.00211198
2
Properties=species:S:1:pos:R:3:forces:R:3 energy=-3.751694382100442 pbc="F F F"
Ne       0.00000000       0.00000000       0.00000000       0.00000000       0.00000000      -0.00157611
Ne       0.00000000       0.00000000       5.70606061       0.00000000       0.00000000       0.00157611
2
Properties=species:S:1:pos:R:3:forces:R:3 energy=-3.7517695202063166 pbc="F F F"
Ne       0.00000000       0.00000000       0.00000000       0.00000000       0.00000000      -0.00096636
Ne       0.00000000       0.00000000       5.76484848       0.00000000       0.00000000       0.00096636
2
Properties=species:S:1:pos:R:3:forces:R:3 energy=-3.7518094878057253 pbc="F F F"
Ne       0.00000000       0.00000000       0.00000000       0.00000000       0.00000000      -0.00042902
Ne       0.00000000       0.00000000       5.82363636       0.00000000       0.00000000       0.00042902
2
Properties=species:S:1:pos:R:3:forces:R:3 energy=-3.75182427716425 pbc="F F F"
Ne       0.00000000       0.00000000       0.00000000       0.00000000       0.00000000      -0.00010757
Ne       0.00000000       0.00000000       5.88242424       0.00000000       0.00000000       0.00010757
2
Properties=species:S:1:pos:R:3:forces:R:3 energy=-3.7518255507273306 pbc="F F F"
Ne       0.00000000       0.00000000       0.00000000       0.00000000       0.00000000       0.00003683
Ne       0.00000000       0.00000000       5.94121212       0.00000000       0.00000000      -0.00003683
2
Properties=species:S:1:pos:R:3:forces:R:3 energy=-3.7518218725940042 pbc="F F F"
Ne       0.00000000       0.00000000       0.00000000       0.00000000       0.00000000       0.00007640
Ne       0.00000000       0.00000000       6.00000000       0.00000000       0.00000000      -0.00007640
