2
Properties=species:S:1:pos:R:3:forces:R:3 energy=5670.255216130024 pbc="F F F"
Rb       0.00000000       0.00000000       0.00000000       0.00000000       0.00000000  -91163.28125000
Rb       0.00000000       0.00000000       0.18000000       0.00000000       0.00000000   91163.28125000
2
Properties=species:S:1:pos:R:3:forces:R:3 energy=2394.573575505024 pbc="F F F"
Rb       0.00000000       0.00000000       0.00000000       0.00000000       0.00000000  -32222.83593750
Rb       0.00000000       0.00000000       0.23878788       0.00000000       0.00000000   32222.83593750
2
Properties=species:S:1:pos:R:3:forces:R:3 energy=1146.989591130024 pbc="F F F"
Rb       0.00000000       0.00000000       0.00000000       0.00000000       0.00000000  -13375.54980469
Rb       0.00000000       0.00000000       0.29757576       0.00000000       0.00000000   13375.54980469
2
Properties=species:S:1:pos:R:3:forces:R:3 energy=605.7424597823677 pbc="F F F"
Rb       0.00000000       0.00000000       0.00000000       0.00000000       0.00000000   -6083.70263672
Rb       0.00000000       0.00000000       0.35636364       0.00000000       0.00000000    6083.70263672
2
Properties=species:S:1:pos:R:3:forces:R:3 energy=354.445401676899 pbc="F F F"
Rb       0.00000000       0.00000000       0.00000000       0.00000000       0.00000000   -2870.17797852
Rb       0.00000000       0.00000000       0.41515152       0.00000000       0.00000000    2870.17797852
2
Properties=species:S:1:pos:R:3:forces:R:3 energy=236.6687598311959 pbc="F F F"
Rb       0.00000000       0.00000000       0.00000000       0.00000000       0.00000000   -1313.38061523
Rb       0.00000000       0.00000000       0.47393939       0.00000000       0.00000000    1313.38061523
2
Properties=species:S:1:pos:R:3:forces:R:3 energy=185.42036200404746 pbc="F F F"
Rb       0.00000000       0.00000000       0.00000000       0.00000000       0.00000000    -518.32861328
Rb       0.00000000       0.00000000       0.53272727       0.00000000       0.00000000     518.32861328
2
Properties=species:S:1:pos:R:3:forces:R:3 energy=167.76264716069343 pbc="F F F"
Rb       0.00000000       0.00000000       0.00000000       0.00000000       0.00000000    -135.44018555
Rb       0.00000000       0.00000000       0.59151515       0.00000000       0.00000000     135.44018555
2
Properties=species:S:1:pos:R:3:forces:R:3 energy=163.30022955855034 pbc="F F F"
Rb       0.00000000       0.00000000       0.00000000       0.00000000       0.00000000     -79.76909637
Rb       0.00000000       0.00000000       0.65030303       0.00000000       0.00000000      79.76909637
2
Properties=species:S:1:pos:R:3:forces:R:3 energy=156.3504920105142 pbc="F F F"
Rb       0.00000000       0.00000000       0.00000000       0.00000000       0.00000000    -178.28520203
Rb       0.00000000       0.00000000       0.70909091       0.00000000       0.00000000     178.28520203
2
Properties=species:S:1:pos:R:3:forces:R:3 energy=140.2473578560327 pbc="F F F"
Rb       0.00000000       0.00000000       0.00000000       0.00000000       0.00000000    -376.36688232
Rb       0.00000000       0.00000000       0.76787879       0.00000000       0.00000000     376.36688232
2
Properties=species:S:1:pos:R:3:forces:R:3 energy=127.66479254999942 pbc="F F F"
Rb       0.00000000       0.00000000       0.00000000       0.00000000       0.00000000    -717.09600830
Rb       0.00000000       0.00000000       0.82666667       0.00000000       0.00000000     717.09600830
2
Properties=species:S:1:pos:R:3:forces:R:3 energy=80.37902595002083 pbc="F F F"
Rb       0.00000000       0.00000000       0.00000000       0.00000000       0.00000000    -776.34094238
Rb       0.00000000       0.00000000       0.88545455       0.00000000       0.00000000     776.34094238
2
Properties=species:S:1:pos:R:3:forces:R:3 energy=43.32192374981951 pbc="F F F"
Rb       0.00000000       0.00000000       0.00000000       0.00000000       0.00000000    -501.10464478
Rb       0.00000000       0.00000000       0.94424242       0.00000000       0.00000000     501.10464478
2
Properties=species:S:1:pos:R:3:forces:R:3 energy=20.89742424166456 pbc="F F F"
Rb       0.00000000       0.00000000       0.00000000       0.00000000       0.00000000    -266.27133179
Rb       0.00000000       0.00000000       1.00303030       0.00000000       0.00000000     266.27133179
2
Properties=species:S:1:pos:R:3:forces:R:3 energy=9.347848441148209 pbc="F F F"
Rb       0.00000000       0.00000000       0.00000000       0.00000000       0.00000000    -128.00994873
Rb       0.00000000       0.00000000       1.06181818       0.00000000       0.00000000     128.00994873
2
Properties=species:S:1:pos:R:3:forces:R:3 energy=4.592772993167917 pbc="F F F"
Rb       0.00000000       0.00000000       0.00000000       0.00000000       0.00000000     -48.82518768
Rb       0.00000000       0.00000000       1.12060606       0.00000000       0.00000000      48.82518768
2
Properties=species:S:1:pos:R:3:forces:R:3 energy=1.797278922685562 pbc="F F F"
Rb       0.00000000       0.00000000       0.00000000       0.00000000       0.00000000     -50.16472244
Rb       0.00000000       0.00000000       1.17939394       0.00000000       0.00000000      50.16472244
2
Properties=species:S:1:pos:R:3:forces:R:3 energy=-1.168260998478037 pbc="F F F"
Rb       0.00000000       0.00000000       0.00000000       0.00000000       0.00000000     -50.02619553
Rb       0.00000000       0.00000000       1.23818182       0.00000000       0.00000000      50.02619553
2
Properties=species:S:1:pos:R:3:forces:R:3 energy=-3.9976562780163127 pbc="F F F"
Rb       0.00000000       0.00000000       0.00000000       0.00000000       0.00000000     -45.95222092
Rb       0.00000000       0.00000000       1.29696970       0.00000000       0.00000000      45.95222092
2
Properties=species:S:1:pos:R:3:forces:R:3 energy=-6.561489496099694 pbc="F F F"
Rb       0.00000000       0.00000000       0.00000000       0.00000000       0.00000000     -40.91395950
Rb       0.00000000       0.00000000       1.35575758       0.00000000       0.00000000      40.91395950
2
Properties=species:S:1:pos:R:3:forces:R:3 energy=-8.75434149418861 pbc="F F F"
Rb       0.00000000       0.00000000       0.00000000       0.00000000       0.00000000     -33.52201843
Rb       0.00000000       0.00000000       1.41454545       0.00000000       0.00000000      33.52201843
2
Properties=species:S:1:pos:R:3:forces:R:3 energy=-10.540072781291004 pbc="F F F"
Rb       0.00000000       0.00000000       0.00000000       0.00000000       0.00000000     -27.84680748
Rb       0.00000000       0.00000000       1.47333333       0.00000000       0.00000000      27.84680748
2
Properties=species:S:1:pos:R:3:forces:R:3 energy=-12.093516655136366 pbc="F F F"
Rb       0.00000000       0.00000000       0.00000000       0.00000000       0.00000000     -25.36605263
Rb       0.00000000       0.00000000       1.53212121       0.00000000       0.00000000      25.36605263
2
Properties=species:S:1:pos:R:3:forces:R:3 energy=-13.544828678683212 pbc="F F F"
Rb       0.00000000       0.00000000       0.00000000       0.00000000       0.00000000     -24.09175491
Rb       0.00000000       0.00000000       1.59090909       0.00000000       0.00000000      24.09175491
2
Properties=species:S:1:pos:R:3:forces:R:3 energy=-14.931564543739777 pbc="F F F"
Rb       0.00000000       0.00000000       0.00000000       0.00000000       0.00000000     -23.11010361
Rb       0.00000000       0.00000000       1.64969697       0.00000000       0.00000000      23.11010361
2
Properties=species:S:1:pos:R:3:forces:R:3 energy=-16.262279662598537 pbc="F F F"
Rb       0.00000000       0.00000000       0.00000000       0.00000000       0.00000000     -22.13599968
Rb       0.00000000       0.00000000       1.70848485       0.00000000       0.00000000      22.13599968
2
Properties=species:S:1:pos:R:3:forces:R:3 energy=-17.52743728892761 pbc="F F F"
Rb       0.00000000       0.00000000       0.00000000       0.00000000       0.00000000     -20.81612968
Rb       0.00000000       0.00000000       1.76727273       0.00000000       0.00000000      20.81612968
2
Properties=species:S:1:pos:R:3:forces:R:3 energy=-18.696475975187465 pbc="F F F"
Rb       0.00000000       0.00000000       0.00000000       0.00000000       0.00000000     -18.83011818
Rb       0.00000000       0.00000000       1.82606061       0.00000000       0.00000000      18.83011818
2
Properties=species:S:1:pos:R:3:forces:R:3 energy=-19.728326688240514 pbc="F F F"
Rb       0.00000000       0.00000000       0.00000000       0.00000000       0.00000000     -16.19702530
Rb       0.00000000       0.00000000       1.88484848       0.00000000       0.00000000      16.19702530
2
Properties=species:S:1:pos:R:3:forces:R:3 energy=-20.598130950583467 pbc="F F F"
Rb       0.00000000       0.00000000       0.00000000       0.00000000       0.00000000     -13.42786312
Rb       0.00000000       0.00000000       1.94363636       0.00000000       0.00000000      13.42786312
2
Properties=species:S:1:pos:R:3:forces:R:3 energy=-21.31631814256066 pbc="F F F"
Rb       0.00000000       0.00000000       0.00000000       0.00000000       0.00000000     -11.11382294
Rb       0.00000000       0.00000000       2.00242424       0.00000000       0.00000000      11.11382294
2
Properties=species:S:1:pos:R:3:forces:R:3 energy=-21.91880935780602 pbc="F F F"
Rb       0.00000000       0.00000000       0.00000000       0.00000000       0.00000000      -9.50235462
Rb       0.00000000       0.00000000       2.06121212       0.00000000       0.00000000       9.50235462
2
Properties=species:S:1:pos:R:3:forces:R:3 energy=-22.446496240886574 pbc="F F F"
Rb       0.00000000       0.00000000       0.00000000       0.00000000       0.00000000      -8.54639244
Rb       0.00000000       0.00000000       2.12000000       0.00000000       0.00000000       8.54639244
2
Properties=species:S:1:pos:R:3:forces:R:3 energy=-22.93271733578341 pbc="F F F"
Rb       0.00000000       0.00000000       0.00000000       0.00000000       0.00000000      -8.04927921
Rb       0.00000000       0.00000000       2.17878788       0.00000000       0.00000000       8.04927921
2
Properties=species:S:1:pos:R:3:forces:R:3 energy=-23.396288632403465 pbc="F F F"
Rb       0.00000000       0.00000000       0.00000000       0.00000000       0.00000000      -7.72687340
Rb       0.00000000       0.00000000       2.23757576       0.00000000       0.00000000       7.72687340
2
Properties=species:S:1:pos:R:3:forces:R:3 energy=-23.839813656878793 pbc="F F F"
Rb       0.00000000       0.00000000       0.00000000       0.00000000       0.00000000      -7.33886957
Rb       0.00000000       0.00000000       2.29636364       0.00000000       0.00000000       7.33886957
2
Properties=species:S:1:pos:R:3:forces:R:3 energy=-24.256101702091847 pbc="F F F"
Rb       0.00000000       0.00000000       0.00000000       0.00000000       0.00000000      -6.79875326
Rb       0.00000000       0.00000000       2.35515152       0.00000000       0.00000000       6.79875326
2
Properties=species:S:1:pos:R:3:forces:R:3 energy=-24.6368424441098 pbc="F F F"
Rb       0.00000000       0.00000000       0.00000000       0.00000000       0.00000000      -6.14031506
Rb       0.00000000       0.00000000       2.41393939       0.00000000       0.00000000       6.14031506
2
Properties=species:S:1:pos:R:3:forces:R:3 energy=-24.97709775296654 pbc="F F F"
Rb       0.00000000       0.00000000       0.00000000       0.00000000       0.00000000      -5.43270540
Rb       0.00000000       0.00000000       2.47272727       0.00000000       0.00000000       5.43270540
2
Properties=species:S:1:pos:R:3:forces:R:3 energy=-25.275770896466582 pbc="F F F"
Rb       0.00000000       0.00000000       0.00000000       0.00000000       0.00000000      -4.73324490
Rb       0.00000000       0.00000000       2.53151515       0.00000000       0.00000000       4.73324490
2
Properties=species:S:1:pos:R:3:forces:R:3 energy=-25.534467857407023 pbc="F F F"
Rb       0.00000000       0.00000000       0.00000000       0.00000000       0.00000000      -4.07685184
Rb       0.00000000       0.00000000       2.59030303       0.00000000       0.00000000       4.07685184
2
Properties=species:S:1:pos:R:3:forces:R:3 energy=-25.756288070188575 pbc="F F F"
Rb       0.00000000       0.00000000       0.00000000       0.00000000       0.00000000      -3.48025942
Rb       0.00000000       0.00000000       2.64909091       0.00000000       0.00000000       3.48025942
2
Properties=species:S:1:pos:R:3:forces:R:3 energy=-25.94495657877157 pbc="F F F"
Rb       0.00000000       0.00000000       0.00000000       0.00000000       0.00000000      -2.94951272
Rb       0.00000000       0.00000000       2.70787879       0.00000000       0.00000000       2.94951272
2
Properties=species:S:1:pos:R:3:forces:R:3 energy=-26.10439488600541 pbc="F F F"
Rb       0.00000000       0.00000000       0.00000000       0.00000000       0.00000000      -2.48587656
Rb       0.00000000       0.00000000       2.76666667       0.00000000       0.00000000       2.48587656
2
Properties=species:S:1:pos:R:3:forces:R:3 energy=-26.238530213617558 pbc="F F F"
Rb       0.00000000       0.00000000       0.00000000       0.00000000       0.00000000      -2.08819652
Rb       0.00000000       0.00000000       2.82545455       0.00000000       0.00000000       2.08819652
2
Properties=species:S:1:pos:R:3:forces:R:3 energy=-26.35113719782073 pbc="F F F"
Rb       0.00000000       0.00000000       0.00000000       0.00000000       0.00000000      -1.75258756
Rb       0.00000000       0.00000000       2.88424242       0.00000000       0.00000000       1.75258756
2
Properties=species:S:1:pos:R:3:forces:R:3 energy=-26.445670039465373 pbc="F F F"
Rb       0.00000000       0.00000000       0.00000000       0.00000000       0.00000000      -1.47184336
Rb       0.00000000       0.00000000       2.94303030       0.00000000       0.00000000       1.47184336
2
Properties=species:S:1:pos:R:3:forces:R:3 energy=-26.52507558228974 pbc="F F F"
Rb       0.00000000       0.00000000       0.00000000       0.00000000       0.00000000      -1.23629224
Rb       0.00000000       0.00000000       3.00181818       0.00000000       0.00000000       1.23629224
2
Properties=species:S:1:pos:R:3:forces:R:3 energy=-26.59171511716963 pbc="F F F"
Rb       0.00000000       0.00000000       0.00000000       0.00000000       0.00000000      -1.03589702
Rb       0.00000000       0.00000000       3.06060606       0.00000000       0.00000000       1.03589702
2
Properties=species:S:1:pos:R:3:forces:R:3 energy=-26.647396807045148 pbc="F F F"
Rb       0.00000000       0.00000000       0.00000000       0.00000000       0.00000000      -0.86238325
Rb       0.00000000       0.00000000       3.11939394       0.00000000       0.00000000       0.86238325
2
Properties=species:S:1:pos:R:3:forces:R:3 energy=-26.6935282700596 pbc="F F F"
Rb       0.00000000       0.00000000       0.00000000       0.00000000       0.00000000      -0.71033031
Rb       0.00000000       0.00000000       3.17818182       0.00000000       0.00000000       0.71033031
2
Properties=species:S:1:pos:R:3:forces:R:3 energy=-26.731282523246296 pbc="F F F"
Rb       0.00000000       0.00000000       0.00000000       0.00000000       0.00000000      -0.57713157
Rb       0.00000000       0.00000000       3.23696970       0.00000000       0.00000000       0.57713157
2
Properties=species:S:1:pos:R:3:forces:R:3 energy=-26.76174103961569 pbc="F F F"
Rb       0.00000000       0.00000000       0.00000000       0.00000000       0.00000000      -0.46218425
Rb       0.00000000       0.00000000       3.29575758       0.00000000       0.00000000       0.46218425
2
Properties=species:S:1:pos:R:3:forces:R:3 energy=-26.78598720467457 pbc="F F F"
Rb       0.00000000       0.00000000       0.00000000       0.00000000       0.00000000      -0.36572745
Rb       0.00000000       0.00000000       3.35454545       0.00000000       0.00000000       0.36572745
2
Properties=species:S:1:pos:R:3:forces:R:3 energy=-26.805104409869394 pbc="F F F"
Rb       0.00000000       0.00000000       0.00000000       0.00000000       0.00000000      -0.28770670
Rb       0.00000000       0.00000000       3.41333333       0.00000000       0.00000000       0.28770670
2
Properties=species:S:1:pos:R:3:forces:R:3 energy=-26.82015698781148 pbc="F F F"
Rb       0.00000000       0.00000000       0.00000000       0.00000000       0.00000000      -0.22715159
Rb       0.00000000       0.00000000       3.47212121       0.00000000       0.00000000       0.22715159
2
Properties=species:S:1:pos:R:3:forces:R:3 energy=-26.832117738968595 pbc="F F F"
Rb       0.00000000       0.00000000       0.00000000       0.00000000       0.00000000      -0.18220508
Rb       0.00000000       0.00000000       3.53090909       0.00000000       0.00000000       0.18220508
2
Properties=species:S:1:pos:R:3:forces:R:3 energy=-26.84183930757628 pbc="F F F"
Rb       0.00000000       0.00000000       0.00000000       0.00000000       0.00000000      -0.15057358
Rb       0.00000000       0.00000000       3.58969697       0.00000000       0.00000000       0.15057358
2
Properties=species:S:1:pos:R:3:forces:R:3 energy=-26.850037057473763 pbc="F F F"
Rb       0.00000000       0.00000000       0.00000000       0.00000000       0.00000000      -0.12992427
Rb       0.00000000       0.00000000       3.64848485       0.00000000       0.00000000       0.12992427
2
Properties=species:S:1:pos:R:3:forces:R:3 energy=-26.857287140204733 pbc="F F F"
Rb       0.00000000       0.00000000       0.00000000       0.00000000       0.00000000      -0.11801812
Rb       0.00000000       0.00000000       3.70727273       0.00000000       0.00000000       0.11801812
2
Properties=species:S:1:pos:R:3:forces:R:3 energy=-26.864041781128847 pbc="F F F"
Rb       0.00000000       0.00000000       0.00000000       0.00000000       0.00000000      -0.11266514
Rb       0.00000000       0.00000000       3.76606061       0.00000000       0.00000000       0.11266514
2
Properties=species:S:1:pos:R:3:forces:R:3 energy=-26.870619753369986 pbc="F F F"
Rb       0.00000000       0.00000000       0.00000000       0.00000000       0.00000000      -0.11165149
Rb       0.00000000       0.00000000       3.82484848       0.00000000       0.00000000       0.11165149
2
Properties=species:S:1:pos:R:3:forces:R:3 energy=-26.87721021508423 pbc="F F F"
Rb       0.00000000       0.00000000       0.00000000       0.00000000       0.00000000      -0.11274374
Rb       0.00000000       0.00000000       3.88363636       0.00000000       0.00000000       0.11274374
2
Properties=species:S:1:pos:R:3:forces:R:3 energy=-26.883874643734995 pbc="F F F"
Rb       0.00000000       0.00000000       0.00000000       0.00000000       0.00000000      -0.11384245
Rb       0.00000000       0.00000000       3.94242424       0.00000000       0.00000000       0.11384245
2
Properties=species:S:1:pos:R:3:forces:R:3 energy=-26.89056213685574 pbc="F F F"
Rb       0.00000000       0.00000000       0.00000000       0.00000000       0.00000000      -0.11325065
Rb       0.00000000       0.00000000       4.00121212       0.00000000       0.00000000       0.11325065
2
Properties=species:S:1:pos:R:3:forces:R:3 energy=-26.897136168387814 pbc="F F F"
Rb       0.00000000       0.00000000       0.00000000       0.00000000       0.00000000      -0.10991117
Rb       0.00000000       0.00000000       4.06000000       0.00000000       0.00000000       0.10991117
2
Properties=species:S:1:pos:R:3:forces:R:3 energy=-26.90342427042383 pbc="F F F"
Rb       0.00000000       0.00000000       0.00000000       0.00000000       0.00000000      -0.10345638
Rb       0.00000000       0.00000000       4.11878788       0.00000000       0.00000000       0.10345638
2
Properties=species:S:1:pos:R:3:forces:R:3 energy=-26.909242957828635 pbc="F F F"
Rb       0.00000000       0.00000000       0.00000000       0.00000000       0.00000000      -0.09403007
Rb       0.00000000       0.00000000       4.17757576       0.00000000       0.00000000       0.09403007
2
Properties=species:S:1:pos:R:3:forces:R:3 energy=-26.914428443410348 pbc="F F F"
Rb       0.00000000       0.00000000       0.00000000       0.00000000       0.00000000      -0.08201115
Rb       0.00000000       0.00000000       4.23636364       0.00000000       0.00000000       0.08201115
2
Properties=species:S:1:pos:R:3:forces:R:3 energy=-26.918842668036955 pbc="F F F"
Rb       0.00000000       0.00000000       0.00000000       0.00000000       0.00000000      -0.06780477
Rb       0.00000000       0.00000000       4.29515152       0.00000000       0.00000000       0.06780477
2
Properties=species:S:1:pos:R:3:forces:R:3 energy=-26.92236425015385 pbc="F F F"
Rb       0.00000000       0.00000000       0.00000000       0.00000000       0.00000000      -0.05176553
Rb       0.00000000       0.00000000       4.35393939       0.00000000       0.00000000       0.05176553
2
Properties=species:S:1:pos:R:3:forces:R:3 energy=-26.92489878795203 pbc="F F F"
Rb       0.00000000       0.00000000       0.00000000       0.00000000       0.00000000      -0.03420576
Rb       0.00000000       0.00000000       4.41272727       0.00000000       0.00000000       0.03420576
2
Properties=species:S:1:pos:R:3:forces:R:3 energy=-26.92636292670114 pbc="F F F"
Rb       0.00000000       0.00000000       0.00000000       0.00000000       0.00000000      -0.01542992
Rb       0.00000000       0.00000000       4.47151515       0.00000000       0.00000000       0.01542992
2
Properties=species:S:1:pos:R:3:forces:R:3 energy=-26.92669394189831 pbc="F F F"
Rb       0.00000000       0.00000000       0.00000000       0.00000000       0.00000000       0.00425777
Rb       0.00000000       0.00000000       4.53030303       0.00000000       0.00000000      -0.00425777
2
Properties=species:S:1:pos:R:3:forces:R:3 energy=-26.925849017157283 pbc="F F F"
Rb       0.00000000       0.00000000       0.00000000       0.00000000       0.00000000       0.02455276
Rb       0.00000000       0.00000000       4.58909091       0.00000000       0.00000000      -0.02455276
2
Properties=species:S:1:pos:R:3:forces:R:3 energy=-26.923802337640698 pbc="F F F"
Rb       0.00000000       0.00000000       0.00000000       0.00000000       0.00000000       0.04514962
Rb       0.00000000       0.00000000       4.64787879       0.00000000       0.00000000      -0.04514962
2
Properties=species:S:1:pos:R:3:forces:R:3 energy=-26.920542230690064 pbc="F F F"
Rb       0.00000000       0.00000000       0.00000000       0.00000000       0.00000000       0.06572443
Rb       0.00000000       0.00000000       4.70666667       0.00000000       0.00000000      -0.06572443
2
Properties=species:S:1:pos:R:3:forces:R:3 energy=-26.91608092976928 pbc="F F F"
Rb       0.00000000       0.00000000       0.00000000       0.00000000       0.00000000       0.08598303
Rb       0.00000000       0.00000000       4.76545455       0.00000000       0.00000000      -0.08598303
2
Properties=species:S:1:pos:R:3:forces:R:3 energy=-26.910440411894598 pbc="F F F"
Rb       0.00000000       0.00000000       0.00000000       0.00000000       0.00000000       0.10589260
Rb       0.00000000       0.00000000       4.82424242       0.00000000       0.00000000      -0.10589260
2
Properties=species:S:1:pos:R:3:forces:R:3 energy=-26.903622718752 pbc="F F F"
Rb       0.00000000       0.00000000       0.00000000       0.00000000       0.00000000       0.12625010
Rb       0.00000000       0.00000000       4.88303030       0.00000000       0.00000000      -0.12625010
2
Properties=species:S:1:pos:R:3:forces:R:3 energy=-26.89553930368069 pbc="F F F"
Rb       0.00000000       0.00000000       0.00000000       0.00000000       0.00000000       0.14956763
Rb       0.00000000       0.00000000       4.94181818       0.00000000       0.00000000      -0.14956763
2
Properties=species:S:1:pos:R:3:forces:R:3 energy=-26.885886551785433 pbc="F F F"
Rb       0.00000000       0.00000000       0.00000000       0.00000000       0.00000000       0.18056685
Rb       0.00000000       0.00000000       5.00060606       0.00000000       0.00000000      -0.18056685
2
Properties=species:S:1:pos:R:3:forces:R:3 energy=-26.87403979184387 pbc="F F F"
Rb       0.00000000       0.00000000       0.00000000       0.00000000       0.00000000       0.22522750
Rb       0.00000000       0.00000000       5.05939394       0.00000000       0.00000000      -0.22522750
2
Properties=species:S:1:pos:R:3:forces:R:3 energy=-26.8590511116209 pbc="F F F"
Rb       0.00000000       0.00000000       0.00000000       0.00000000       0.00000000       0.28771973
Rb       0.00000000       0.00000000       5.11818182       0.00000000       0.00000000      -0.28771973
2
Properties=species:S:1:pos:R:3:forces:R:3 energy=-26.839892101338233 pbc="F F F"
Rb       0.00000000       0.00000000       0.00000000       0.00000000       0.00000000       0.36622238
Rb       0.00000000       0.00000000       5.17696970       0.00000000       0.00000000      -0.36622238
2
Properties=species:S:1:pos:R:3:forces:R:3 energy=-26.815904189543613 pbc="F F F"
Rb       0.00000000       0.00000000       0.00000000       0.00000000       0.00000000       0.44904006
Rb       0.00000000       0.00000000       5.23575758       0.00000000       0.00000000      -0.44904006
2
Properties=species:S:1:pos:R:3:forces:R:3 energy=-26.787442230765542 pbc="F F F"
Rb       0.00000000       0.00000000       0.00000000       0.00000000       0.00000000       0.51430231
Rb       0.00000000       0.00000000       5.29454545       0.00000000       0.00000000      -0.51430231
2
Properties=species:S:1:pos:R:3:forces:R:3 energy=-26.756141370234516 pbc="F F F"
Rb       0.00000000       0.00000000       0.00000000       0.00000000       0.00000000       0.54492110
Rb       0.00000000       0.00000000       5.35333333       0.00000000       0.00000000      -0.54492110
2
Properties=species:S:1:pos:R:3:forces:R:3 energy=-26.72358477819914 pbc="F F F"
Rb       0.00000000       0.00000000       0.00000000       0.00000000       0.00000000       0.56640810
Rb       0.00000000       0.00000000       5.41212121       0.00000000       0.00000000      -0.56640810
2
Properties=species:S:1:pos:R:3:forces:R:3 energy=-26.68850335967905 pbc="F F F"
Rb       0.00000000       0.00000000       0.00000000       0.00000000       0.00000000       0.63725567
Rb       0.00000000       0.00000000       5.47090909       0.00000000       0.00000000      -0.63725567
2
Properties=species:S:1:pos:R:3:forces:R:3 energy=-26.64831237932166 pbc="F F F"
Rb       0.00000000       0.00000000       0.00000000       0.00000000       0.00000000       0.72218013
Rb       0.00000000       0.00000000       5.52969697       0.00000000       0.00000000      -0.72218013
2
Properties=species:S:1:pos:R:3:forces:R:3 energy=-26.60544608238371 pbc="F F F"
Rb       0.00000000       0.00000000       0.00000000       0.00000000       0.00000000       0.71856582
Rb       0.00000000       0.00000000       5.58848485       0.00000000       0.00000000      -0.71856582
2
Properties=species:S:1:pos:R:3:forces:R:3 energy=-26.565020585073636 pbc="F F F"
Rb       0.00000000       0.00000000       0.00000000       0.00000000       0.00000000       0.65846485
Rb       0.00000000       0.00000000       5.64727273       0.00000000       0.00000000      -0.65846485
2
Properties=species:S:1:pos:R:3:forces:R:3 energy=-26.526281960014277 pbc="F F F"
Rb       0.00000000       0.00000000       0.00000000       0.00000000       0.00000000       0.68430984
Rb       0.00000000       0.00000000       5.70606061       0.00000000       0.00000000      -0.68430984
2
Properties=species:S:1:pos:R:3:forces:R:3 energy=-26.482265302026857 pbc="F F F"
Rb       0.00000000       0.00000000       0.00000000       0.00000000       0.00000000       0.81065679
Rb       0.00000000       0.00000000       5.76484848       0.00000000       0.00000000      -0.81065679
2
Properties=species:S:1:pos:R:3:forces:R:3 energy=-26.434138800492537 pbc="F F F"
Rb       0.00000000       0.00000000       0.00000000       0.00000000       0.00000000       0.78160143
Rb       0.00000000       0.00000000       5.82363636       0.00000000       0.00000000      -0.78160143
2
Properties=species:S:1:pos:R:3:forces:R:3 energy=-26.39608315182012 pbc="F F F"
Rb       0.00000000       0.00000000       0.00000000       0.00000000       0.00000000       0.48387349
Rb       0.00000000       0.00000000       5.88242424       0.00000000       0.00000000      -0.48387349
2
Properties=species:S:1:pos:R:3:forces:R:3 energy=-26.378033868696686 pbc="F F F"
Rb       0.00000000       0.00000000       0.00000000       0.00000000       0.00000000       0.14459878
Rb       0.00000000       0.00000000       5.94121212       0.00000000       0.00000000      -0.14459878
2
Properties=species:S:1:pos:R:3:forces:R:3 energy=-26.37497477118737 pbc="F F F"
Rb       0.00000000       0.00000000       0.00000000       0.00000000       0.00000000       0.00571407
Rb       0.00000000       0.00000000       6.00000000       0.00000000       0.00000000      -0.00571407
