2
Properties=species:S:1:pos:R:3:forces:R:3 energy=2320.3495232262317 pbc="F F F"
Ca       0.00000000       0.00000000       0.00000000       0.00000000       0.00000000  -34714.79296875
Ca       0.00000000       0.00000000       0.18000000       0.00000000       0.00000000   34714.79296875
2
Properties=species:S:1:pos:R:3:forces:R:3 energy=1042.9775749840444 pbc="F F F"
Ca       0.00000000       0.00000000       0.00000000       0.00000000       0.00000000  -12966.97558594
Ca       0.00000000       0.00000000       0.23878788       0.00000000       0.00000000   12966.97558594
2
Properties=species:S:1:pos:R:3:forces:R:3 energy=529.3944451012319 pbc="F F F"
Ca       0.00000000       0.00000000       0.00000000       0.00000000       0.00000000   -5681.18847656
Ca       0.00000000       0.00000000       0.29757576       0.00000000       0.00000000    5681.18847656
2
Properties=species:S:1:pos:R:3:forces:R:3 energy=293.0496575035756 pbc="F F F"
Ca       0.00000000       0.00000000       0.00000000       0.00000000       0.00000000   -2763.56933594
Ca       0.00000000       0.00000000       0.35636364       0.00000000       0.00000000    2763.56933594
2
Properties=species:S:1:pos:R:3:forces:R:3 energy=174.15991752601252 pbc="F F F"
Ca       0.00000000       0.00000000       0.00000000       0.00000000       0.00000000   -1442.82519531
Ca       0.00000000       0.00000000       0.41515152       0.00000000       0.00000000    1442.82519531
2
Properties=species:S:1:pos:R:3:forces:R:3 energy=110.6122567110471 pbc="F F F"
Ca       0.00000000       0.00000000       0.00000000       0.00000000       0.00000000    -791.33740234
Ca       0.00000000       0.00000000       0.47393939       0.00000000       0.00000000     791.33740234
2
Properties=species:S:1:pos:R:3:forces:R:3 energy=75.17279599466643 pbc="F F F"
Ca       0.00000000       0.00000000       0.00000000       0.00000000       0.00000000    -449.26785278
Ca       0.00000000       0.00000000       0.53272727       0.00000000       0.00000000     449.26785278
2
Properties=species:S:1:pos:R:3:forces:R:3 energy=54.83055666546877 pbc="F F F"
Ca       0.00000000       0.00000000       0.00000000       0.00000000       0.00000000    -260.69519043
Ca       0.00000000       0.00000000       0.59151515       0.00000000       0.00000000     260.69519043
2
Properties=species:S:1:pos:R:3:forces:R:3 energy=42.96938884645295 pbc="F F F"
Ca       0.00000000       0.00000000       0.00000000       0.00000000       0.00000000    -152.47004700
Ca       0.00000000       0.00000000       0.65030303       0.00000000       0.00000000     152.47004700
2
Properties=species:S:1:pos:R:3:forces:R:3 energy=36.04629328271212 pbc="F F F"
Ca       0.00000000       0.00000000       0.00000000       0.00000000       0.00000000     -88.56730652
Ca       0.00000000       0.00000000       0.70909091       0.00000000       0.00000000      88.56730652
2
Properties=species:S:1:pos:R:3:forces:R:3 energy=32.048067332352545 pbc="F F F"
Ca       0.00000000       0.00000000       0.00000000       0.00000000       0.00000000     -50.84644318
Ca       0.00000000       0.00000000       0.76787879       0.00000000       0.00000000      50.84644318
2
Properties=species:S:1:pos:R:3:forces:R:3 energy=29.751135441347063 pbc="F F F"
Ca       0.00000000       0.00000000       0.00000000       0.00000000       0.00000000     -29.37294197
Ca       0.00000000       0.00000000       0.82666667       0.00000000       0.00000000      29.37294197
2
Properties=species:S:1:pos:R:3:forces:R:3 energy=28.41332346113611 pbc="F F F"
Ca       0.00000000       0.00000000       0.00000000       0.00000000       0.00000000     -17.22398567
Ca       0.00000000       0.00000000       0.88545455       0.00000000       0.00000000      17.22398567
2
Properties=species:S:1:pos:R:3:forces:R:3 energy=27.632837034153663 pbc="F F F"
Ca       0.00000000       0.00000000       0.00000000       0.00000000       0.00000000      -9.94620705
Ca       0.00000000       0.00000000       0.94424242       0.00000000       0.00000000       9.94620705
2
Properties=species:S:1:pos:R:3:forces:R:3 energy=27.176497131348942 pbc="F F F"
Ca       0.00000000       0.00000000       0.00000000       0.00000000       0.00000000      -6.15197039
Ca       0.00000000       0.00000000       1.00303030       0.00000000       0.00000000       6.15197039
2
Properties=species:S:1:pos:R:3:forces:R:3 energy=26.839069263147923 pbc="F F F"
Ca       0.00000000       0.00000000       0.00000000       0.00000000       0.00000000      -5.94972515
Ca       0.00000000       0.00000000       1.06181818       0.00000000       0.00000000       5.94972515
2
Properties=species:S:1:pos:R:3:forces:R:3 energy=26.403440036047865 pbc="F F F"
Ca       0.00000000       0.00000000       0.00000000       0.00000000       0.00000000      -9.47475052
Ca       0.00000000       0.00000000       1.12060606       0.00000000       0.00000000       9.47475052
2
Properties=species:S:1:pos:R:3:forces:R:3 energy=25.663140956594468 pbc="F F F"
Ca       0.00000000       0.00000000       0.00000000       0.00000000       0.00000000     -16.12590790
Ca       0.00000000       0.00000000       1.17939394       0.00000000       0.00000000      16.12590790
2
Properties=species:S:1:pos:R:3:forces:R:3 energy=24.47520111268226 pbc="F F F"
Ca       0.00000000       0.00000000       0.00000000       0.00000000       0.00000000     -24.42196465
Ca       0.00000000       0.00000000       1.23818182       0.00000000       0.00000000      24.42196465
2
Properties=species:S:1:pos:R:3:forces:R:3 energy=22.79077533988643 pbc="F F F"
Ca       0.00000000       0.00000000       0.00000000       0.00000000       0.00000000     -32.77299500
Ca       0.00000000       0.00000000       1.29696970       0.00000000       0.00000000      32.77299500
2
Properties=species:S:1:pos:R:3:forces:R:3 energy=20.648134753251114 pbc="F F F"
Ca       0.00000000       0.00000000       0.00000000       0.00000000       0.00000000     -39.78307343
Ca       0.00000000       0.00000000       1.35575758       0.00000000       0.00000000      39.78307343
2
Properties=species:S:1:pos:R:3:forces:R:3 energy=18.166889375609312 pbc="F F F"
Ca       0.00000000       0.00000000       0.00000000       0.00000000       0.00000000     -44.04908752
Ca       0.00000000       0.00000000       1.41454545       0.00000000       0.00000000      44.04908752
2
Properties=species:S:1:pos:R:3:forces:R:3 energy=15.552623948434944 pbc="F F F"
Ca       0.00000000       0.00000000       0.00000000       0.00000000       0.00000000     -44.06789398
Ca       0.00000000       0.00000000       1.47333333       0.00000000       0.00000000      44.06789398
2
Properties=species:S:1:pos:R:3:forces:R:3 energy=13.081894740168426 pbc="F F F"
Ca       0.00000000       0.00000000       0.00000000       0.00000000       0.00000000     -39.30520630
Ca       0.00000000       0.00000000       1.53212121       0.00000000       0.00000000      39.30520630
2
Properties=species:S:1:pos:R:3:forces:R:3 energy=10.974250254980943 pbc="F F F"
Ca       0.00000000       0.00000000       0.00000000       0.00000000       0.00000000     -32.38345718
Ca       0.00000000       0.00000000       1.59090909       0.00000000       0.00000000      32.38345718
2
Properties=species:S:1:pos:R:3:forces:R:3 energy=9.248200687133124 pbc="F F F"
Ca       0.00000000       0.00000000       0.00000000       0.00000000       0.00000000     -26.66926575
Ca       0.00000000       0.00000000       1.64969697       0.00000000       0.00000000      26.66926575
2
Properties=species:S:1:pos:R:3:forces:R:3 energy=7.804137518600787 pbc="F F F"
Ca       0.00000000       0.00000000       0.00000000       0.00000000       0.00000000     -22.67024231
Ca       0.00000000       0.00000000       1.70848485       0.00000000       0.00000000      22.67024231
2
Properties=species:S:1:pos:R:3:forces:R:3 energy=6.567685048602959 pbc="F F F"
Ca       0.00000000       0.00000000       0.00000000       0.00000000       0.00000000     -19.45838737
Ca       0.00000000       0.00000000       1.76727273       0.00000000       0.00000000      19.45838737
2
Properties=species:S:1:pos:R:3:forces:R:3 energy=5.512359733373559 pbc="F F F"
Ca       0.00000000       0.00000000       0.00000000       0.00000000       0.00000000     -16.46621704
Ca       0.00000000       0.00000000       1.82606061       0.00000000       0.00000000      16.46621704
2
Properties=species:S:1:pos:R:3:forces:R:3 energy=4.628536695573797 pbc="F F F"
Ca       0.00000000       0.00000000       0.00000000       0.00000000       0.00000000     -13.63826370
Ca       0.00000000       0.00000000       1.88484848       0.00000000       0.00000000      13.63826370
2
Properties=species:S:1:pos:R:3:forces:R:3 energy=3.903317119279236 pbc="F F F"
Ca       0.00000000       0.00000000       0.00000000       0.00000000       0.00000000     -11.09025764
Ca       0.00000000       0.00000000       1.94363636       0.00000000       0.00000000      11.09025764
2
Properties=species:S:1:pos:R:3:forces:R:3 energy=3.3171210607510098 pbc="F F F"
Ca       0.00000000       0.00000000       0.00000000       0.00000000       0.00000000      -8.92212582
Ca       0.00000000       0.00000000       2.00242424       0.00000000       0.00000000       8.92212582
2
Properties=species:S:1:pos:R:3:forces:R:3 energy=2.8455993270216347 pbc="F F F"
Ca       0.00000000       0.00000000       0.00000000       0.00000000       0.00000000      -7.19625616
Ca       0.00000000       0.00000000       2.06121212       0.00000000       0.00000000       7.19625616
2
Properties=species:S:1:pos:R:3:forces:R:3 energy=2.4620162691884175 pbc="F F F"
Ca       0.00000000       0.00000000       0.00000000       0.00000000       0.00000000      -5.92732143
Ca       0.00000000       0.00000000       2.12000000       0.00000000       0.00000000       5.92732143
2
Properties=species:S:1:pos:R:3:forces:R:3 energy=2.140700827989509 pbc="F F F"
Ca       0.00000000       0.00000000       0.00000000       0.00000000       0.00000000      -5.06439447
Ca       0.00000000       0.00000000       2.17878788       0.00000000       0.00000000       5.06439447
2
Properties=species:S:1:pos:R:3:forces:R:3 energy=1.8605038542907424 pbc="F F F"
Ca       0.00000000       0.00000000       0.00000000       0.00000000       0.00000000      -4.51065207
Ca       0.00000000       0.00000000       2.23757576       0.00000000       0.00000000       4.51065207
2
Properties=species:S:1:pos:R:3:forces:R:3 energy=1.606324791946642 pbc="F F F"
Ca       0.00000000       0.00000000       0.00000000       0.00000000       0.00000000      -4.16348219
Ca       0.00000000       0.00000000       2.29636364       0.00000000       0.00000000       4.16348219
2
Properties=species:S:1:pos:R:3:forces:R:3 energy=1.3685839561145614 pbc="F F F"
Ca       0.00000000       0.00000000       0.00000000       0.00000000       0.00000000      -3.93936729
Ca       0.00000000       0.00000000       2.35515152       0.00000000       0.00000000       3.93936729
2
Properties=species:S:1:pos:R:3:forces:R:3 energy=1.1419351996404228 pbc="F F F"
Ca       0.00000000       0.00000000       0.00000000       0.00000000       0.00000000      -3.77776670
Ca       0.00000000       0.00000000       2.41393939       0.00000000       0.00000000       3.77776670
2
Properties=species:S:1:pos:R:3:forces:R:3 energy=0.9240464808861304 pbc="F F F"
Ca       0.00000000       0.00000000       0.00000000       0.00000000       0.00000000      -3.63501430
Ca       0.00000000       0.00000000       2.47272727       0.00000000       0.00000000       3.63501430
2
Properties=species:S:1:pos:R:3:forces:R:3 energy=0.7148113167899827 pbc="F F F"
Ca       0.00000000       0.00000000       0.00000000       0.00000000       0.00000000      -3.47900772
Ca       0.00000000       0.00000000       2.53151515       0.00000000       0.00000000       3.47900772
2
Properties=species:S:1:pos:R:3:forces:R:3 energy=0.515695744539011 pbc="F F F"
Ca       0.00000000       0.00000000       0.00000000       0.00000000       0.00000000      -3.28806472
Ca       0.00000000       0.00000000       2.59030303       0.00000000       0.00000000       3.28806472
2
Properties=species:S:1:pos:R:3:forces:R:3 energy=0.32910328780790493 pbc="F F F"
Ca       0.00000000       0.00000000       0.00000000       0.00000000       0.00000000      -3.05222130
Ca       0.00000000       0.00000000       2.64909091       0.00000000       0.00000000       3.05222130
2
Properties=species:S:1:pos:R:3:forces:R:3 energy=0.1576584812503296 pbc="F F F"
Ca       0.00000000       0.00000000       0.00000000       0.00000000       0.00000000      -2.77430129
Ca       0.00000000       0.00000000       2.70787879       0.00000000       0.00000000       2.77430129
2
Properties=species:S:1:pos:R:3:forces:R:3 energy=0.003454174125212192 pbc="F F F"
Ca       0.00000000       0.00000000       0.00000000       0.00000000       0.00000000      -2.46901226
Ca       0.00000000       0.00000000       2.76666667       0.00000000       0.00000000       2.46901226
2
Properties=species:S:1:pos:R:3:forces:R:3 energy=-0.1325430811797922 pbc="F F F"
Ca       0.00000000       0.00000000       0.00000000       0.00000000       0.00000000      -2.15899706
Ca       0.00000000       0.00000000       2.82545455       0.00000000       0.00000000       2.15899706
2
Properties=species:S:1:pos:R:3:forces:R:3 energy=-0.2507701946043359 pbc="F F F"
Ca       0.00000000       0.00000000       0.00000000       0.00000000       0.00000000      -1.86808324
Ca       0.00000000       0.00000000       2.88424242       0.00000000       0.00000000       1.86808324
2
Properties=species:S:1:pos:R:3:forces:R:3 energy=-0.3529164548340874 pbc="F F F"
Ca       0.00000000       0.00000000       0.00000000       0.00000000       0.00000000      -1.61409402
Ca       0.00000000       0.00000000       2.94303030       0.00000000       0.00000000       1.61409402
2
Properties=species:S:1:pos:R:3:forces:R:3 energy=-0.44142384126485285 pbc="F F F"
Ca       0.00000000       0.00000000       0.00000000       0.00000000       0.00000000      -1.40441275
Ca       0.00000000       0.00000000       3.00181818       0.00000000       0.00000000       1.40441275
2
Properties=species:S:1:pos:R:3:forces:R:3 energy=-0.5188574388988049 pbc="F F F"
Ca       0.00000000       0.00000000       0.00000000       0.00000000       0.00000000      -1.23622990
Ca       0.00000000       0.00000000       3.06060606       0.00000000       0.00000000       1.23622990
2
Properties=species:S:1:pos:R:3:forces:R:3 energy=-0.5874065191873157 pbc="F F F"
Ca       0.00000000       0.00000000       0.00000000       0.00000000       0.00000000      -1.10030186
Ca       0.00000000       0.00000000       3.11939394       0.00000000       0.00000000       1.10030186
2
Properties=species:S:1:pos:R:3:forces:R:3 energy=-0.6486354725013569 pbc="F F F"
Ca       0.00000000       0.00000000       0.00000000       0.00000000       0.00000000      -0.98524731
Ca       0.00000000       0.00000000       3.17818182       0.00000000       0.00000000       0.98524731
2
Properties=species:S:1:pos:R:3:forces:R:3 energy=-0.7034436437683538 pbc="F F F"
Ca       0.00000000       0.00000000       0.00000000       0.00000000       0.00000000      -0.88023674
Ca       0.00000000       0.00000000       3.23696970       0.00000000       0.00000000       0.88023674
2
Properties=species:S:1:pos:R:3:forces:R:3 energy=-0.7521484919590993 pbc="F F F"
Ca       0.00000000       0.00000000       0.00000000       0.00000000       0.00000000      -0.77629632
Ca       0.00000000       0.00000000       3.29575758       0.00000000       0.00000000       0.77629632
2
Properties=species:S:1:pos:R:3:forces:R:3 energy=-0.7946168935283757 pbc="F F F"
Ca       0.00000000       0.00000000       0.00000000       0.00000000       0.00000000      -0.66733366
Ca       0.00000000       0.00000000       3.35454545       0.00000000       0.00000000       0.66733366
2
Properties=species:S:1:pos:R:3:forces:R:3 energy=-0.8304644744342664 pbc="F F F"
Ca       0.00000000       0.00000000       0.00000000       0.00000000       0.00000000      -0.55102044
Ca       0.00000000       0.00000000       3.41333333       0.00000000       0.00000000       0.55102044
2
Properties=species:S:1:pos:R:3:forces:R:3 energy=-0.8592868231388258 pbc="F F F"
Ca       0.00000000       0.00000000       0.00000000       0.00000000       0.00000000      -0.42884514
Ca       0.00000000       0.00000000       3.47212121       0.00000000       0.00000000       0.42884514
2
Properties=species:S:1:pos:R:3:forces:R:3 energy=-0.8808541133645696 pbc="F F F"
Ca       0.00000000       0.00000000       0.00000000       0.00000000       0.00000000      -0.30505848
Ca       0.00000000       0.00000000       3.53090909       0.00000000       0.00000000       0.30505848
2
Properties=species:S:1:pos:R:3:forces:R:3 energy=-0.8952297632074087 pbc="F F F"
Ca       0.00000000       0.00000000       0.00000000       0.00000000       0.00000000      -0.18511210
Ca       0.00000000       0.00000000       3.58969697       0.00000000       0.00000000       0.18511210
2
Properties=species:S:1:pos:R:3:forces:R:3 energy=-0.9027993975392858 pbc="F F F"
Ca       0.00000000       0.00000000       0.00000000       0.00000000       0.00000000      -0.07436378
Ca       0.00000000       0.00000000       3.64848485       0.00000000       0.00000000       0.07436378
2
Properties=species:S:1:pos:R:3:forces:R:3 energy=-0.9042416991707413 pbc="F F F"
Ca       0.00000000       0.00000000       0.00000000       0.00000000       0.00000000       0.02272262
Ca       0.00000000       0.00000000       3.70727273       0.00000000       0.00000000      -0.02272262
2
Properties=species:S:1:pos:R:3:forces:R:3 energy=-0.9004585291550522 pbc="F F F"
Ca       0.00000000       0.00000000       0.00000000       0.00000000       0.00000000       0.10298486
Ca       0.00000000       0.00000000       3.76606061       0.00000000       0.00000000      -0.10298486
2
Properties=species:S:1:pos:R:3:forces:R:3 energy=-0.892496498037652 pbc="F F F"
Ca       0.00000000       0.00000000       0.00000000       0.00000000       0.00000000       0.16476090
Ca       0.00000000       0.00000000       3.82484848       0.00000000       0.00000000      -0.16476090
2
Properties=species:S:1:pos:R:3:forces:R:3 energy=-0.8814482589332143 pbc="F F F"
Ca       0.00000000       0.00000000       0.00000000       0.00000000       0.00000000       0.20815371
Ca       0.00000000       0.00000000       3.88363636       0.00000000       0.00000000      -0.20815371
2
Properties=species:S:1:pos:R:3:forces:R:3 energy=-0.8683381320386828 pbc="F F F"
Ca       0.00000000       0.00000000       0.00000000       0.00000000       0.00000000       0.23553903
Ca       0.00000000       0.00000000       3.94242424       0.00000000       0.00000000      -0.23553903
2
Properties=species:S:1:pos:R:3:forces:R:3 energy=-0.8539638844517404 pbc="F F F"
Ca       0.00000000       0.00000000       0.00000000       0.00000000       0.00000000       0.25235638
Ca       0.00000000       0.00000000       4.00121212       0.00000000       0.00000000      -0.25235638
2
Properties=species:S:1:pos:R:3:forces:R:3 energy=-0.838712831185414 pbc="F F F"
Ca       0.00000000       0.00000000       0.00000000       0.00000000       0.00000000       0.26684409
Ca       0.00000000       0.00000000       4.06000000       0.00000000       0.00000000      -0.26684409
2
Properties=species:S:1:pos:R:3:forces:R:3 energy=-0.822479136192105 pbc="F F F"
Ca       0.00000000       0.00000000       0.00000000       0.00000000       0.00000000       0.28676644
Ca       0.00000000       0.00000000       4.11878788       0.00000000       0.00000000      -0.28676644
2
Properties=species:S:1:pos:R:3:forces:R:3 energy=-0.8048366329755569 pbc="F F F"
Ca       0.00000000       0.00000000       0.00000000       0.00000000       0.00000000       0.31458408
Ca       0.00000000       0.00000000       4.17757576       0.00000000       0.00000000      -0.31458408
2
Properties=species:S:1:pos:R:3:forces:R:3 energy=-0.7854100845963009 pbc="F F F"
Ca       0.00000000       0.00000000       0.00000000       0.00000000       0.00000000       0.34647352
Ca       0.00000000       0.00000000       4.23636364       0.00000000       0.00000000      -0.34647352
2
Properties=species:S:1:pos:R:3:forces:R:3 energy=-0.7641402219613438 pbc="F F F"
Ca       0.00000000       0.00000000       0.00000000       0.00000000       0.00000000       0.37634668
Ca       0.00000000       0.00000000       4.29515152       0.00000000       0.00000000      -0.37634668
2
Properties=species:S:1:pos:R:3:forces:R:3 energy=-0.7412899340158475 pbc="F F F"
Ca       0.00000000       0.00000000       0.00000000       0.00000000       0.00000000       0.39974561
Ca       0.00000000       0.00000000       4.35393939       0.00000000       0.00000000      -0.39974561
2
Properties=species:S:1:pos:R:3:forces:R:3 energy=-0.7173068675190467 pbc="F F F"
Ca       0.00000000       0.00000000       0.00000000       0.00000000       0.00000000       0.41469687
Ca       0.00000000       0.00000000       4.41272727       0.00000000       0.00000000      -0.41469687
2
Properties=species:S:1:pos:R:3:forces:R:3 energy=-0.6927033138508132 pbc="F F F"
Ca       0.00000000       0.00000000       0.00000000       0.00000000       0.00000000       0.42089435
Ca       0.00000000       0.00000000       4.47151515       0.00000000       0.00000000      -0.42089435
2
Properties=species:S:1:pos:R:3:forces:R:3 energy=-0.667980073952769 pbc="F F F"
Ca       0.00000000       0.00000000       0.00000000       0.00000000       0.00000000       0.41891533
Ca       0.00000000       0.00000000       4.53030303       0.00000000       0.00000000      -0.41891533
2
Properties=species:S:1:pos:R:3:forces:R:3 energy=-0.6435878411802367 pbc="F F F"
Ca       0.00000000       0.00000000       0.00000000       0.00000000       0.00000000       0.40987736
Ca       0.00000000       0.00000000       4.58909091       0.00000000       0.00000000      -0.40987736
2
Properties=species:S:1:pos:R:3:forces:R:3 energy=-0.619897038233163 pbc="F F F"
Ca       0.00000000       0.00000000       0.00000000       0.00000000       0.00000000       0.39533210
Ca       0.00000000       0.00000000       4.64787879       0.00000000       0.00000000      -0.39533210
2
Properties=species:S:1:pos:R:3:forces:R:3 energy=-0.5971772953129155 pbc="F F F"
Ca       0.00000000       0.00000000       0.00000000       0.00000000       0.00000000       0.37714571
Ca       0.00000000       0.00000000       4.70666667       0.00000000       0.00000000      -0.37714571
2
Properties=species:S:1:pos:R:3:forces:R:3 energy=-0.5755865186109427 pbc="F F F"
Ca       0.00000000       0.00000000       0.00000000       0.00000000       0.00000000       0.35727066
Ca       0.00000000       0.00000000       4.76545455       0.00000000       0.00000000      -0.35727066
2
Properties=species:S:1:pos:R:3:forces:R:3 energy=-0.5551706973326891 pbc="F F F"
Ca       0.00000000       0.00000000       0.00000000       0.00000000       0.00000000       0.33736971
Ca       0.00000000       0.00000000       4.82424242       0.00000000       0.00000000      -0.33736971
2
Properties=species:S:1:pos:R:3:forces:R:3 energy=-0.5359015391436888 pbc="F F F"
Ca       0.00000000       0.00000000       0.00000000       0.00000000       0.00000000       0.31842312
Ca       0.00000000       0.00000000       4.88303030       0.00000000       0.00000000      -0.31842312
2
Properties=species:S:1:pos:R:3:forces:R:3 energy=-0.517713117043087 pbc="F F F"
Ca       0.00000000       0.00000000       0.00000000       0.00000000       0.00000000       0.30042398
Ca       0.00000000       0.00000000       4.94181818       0.00000000       0.00000000      -0.30042398
2
Properties=species:S:1:pos:R:3:forces:R:3 energy=-0.5005755518882186 pbc="F F F"
Ca       0.00000000       0.00000000       0.00000000       0.00000000       0.00000000       0.28251052
Ca       0.00000000       0.00000000       5.00060606       0.00000000       0.00000000      -0.28251052
2
Properties=species:S:1:pos:R:3:forces:R:3 energy=-0.4845086169769892 pbc="F F F"
Ca       0.00000000       0.00000000       0.00000000       0.00000000       0.00000000       0.26403618
Ca       0.00000000       0.00000000       5.05939394       0.00000000       0.00000000      -0.26403618
2
Properties=species:S:1:pos:R:3:forces:R:3 energy=-0.4695078120773298 pbc="F F F"
Ca       0.00000000       0.00000000       0.00000000       0.00000000       0.00000000       0.24693270
Ca       0.00000000       0.00000000       5.11818182       0.00000000       0.00000000      -0.24693270
2
Properties=species:S:1:pos:R:3:forces:R:3 energy=-0.45532156218503633 pbc="F F F"
Ca       0.00000000       0.00000000       0.00000000       0.00000000       0.00000000       0.23781677
Ca       0.00000000       0.00000000       5.17696970       0.00000000       0.00000000      -0.23781677
2
Properties=species:S:1:pos:R:3:forces:R:3 energy=-0.4412223708699102 pbc="F F F"
Ca       0.00000000       0.00000000       0.00000000       0.00000000       0.00000000       0.24497414
Ca       0.00000000       0.00000000       5.23575758       0.00000000       0.00000000      -0.24497414
2
Properties=species:S:1:pos:R:3:forces:R:3 energy=-0.42620493907139995 pbc="F F F"
Ca       0.00000000       0.00000000       0.00000000       0.00000000       0.00000000       0.26754060
Ca       0.00000000       0.00000000       5.29454545       0.00000000       0.00000000      -0.26754060
2
Properties=species:S:1:pos:R:3:forces:R:3 energy=-0.40978523951364837 pbc="F F F"
Ca       0.00000000       0.00000000       0.00000000       0.00000000       0.00000000       0.28899935
Ca       0.00000000       0.00000000       5.35333333       0.00000000       0.00000000      -0.28899935
2
Properties=species:S:1:pos:R:3:forces:R:3 energy=-0.3926079685232299 pbc="F F F"
Ca       0.00000000       0.00000000       0.00000000       0.00000000       0.00000000       0.29165092
Ca       0.00000000       0.00000000       5.41212121       0.00000000       0.00000000      -0.29165092
2
Properties=species:S:1:pos:R:3:forces:R:3 energy=-0.3758116504842971 pbc="F F F"
Ca       0.00000000       0.00000000       0.00000000       0.00000000       0.00000000       0.27895427
Ca       0.00000000       0.00000000       5.47090909       0.00000000       0.00000000      -0.27895427
2
Properties=species:S:1:pos:R:3:forces:R:3 energy=-0.3595956370560735 pbc="F F F"
Ca       0.00000000       0.00000000       0.00000000       0.00000000       0.00000000       0.27721626
Ca       0.00000000       0.00000000       5.52969697       0.00000000       0.00000000      -0.27721626
2
Properties=species:S:1:pos:R:3:forces:R:3 energy=-0.3424675140453471 pbc="F F F"
Ca       0.00000000       0.00000000       0.00000000       0.00000000       0.00000000       0.31256521
Ca       0.00000000       0.00000000       5.58848485       0.00000000       0.00000000      -0.31256521
2
Properties=species:S:1:pos:R:3:forces:R:3 energy=-0.32222318808410855 pbc="F F F"
Ca       0.00000000       0.00000000       0.00000000       0.00000000       0.00000000       0.37803200
Ca       0.00000000       0.00000000       5.64727273       0.00000000       0.00000000      -0.37803200
2
Properties=species:S:1:pos:R:3:forces:R:3 energy=-0.29839879221652216 pbc="F F F"
Ca       0.00000000       0.00000000       0.00000000       0.00000000       0.00000000       0.42448595
Ca       0.00000000       0.00000000       5.70606061       0.00000000       0.00000000      -0.42448595
2
Properties=species:S:1:pos:R:3:forces:R:3 energy=-0.27368436375113375 pbc="F F F"
Ca       0.00000000       0.00000000       0.00000000       0.00000000       0.00000000       0.40105540
Ca       0.00000000       0.00000000       5.76484848       0.00000000       0.00000000      -0.40105540
2
Properties=species:S:1:pos:R:3:forces:R:3 energy=-0.25271830674822865 pbc="F F F"
Ca       0.00000000       0.00000000       0.00000000       0.00000000       0.00000000       0.30363542
Ca       0.00000000       0.00000000       5.82363636       0.00000000       0.00000000      -0.30363542
2
Properties=species:S:1:pos:R:3:forces:R:3 energy=-0.23861858579950118 pbc="F F F"
Ca       0.00000000       0.00000000       0.00000000       0.00000000       0.00000000       0.17702377
Ca       0.00000000       0.00000000       5.88242424       0.00000000       0.00000000      -0.17702377
2
Properties=species:S:1:pos:R:3:forces:R:3 energy=-0.2313832383053874 pbc="F F F"
Ca       0.00000000       0.00000000       0.00000000       0.00000000       0.00000000       0.07639270
Ca       0.00000000       0.00000000       5.94121212       0.00000000       0.00000000      -0.07639270
2
Properties=species:S:1:pos:R:3:forces:R:3 energy=-0.2284001592686199 pbc="F F F"
Ca       0.00000000       0.00000000       0.00000000       0.00000000       0.00000000       0.03754949
Ca       0.00000000       0.00000000       6.00000000       0.00000000       0.00000000      -0.03754949
