2
Properties=species:S:1:pos:R:3:forces:R:3 energy=4605.128160061726 pbc="F F F"
Ge       0.00000000       0.00000000       0.00000000       0.00000000       0.00000000  -72822.61718750
Ge       0.00000000       0.00000000       0.18000000       0.00000000       0.00000000   72822.61718750
2
Properties=species:S:1:pos:R:3:forces:R:3 energy=1973.0368514679758 pbc="F F F"
Ge       0.00000000       0.00000000       0.00000000       0.00000000       0.00000000  -26104.35156250
Ge       0.00000000       0.00000000       0.23878788       0.00000000       0.00000000   26104.35156250
2
Properties=species:S:1:pos:R:3:forces:R:3 energy=955.5629745148507 pbc="F F F"
Ge       0.00000000       0.00000000       0.00000000       0.00000000       0.00000000  -11019.25097656
Ge       0.00000000       0.00000000       0.29757576       0.00000000       0.00000000   11019.25097656
2
Properties=species:S:1:pos:R:3:forces:R:3 energy=504.7794967348154 pbc="F F F"
Ge       0.00000000       0.00000000       0.00000000       0.00000000       0.00000000   -5156.45410156
Ge       0.00000000       0.00000000       0.35636364       0.00000000       0.00000000    5156.45410156
2
Properties=species:S:1:pos:R:3:forces:R:3 energy=286.96003873650636 pbc="F F F"
Ge       0.00000000       0.00000000       0.00000000       0.00000000       0.00000000   -2582.29077148
Ge       0.00000000       0.00000000       0.41515152       0.00000000       0.00000000    2582.29077148
2
Properties=species:S:1:pos:R:3:forces:R:3 energy=175.48329314687672 pbc="F F F"
Ge       0.00000000       0.00000000       0.00000000       0.00000000       0.00000000   -1352.94128418
Ge       0.00000000       0.00000000       0.47393939       0.00000000       0.00000000    1352.94128418
2
Properties=species:S:1:pos:R:3:forces:R:3 energy=116.31999361484024 pbc="F F F"
Ge       0.00000000       0.00000000       0.00000000       0.00000000       0.00000000    -726.54113770
Ge       0.00000000       0.00000000       0.53272727       0.00000000       0.00000000     726.54113770
2
Properties=species:S:1:pos:R:3:forces:R:3 energy=84.48827522070118 pbc="F F F"
Ge       0.00000000       0.00000000       0.00000000       0.00000000       0.00000000    -389.72677612
Ge       0.00000000       0.00000000       0.59151515       0.00000000       0.00000000     389.72677612
2
Properties=species:S:1:pos:R:3:forces:R:3 energy=67.61603715022052 pbc="F F F"
Ge       0.00000000       0.00000000       0.00000000       0.00000000       0.00000000    -202.23828125
Ge       0.00000000       0.00000000       0.65030303       0.00000000       0.00000000     202.23828125
2
Properties=species:S:1:pos:R:3:forces:R:3 energy=59.08647337946045 pbc="F F F"
Ge       0.00000000       0.00000000       0.00000000       0.00000000       0.00000000     -98.73636627
Ge       0.00000000       0.00000000       0.70909091       0.00000000       0.00000000      98.73636627
2
Properties=species:S:1:pos:R:3:forces:R:3 energy=54.95405399918725 pbc="F F F"
Ge       0.00000000       0.00000000       0.00000000       0.00000000       0.00000000     -49.39976120
Ge       0.00000000       0.00000000       0.76787879       0.00000000       0.00000000      49.39976120
2
Properties=species:S:1:pos:R:3:forces:R:3 energy=52.528650708327476 pbc="F F F"
Ge       0.00000000       0.00000000       0.00000000       0.00000000       0.00000000     -38.29254913
Ge       0.00000000       0.00000000       0.82666667       0.00000000       0.00000000      38.29254913
2
Properties=species:S:1:pos:R:3:forces:R:3 energy=49.99420442601052 pbc="F F F"
Ge       0.00000000       0.00000000       0.00000000       0.00000000       0.00000000     -50.50247192
Ge       0.00000000       0.00000000       0.88545455       0.00000000       0.00000000      50.50247192
2
Properties=species:S:1:pos:R:3:forces:R:3 energy=46.44855455205463 pbc="F F F"
Ge       0.00000000       0.00000000       0.00000000       0.00000000       0.00000000     -69.97413635
Ge       0.00000000       0.00000000       0.94424242       0.00000000       0.00000000      69.97413635
2
Properties=species:S:1:pos:R:3:forces:R:3 energy=41.918922820000304 pbc="F F F"
Ge       0.00000000       0.00000000       0.00000000       0.00000000       0.00000000     -82.05349731
Ge       0.00000000       0.00000000       1.00303030       0.00000000       0.00000000      82.05349731
2
Properties=species:S:1:pos:R:3:forces:R:3 energy=37.04117736888156 pbc="F F F"
Ge       0.00000000       0.00000000       0.00000000       0.00000000       0.00000000     -82.36022949
Ge       0.00000000       0.00000000       1.06181818       0.00000000       0.00000000      82.36022949
2
Properties=species:S:1:pos:R:3:forces:R:3 energy=32.32778088752511 pbc="F F F"
Ge       0.00000000       0.00000000       0.00000000       0.00000000       0.00000000     -77.80506134
Ge       0.00000000       0.00000000       1.12060606       0.00000000       0.00000000      77.80506134
2
Properties=species:S:1:pos:R:3:forces:R:3 energy=27.884959444708485 pbc="F F F"
Ge       0.00000000       0.00000000       0.00000000       0.00000000       0.00000000     -73.50182343
Ge       0.00000000       0.00000000       1.17939394       0.00000000       0.00000000      73.50182343
2
Properties=species:S:1:pos:R:3:forces:R:3 energy=23.666681189897698 pbc="F F F"
Ge       0.00000000       0.00000000       0.00000000       0.00000000       0.00000000     -70.17292023
Ge       0.00000000       0.00000000       1.23818182       0.00000000       0.00000000      70.17292023
2
Properties=species:S:1:pos:R:3:forces:R:3 energy=19.619410804218962 pbc="F F F"
Ge       0.00000000       0.00000000       0.00000000       0.00000000       0.00000000     -67.53689575
Ge       0.00000000       0.00000000       1.29696970       0.00000000       0.00000000      67.53689575
2
Properties=species:S:1:pos:R:3:forces:R:3 energy=15.746709456457385 pbc="F F F"
Ge       0.00000000       0.00000000       0.00000000       0.00000000       0.00000000     -63.84375763
Ge       0.00000000       0.00000000       1.35575758       0.00000000       0.00000000      63.84375763
2
Properties=species:S:1:pos:R:3:forces:R:3 energy=12.167076123028238 pbc="F F F"
Ge       0.00000000       0.00000000       0.00000000       0.00000000       0.00000000     -57.48969269
Ge       0.00000000       0.00000000       1.41454545       0.00000000       0.00000000      57.48969269
2
Properties=species:S:1:pos:R:3:forces:R:3 energy=9.024664611146312 pbc="F F F"
Ge       0.00000000       0.00000000       0.00000000       0.00000000       0.00000000     -49.26063156
Ge       0.00000000       0.00000000       1.47333333       0.00000000       0.00000000      49.26063156
2
Properties=species:S:1:pos:R:3:forces:R:3 energy=6.376578315441722 pbc="F F F"
Ge       0.00000000       0.00000000       0.00000000       0.00000000       0.00000000     -40.92703629
Ge       0.00000000       0.00000000       1.53212121       0.00000000       0.00000000      40.92703629
2
Properties=species:S:1:pos:R:3:forces:R:3 energy=4.19452675658316 pbc="F F F"
Ge       0.00000000       0.00000000       0.00000000       0.00000000       0.00000000     -33.49077988
Ge       0.00000000       0.00000000       1.59090909       0.00000000       0.00000000      33.49077988
2
Properties=species:S:1:pos:R:3:forces:R:3 energy=2.416680439643053 pbc="F F F"
Ge       0.00000000       0.00000000       0.00000000       0.00000000       0.00000000     -27.18112755
Ge       0.00000000       0.00000000       1.64969697       0.00000000       0.00000000      27.18112755
2
Properties=species:S:1:pos:R:3:forces:R:3 energy=0.9770800020735598 pbc="F F F"
Ge       0.00000000       0.00000000       0.00000000       0.00000000       0.00000000     -21.97091103
Ge       0.00000000       0.00000000       1.70848485       0.00000000       0.00000000      21.97091103
2
Properties=species:S:1:pos:R:3:forces:R:3 energy=-0.18584131261077236 pbc="F F F"
Ge       0.00000000       0.00000000       0.00000000       0.00000000       0.00000000     -17.74146461
Ge       0.00000000       0.00000000       1.76727273       0.00000000       0.00000000      17.74146461
2
Properties=species:S:1:pos:R:3:forces:R:3 energy=-1.124470838657272 pbc="F F F"
Ge       0.00000000       0.00000000       0.00000000       0.00000000       0.00000000     -14.30906010
Ge       0.00000000       0.00000000       1.82606061       0.00000000       0.00000000      14.30906010
2
Properties=species:S:1:pos:R:3:forces:R:3 energy=-1.8807173218949118 pbc="F F F"
Ge       0.00000000       0.00000000       0.00000000       0.00000000       0.00000000     -11.51573849
Ge       0.00000000       0.00000000       1.88484848       0.00000000       0.00000000      11.51573849
2
Properties=species:S:1:pos:R:3:forces:R:3 energy=-2.4890217455789343 pbc="F F F"
Ge       0.00000000       0.00000000       0.00000000       0.00000000       0.00000000      -9.26229763
Ge       0.00000000       0.00000000       1.94363636       0.00000000       0.00000000       9.26229763
2
Properties=species:S:1:pos:R:3:forces:R:3 energy=-2.9786548732031193 pbc="F F F"
Ge       0.00000000       0.00000000       0.00000000       0.00000000       0.00000000      -7.46310568
Ge       0.00000000       0.00000000       2.00242424       0.00000000       0.00000000       7.46310568
2
Properties=species:S:1:pos:R:3:forces:R:3 energy=-3.373390420977347 pbc="F F F"
Ge       0.00000000       0.00000000       0.00000000       0.00000000       0.00000000      -6.01550531
Ge       0.00000000       0.00000000       2.06121212       0.00000000       0.00000000       6.01550531
2
Properties=species:S:1:pos:R:3:forces:R:3 energy=-3.6907458043589796 pbc="F F F"
Ge       0.00000000       0.00000000       0.00000000       0.00000000       0.00000000      -4.81439161
Ge       0.00000000       0.00000000       2.12000000       0.00000000       0.00000000       4.81439161
2
Properties=species:S:1:pos:R:3:forces:R:3 energy=-3.9426340979931918 pbc="F F F"
Ge       0.00000000       0.00000000       0.00000000       0.00000000       0.00000000      -3.77702451
Ge       0.00000000       0.00000000       2.17878788       0.00000000       0.00000000       3.77702451
2
Properties=species:S:1:pos:R:3:forces:R:3 energy=-4.136987974347318 pbc="F F F"
Ge       0.00000000       0.00000000       0.00000000       0.00000000       0.00000000      -2.85037494
Ge       0.00000000       0.00000000       2.23757576       0.00000000       0.00000000       2.85037494
2
Properties=species:S:1:pos:R:3:forces:R:3 energy=-4.279327369224885 pbc="F F F"
Ge       0.00000000       0.00000000       0.00000000       0.00000000       0.00000000      -2.00364828
Ge       0.00000000       0.00000000       2.29636364       0.00000000       0.00000000       2.00364828
2
Properties=species:S:1:pos:R:3:forces:R:3 energy=-4.373806342068491 pbc="F F F"
Ge       0.00000000       0.00000000       0.00000000       0.00000000       0.00000000      -1.22045743
Ge       0.00000000       0.00000000       2.35515152       0.00000000       0.00000000       1.22045743
2
Properties=species:S:1:pos:R:3:forces:R:3 energy=-4.4239873319599194 pbc="F F F"
Ge       0.00000000       0.00000000       0.00000000       0.00000000       0.00000000      -0.49717858
Ge       0.00000000       0.00000000       2.41393939       0.00000000       0.00000000       0.49717858
2
Properties=species:S:1:pos:R:3:forces:R:3 energy=-4.433605001566413 pbc="F F F"
Ge       0.00000000       0.00000000       0.00000000       0.00000000       0.00000000       0.15726474
Ge       0.00000000       0.00000000       2.47272727       0.00000000       0.00000000      -0.15726474
2
Properties=species:S:1:pos:R:3:forces:R:3 energy=-4.407156615235655 pbc="F F F"
Ge       0.00000000       0.00000000       0.00000000       0.00000000       0.00000000       0.72714013
Ge       0.00000000       0.00000000       2.53151515       0.00000000       0.00000000      -0.72714013
2
Properties=species:S:1:pos:R:3:forces:R:3 energy=-4.350034298303098 pbc="F F F"
Ge       0.00000000       0.00000000       0.00000000       0.00000000       0.00000000       1.19916856
Ge       0.00000000       0.00000000       2.59030303       0.00000000       0.00000000      -1.19916856
2
Properties=species:S:1:pos:R:3:forces:R:3 energy=-4.268191264457247 pbc="F F F"
Ge       0.00000000       0.00000000       0.00000000       0.00000000       0.00000000       1.56804967
Ge       0.00000000       0.00000000       2.64909091       0.00000000       0.00000000      -1.56804967
2
Properties=species:S:1:pos:R:3:forces:R:3 energy=-4.167637319083644 pbc="F F F"
Ge       0.00000000       0.00000000       0.00000000       0.00000000       0.00000000       1.83674550
Ge       0.00000000       0.00000000       2.70787879       0.00000000       0.00000000      -1.83674550
2
Properties=species:S:1:pos:R:3:forces:R:3 energy=-4.054025988682688 pbc="F F F"
Ge       0.00000000       0.00000000       0.00000000       0.00000000       0.00000000       2.01414418
Ge       0.00000000       0.00000000       2.76666667       0.00000000       0.00000000      -2.01414418
2
Properties=species:S:1:pos:R:3:forces:R:3 energy=-3.932362004149076 pbc="F F F"
Ge       0.00000000       0.00000000       0.00000000       0.00000000       0.00000000       2.11307693
Ge       0.00000000       0.00000000       2.82545455       0.00000000       0.00000000      -2.11307693
2
Properties=species:S:1:pos:R:3:forces:R:3 energy=-3.8068105510833714 pbc="F F F"
Ge       0.00000000       0.00000000       0.00000000       0.00000000       0.00000000       2.14916801
Ge       0.00000000       0.00000000       2.88424242       0.00000000       0.00000000      -2.14916801
2
Properties=species:S:1:pos:R:3:forces:R:3 energy=-3.6805855303437722 pbc="F F F"
Ge       0.00000000       0.00000000       0.00000000       0.00000000       0.00000000       2.13852000
Ge       0.00000000       0.00000000       2.94303030       0.00000000       0.00000000      -2.13852000
2
Properties=species:S:1:pos:R:3:forces:R:3 energy=-3.556026711920361 pbc="F F F"
Ge       0.00000000       0.00000000       0.00000000       0.00000000       0.00000000       2.09431124
Ge       0.00000000       0.00000000       3.00181818       0.00000000       0.00000000      -2.09431124
2
Properties=species:S:1:pos:R:3:forces:R:3 energy=-3.4348059775875557 pbc="F F F"
Ge       0.00000000       0.00000000       0.00000000       0.00000000       0.00000000       2.02655983
Ge       0.00000000       0.00000000       3.06060606       0.00000000       0.00000000      -2.02655983
2
Properties=species:S:1:pos:R:3:forces:R:3 energy=-3.3180432092659315 pbc="F F F"
Ge       0.00000000       0.00000000       0.00000000       0.00000000       0.00000000       1.94397640
Ge       0.00000000       0.00000000       3.11939394       0.00000000       0.00000000      -1.94397640
2
Properties=species:S:1:pos:R:3:forces:R:3 energy=-3.206385693438704 pbc="F F F"
Ge       0.00000000       0.00000000       0.00000000       0.00000000       0.00000000       1.85394347
Ge       0.00000000       0.00000000       3.17818182       0.00000000       0.00000000      -1.85394347
2
Properties=species:S:1:pos:R:3:forces:R:3 energy=-3.1001076368540725 pbc="F F F"
Ge       0.00000000       0.00000000       0.00000000       0.00000000       0.00000000       1.76164544
Ge       0.00000000       0.00000000       3.23696970       0.00000000       0.00000000      -1.76164544
2
Properties=species:S:1:pos:R:3:forces:R:3 energy=-2.9992459646387615 pbc="F F F"
Ge       0.00000000       0.00000000       0.00000000       0.00000000       0.00000000       1.66996753
Ge       0.00000000       0.00000000       3.29575758       0.00000000       0.00000000      -1.66996753
2
Properties=species:S:1:pos:R:3:forces:R:3 energy=-2.903724869511276 pbc="F F F"
Ge       0.00000000       0.00000000       0.00000000       0.00000000       0.00000000       1.58003545
Ge       0.00000000       0.00000000       3.35454545       0.00000000       0.00000000      -1.58003545
2
Properties=species:S:1:pos:R:3:forces:R:3 energy=-2.8134353627606004 pbc="F F F"
Ge       0.00000000       0.00000000       0.00000000       0.00000000       0.00000000       1.49194396
Ge       0.00000000       0.00000000       3.41333333       0.00000000       0.00000000      -1.49194396
2
Properties=species:S:1:pos:R:3:forces:R:3 energy=-2.7282784527121953 pbc="F F F"
Ge       0.00000000       0.00000000       0.00000000       0.00000000       0.00000000       1.40537643
Ge       0.00000000       0.00000000       3.47212121       0.00000000       0.00000000      -1.40537643
2
Properties=species:S:1:pos:R:3:forces:R:3 energy=-2.648173885036332 pbc="F F F"
Ge       0.00000000       0.00000000       0.00000000       0.00000000       0.00000000       1.32005179
Ge       0.00000000       0.00000000       3.53090909       0.00000000       0.00000000      -1.32005179
2
Properties=species:S:1:pos:R:3:forces:R:3 energy=-2.57304732967758 pbc="F F F"
Ge       0.00000000       0.00000000       0.00000000       0.00000000       0.00000000       1.23601699
Ge       0.00000000       0.00000000       3.58969697       0.00000000       0.00000000      -1.23601699
2
Properties=species:S:1:pos:R:3:forces:R:3 energy=-2.502812522308197 pbc="F F F"
Ge       0.00000000       0.00000000       0.00000000       0.00000000       0.00000000       1.15376508
Ge       0.00000000       0.00000000       3.64848485       0.00000000       0.00000000      -1.15376508
2
Properties=species:S:1:pos:R:3:forces:R:3 energy=-2.4373425090508856 pbc="F F F"
Ge       0.00000000       0.00000000       0.00000000       0.00000000       0.00000000       1.07410526
Ge       0.00000000       0.00000000       3.70727273       0.00000000       0.00000000      -1.07410526
2
Properties=species:S:1:pos:R:3:forces:R:3 energy=-2.3764553373643076 pbc="F F F"
Ge       0.00000000       0.00000000       0.00000000       0.00000000       0.00000000       0.99793124
Ge       0.00000000       0.00000000       3.76606061       0.00000000       0.00000000      -0.99793124
2
Properties=species:S:1:pos:R:3:forces:R:3 energy=-2.3199262050552343 pbc="F F F"
Ge       0.00000000       0.00000000       0.00000000       0.00000000       0.00000000       0.92597258
Ge       0.00000000       0.00000000       3.82484848       0.00000000       0.00000000      -0.92597258
2
Properties=species:S:1:pos:R:3:forces:R:3 energy=-2.2674934872672874 pbc="F F F"
Ge       0.00000000       0.00000000       0.00000000       0.00000000       0.00000000       0.85858184
Ge       0.00000000       0.00000000       3.88363636       0.00000000       0.00000000      -0.85858184
2
Properties=species:S:1:pos:R:3:forces:R:3 energy=-2.2188888880956834 pbc="F F F"
Ge       0.00000000       0.00000000       0.00000000       0.00000000       0.00000000       0.79573590
Ge       0.00000000       0.00000000       3.94242424       0.00000000       0.00000000      -0.79573590
2
Properties=species:S:1:pos:R:3:forces:R:3 energy=-2.173852165518336 pbc="F F F"
Ge       0.00000000       0.00000000       0.00000000       0.00000000       0.00000000       0.73712456
Ge       0.00000000       0.00000000       4.00121212       0.00000000       0.00000000      -0.73712456
2
Properties=species:S:1:pos:R:3:forces:R:3 energy=-2.1321461961158534 pbc="F F F"
Ge       0.00000000       0.00000000       0.00000000       0.00000000       0.00000000       0.68233794
Ge       0.00000000       0.00000000       4.06000000       0.00000000       0.00000000      -0.68233794
2
Properties=species:S:1:pos:R:3:forces:R:3 energy=-2.0935574075591834 pbc="F F F"
Ge       0.00000000       0.00000000       0.00000000       0.00000000       0.00000000       0.63104296
Ge       0.00000000       0.00000000       4.11878788       0.00000000       0.00000000      -0.63104296
2
Properties=species:S:1:pos:R:3:forces:R:3 energy=-2.0578847099846675 pbc="F F F"
Ge       0.00000000       0.00000000       0.00000000       0.00000000       0.00000000       0.58310175
Ge       0.00000000       0.00000000       4.17757576       0.00000000       0.00000000      -0.58310175
2
Properties=species:S:1:pos:R:3:forces:R:3 energy=-2.0249309941206155 pbc="F F F"
Ge       0.00000000       0.00000000       0.00000000       0.00000000       0.00000000       0.53859156
Ge       0.00000000       0.00000000       4.23636364       0.00000000       0.00000000      -0.53859156
2
Properties=species:S:1:pos:R:3:forces:R:3 energy=-1.9944872626125576 pbc="F F F"
Ge       0.00000000       0.00000000       0.00000000       0.00000000       0.00000000       0.49775481
Ge       0.00000000       0.00000000       4.29515152       0.00000000       0.00000000      -0.49775481
2
Properties=species:S:1:pos:R:3:forces:R:3 energy=-1.9663296276162472 pbc="F F F"
Ge       0.00000000       0.00000000       0.00000000       0.00000000       0.00000000       0.46090150
Ge       0.00000000       0.00000000       4.35393939       0.00000000       0.00000000      -0.46090150
2
Properties=species:S:1:pos:R:3:forces:R:3 energy=-1.940213866016127 pbc="F F F"
Ge       0.00000000       0.00000000       0.00000000       0.00000000       0.00000000       0.42829189
Ge       0.00000000       0.00000000       4.41272727       0.00000000       0.00000000      -0.42829189
2
Properties=species:S:1:pos:R:3:forces:R:3 energy=-1.9158861930268578 pbc="F F F"
Ge       0.00000000       0.00000000       0.00000000       0.00000000       0.00000000       0.40008295
Ge       0.00000000       0.00000000       4.47151515       0.00000000       0.00000000      -0.40008295
2
Properties=species:S:1:pos:R:3:forces:R:3 energy=-1.8930867034236043 pbc="F F F"
Ge       0.00000000       0.00000000       0.00000000       0.00000000       0.00000000       0.37628019
Ge       0.00000000       0.00000000       4.53030303       0.00000000       0.00000000      -0.37628019
2
Properties=species:S:1:pos:R:3:forces:R:3 energy=-1.871560859231349 pbc="F F F"
Ge       0.00000000       0.00000000       0.00000000       0.00000000       0.00000000       0.35675111
Ge       0.00000000       0.00000000       4.58909091       0.00000000       0.00000000      -0.35675111
2
Properties=species:S:1:pos:R:3:forces:R:3 energy=-1.8510639036364283 pbc="F F F"
Ge       0.00000000       0.00000000       0.00000000       0.00000000       0.00000000       0.34120744
Ge       0.00000000       0.00000000       4.64787879       0.00000000       0.00000000      -0.34120744
2
Properties=species:S:1:pos:R:3:forces:R:3 energy=-1.8313736326355825 pbc="F F F"
Ge       0.00000000       0.00000000       0.00000000       0.00000000       0.00000000       0.32918772
Ge       0.00000000       0.00000000       4.70666667       0.00000000       0.00000000      -0.32918772
2
Properties=species:S:1:pos:R:3:forces:R:3 energy=-1.81230304547585 pbc="F F F"
Ge       0.00000000       0.00000000       0.00000000       0.00000000       0.00000000       0.32001826
Ge       0.00000000       0.00000000       4.76545455       0.00000000       0.00000000      -0.32001826
2
Properties=species:S:1:pos:R:3:forces:R:3 energy=-1.7937093301167515 pbc="F F F"
Ge       0.00000000       0.00000000       0.00000000       0.00000000       0.00000000       0.31276006
Ge       0.00000000       0.00000000       4.82424242       0.00000000       0.00000000      -0.31276006
2
Properties=species:S:1:pos:R:3:forces:R:3 energy=-1.775517274184463 pbc="F F F"
Ge       0.00000000       0.00000000       0.00000000       0.00000000       0.00000000       0.30620518
Ge       0.00000000       0.00000000       4.88303030       0.00000000       0.00000000      -0.30620518
2
Properties=species:S:1:pos:R:3:forces:R:3 energy=-1.7577204000439135 pbc="F F F"
Ge       0.00000000       0.00000000       0.00000000       0.00000000       0.00000000       0.29898098
Ge       0.00000000       0.00000000       4.94181818       0.00000000       0.00000000      -0.29898098
2
Properties=species:S:1:pos:R:3:forces:R:3 energy=-1.7404016371071194 pbc="F F F"
Ge       0.00000000       0.00000000       0.00000000       0.00000000       0.00000000       0.28976735
Ge       0.00000000       0.00000000       5.00060606       0.00000000       0.00000000      -0.28976735
2
Properties=species:S:1:pos:R:3:forces:R:3 energy=-1.7237052533812054 pbc="F F F"
Ge       0.00000000       0.00000000       0.00000000       0.00000000       0.00000000       0.27777818
Ge       0.00000000       0.00000000       5.05939394       0.00000000       0.00000000      -0.27777818
2
Properties=species:S:1:pos:R:3:forces:R:3 energy=-1.7077867527207498 pbc="F F F"
Ge       0.00000000       0.00000000       0.00000000       0.00000000       0.00000000       0.26356089
Ge       0.00000000       0.00000000       5.11818182       0.00000000       0.00000000      -0.26356089
2
Properties=species:S:1:pos:R:3:forces:R:3 energy=-1.692711869297531 pbc="F F F"
Ge       0.00000000       0.00000000       0.00000000       0.00000000       0.00000000       0.24971271
Ge       0.00000000       0.00000000       5.17696970       0.00000000       0.00000000      -0.24971271
2
Properties=species:S:1:pos:R:3:forces:R:3 energy=-1.6783463164307162 pbc="F F F"
Ge       0.00000000       0.00000000       0.00000000       0.00000000       0.00000000       0.23994769
Ge       0.00000000       0.00000000       5.23575758       0.00000000       0.00000000      -0.23994769
2
Properties=species:S:1:pos:R:3:forces:R:3 energy=-1.6644012797700003 pbc="F F F"
Ge       0.00000000       0.00000000       0.00000000       0.00000000       0.00000000       0.23499717
Ge       0.00000000       0.00000000       5.29454545       0.00000000       0.00000000      -0.23499717
2
Properties=species:S:1:pos:R:3:forces:R:3 energy=-1.6507321731982418 pbc="F F F"
Ge       0.00000000       0.00000000       0.00000000       0.00000000       0.00000000       0.22911337
Ge       0.00000000       0.00000000       5.35333333       0.00000000       0.00000000      -0.22911337
2
Properties=species:S:1:pos:R:3:forces:R:3 energy=-1.637632643785539 pbc="F F F"
Ge       0.00000000       0.00000000       0.00000000       0.00000000       0.00000000       0.21478549
Ge       0.00000000       0.00000000       5.41212121       0.00000000       0.00000000      -0.21478549
2
Properties=species:S:1:pos:R:3:forces:R:3 energy=-1.6256492647004206 pbc="F F F"
Ge       0.00000000       0.00000000       0.00000000       0.00000000       0.00000000       0.19207139
Ge       0.00000000       0.00000000       5.47090909       0.00000000       0.00000000      -0.19207139
2
Properties=species:S:1:pos:R:3:forces:R:3 energy=-1.6150411769233353 pbc="F F F"
Ge       0.00000000       0.00000000       0.00000000       0.00000000       0.00000000       0.16982892
Ge       0.00000000       0.00000000       5.52969697       0.00000000       0.00000000      -0.16982892
2
Properties=species:S:1:pos:R:3:forces:R:3 energy=-1.6054770845751893 pbc="F F F"
Ge       0.00000000       0.00000000       0.00000000       0.00000000       0.00000000       0.15767257
Ge       0.00000000       0.00000000       5.58848485       0.00000000       0.00000000      -0.15767257
2
Properties=species:S:1:pos:R:3:forces:R:3 energy=-1.596296977120666 pbc="F F F"
Ge       0.00000000       0.00000000       0.00000000       0.00000000       0.00000000       0.15553282
Ge       0.00000000       0.00000000       5.64727273       0.00000000       0.00000000      -0.15553282
2
Properties=species:S:1:pos:R:3:forces:R:3 energy=-1.5872464498803467 pbc="F F F"
Ge       0.00000000       0.00000000       0.00000000       0.00000000       0.00000000       0.15063870
Ge       0.00000000       0.00000000       5.70606061       0.00000000       0.00000000      -0.15063870
2
Properties=species:S:1:pos:R:3:forces:R:3 energy=-1.5789036241748138 pbc="F F F"
Ge       0.00000000       0.00000000       0.00000000       0.00000000       0.00000000       0.12940639
Ge       0.00000000       0.00000000       5.76484848       0.00000000       0.00000000      -0.12940639
2
Properties=species:S:1:pos:R:3:forces:R:3 energy=-1.572359470775675 pbc="F F F"
Ge       0.00000000       0.00000000       0.00000000       0.00000000       0.00000000       0.09156129
Ge       0.00000000       0.00000000       5.82363636       0.00000000       0.00000000      -0.09156129
2
Properties=species:S:1:pos:R:3:forces:R:3 energy=-1.568235977646201 pbc="F F F"
Ge       0.00000000       0.00000000       0.00000000       0.00000000       0.00000000       0.04961155
Ge       0.00000000       0.00000000       5.88242424       0.00000000       0.00000000      -0.04961155
2
Properties=species:S:1:pos:R:3:forces:R:3 energy=-1.5663180641253693 pbc="F F F"
Ge       0.00000000       0.00000000       0.00000000       0.00000000       0.00000000       0.01803741
Ge       0.00000000       0.00000000       5.94121212       0.00000000       0.00000000      -0.01803741
2
Properties=species:S:1:pos:R:3:forces:R:3 energy=-1.5657198929339442 pbc="F F F"
Ge       0.00000000       0.00000000       0.00000000       0.00000000       0.00000000       0.00616144
Ge       0.00000000       0.00000000       6.00000000       0.00000000       0.00000000      -0.00616144
