2
Properties=species:S:1:pos:R:3:forces:R:3 energy=12939.400451629559 pbc="F F F"
Ho       0.00000000       0.00000000       0.00000000       0.00000000       0.00000000 -224023.45312500
Ho       0.00000000       0.00000000       0.18000000       0.00000000       0.00000000  224023.45312500
2
Properties=species:S:1:pos:R:3:forces:R:3 energy=5080.18707272331 pbc="F F F"
Ho       0.00000000       0.00000000       0.00000000       0.00000000       0.00000000  -74785.69531250
Ho       0.00000000       0.00000000       0.23878788       0.00000000       0.00000000   74785.69531250
2
Properties=species:S:1:pos:R:3:forces:R:3 energy=2252.054016082685 pbc="F F F"
Ho       0.00000000       0.00000000       0.00000000       0.00000000       0.00000000  -29386.29687500
Ho       0.00000000       0.00000000       0.29757576       0.00000000       0.00000000   29386.29687500
2
Properties=species:S:1:pos:R:3:forces:R:3 energy=1087.7409057311222 pbc="F F F"
Ho       0.00000000       0.00000000       0.00000000       0.00000000       0.00000000  -12775.45800781
Ho       0.00000000       0.00000000       0.35636364       0.00000000       0.00000000   12775.45800781
2
Properties=species:S:1:pos:R:3:forces:R:3 energy=564.6952514469185 pbc="F F F"
Ho       0.00000000       0.00000000       0.00000000       0.00000000       0.00000000   -5967.25146484
Ho       0.00000000       0.00000000       0.41515152       0.00000000       0.00000000    5967.25146484
2
Properties=species:S:1:pos:R:3:forces:R:3 energy=313.93685911293414 pbc="F F F"
Ho       0.00000000       0.00000000       0.00000000       0.00000000       0.00000000   -2951.72851562
Ho       0.00000000       0.00000000       0.47393939       0.00000000       0.00000000    2951.72851562
2
Properties=species:S:1:pos:R:3:forces:R:3 energy=187.11210631798826 pbc="F F F"
Ho       0.00000000       0.00000000       0.00000000       0.00000000       0.00000000   -1532.86767578
Ho       0.00000000       0.00000000       0.53272727       0.00000000       0.00000000    1532.86767578
2
Properties=species:S:1:pos:R:3:forces:R:3 energy=119.98593904596757 pbc="F F F"
Ho       0.00000000       0.00000000       0.00000000       0.00000000       0.00000000    -829.39514160
Ho       0.00000000       0.00000000       0.59151515       0.00000000       0.00000000     829.39514160
2
Properties=species:S:1:pos:R:3:forces:R:3 energy=83.10456092282459 pbc="F F F"
Ho       0.00000000       0.00000000       0.00000000       0.00000000       0.00000000    -463.46179199
Ho       0.00000000       0.00000000       0.65030303       0.00000000       0.00000000     463.46179199
2
Properties=species:S:1:pos:R:3:forces:R:3 energy=62.27621473373963 pbc="F F F"
Ho       0.00000000       0.00000000       0.00000000       0.00000000       0.00000000    -264.50976562
Ho       0.00000000       0.00000000       0.70909091       0.00000000       0.00000000     264.50976562
2
Properties=species:S:1:pos:R:3:forces:R:3 energy=50.331333395900955 pbc="F F F"
Ho       0.00000000       0.00000000       0.00000000       0.00000000       0.00000000    -152.22631836
Ho       0.00000000       0.00000000       0.76787879       0.00000000       0.00000000     152.22631836
2
Properties=species:S:1:pos:R:3:forces:R:3 energy=43.45731393782497 pbc="F F F"
Ho       0.00000000       0.00000000       0.00000000       0.00000000       0.00000000     -87.53896332
Ho       0.00000000       0.00000000       0.82666667       0.00000000       0.00000000      87.53896332
2
Properties=species:S:1:pos:R:3:forces:R:3 energy=39.49859681971676 pbc="F F F"
Ho       0.00000000       0.00000000       0.00000000       0.00000000       0.00000000     -50.67910385
Ho       0.00000000       0.00000000       0.88545455       0.00000000       0.00000000      50.67910385
2
Properties=species:S:1:pos:R:3:forces:R:3 energy=37.177620879174754 pbc="F F F"
Ho       0.00000000       0.00000000       0.00000000       0.00000000       0.00000000     -30.32134056
Ho       0.00000000       0.00000000       0.94424242       0.00000000       0.00000000      30.32134056
2
Properties=species:S:1:pos:R:3:forces:R:3 energy=35.753625338318884 pbc="F F F"
Ho       0.00000000       0.00000000       0.00000000       0.00000000       0.00000000     -19.27567482
Ho       0.00000000       0.00000000       1.00303030       0.00000000       0.00000000      19.27567482
2
Properties=species:S:1:pos:R:3:forces:R:3 energy=34.799997381159095 pbc="F F F"
Ho       0.00000000       0.00000000       0.00000000       0.00000000       0.00000000     -13.98983669
Ho       0.00000000       0.00000000       1.06181818       0.00000000       0.00000000      13.98983669
2
Properties=species:S:1:pos:R:3:forces:R:3 energy=34.01898467800945 pbc="F F F"
Ho       0.00000000       0.00000000       0.00000000       0.00000000       0.00000000     -13.29928970
Ho       0.00000000       0.00000000       1.12060606       0.00000000       0.00000000      13.29928970
2
Properties=species:S:1:pos:R:3:forces:R:3 energy=33.156932774232075 pbc="F F F"
Ho       0.00000000       0.00000000       0.00000000       0.00000000       0.00000000     -16.65048790
Ho       0.00000000       0.00000000       1.17939394       0.00000000       0.00000000      16.65048790
2
Properties=species:S:1:pos:R:3:forces:R:3 energy=31.996316276348235 pbc="F F F"
Ho       0.00000000       0.00000000       0.00000000       0.00000000       0.00000000     -23.29888344
Ho       0.00000000       0.00000000       1.23818182       0.00000000       0.00000000      23.29888344
2
Properties=species:S:1:pos:R:3:forces:R:3 energy=30.37702284139036 pbc="F F F"
Ho       0.00000000       0.00000000       0.00000000       0.00000000       0.00000000     -32.00320053
Ho       0.00000000       0.00000000       1.29696970       0.00000000       0.00000000      32.00320053
2
Properties=species:S:1:pos:R:3:forces:R:3 energy=28.224614462964695 pbc="F F F"
Ho       0.00000000       0.00000000       0.00000000       0.00000000       0.00000000     -41.16650009
Ho       0.00000000       0.00000000       1.35575758       0.00000000       0.00000000      41.16650009
2
Properties=species:S:1:pos:R:3:forces:R:3 energy=25.55993476097221 pbc="F F F"
Ho       0.00000000       0.00000000       0.00000000       0.00000000       0.00000000     -49.13729477
Ho       0.00000000       0.00000000       1.41454545       0.00000000       0.00000000      49.13729477
2
Properties=species:S:1:pos:R:3:forces:R:3 energy=22.508351929726775 pbc="F F F"
Ho       0.00000000       0.00000000       0.00000000       0.00000000       0.00000000     -53.98822021
Ho       0.00000000       0.00000000       1.47333333       0.00000000       0.00000000      53.98822021
2
Properties=species:S:1:pos:R:3:forces:R:3 energy=19.30681030722096 pbc="F F F"
Ho       0.00000000       0.00000000       0.00000000       0.00000000       0.00000000     -54.10000229
Ho       0.00000000       0.00000000       1.53212121       0.00000000       0.00000000      54.10000229
2
Properties=species:S:1:pos:R:3:forces:R:3 energy=16.22877614306843 pbc="F F F"
Ho       0.00000000       0.00000000       0.00000000       0.00000000       0.00000000     -50.16100693
Ho       0.00000000       0.00000000       1.59090909       0.00000000       0.00000000      50.16100693
2
Properties=species:S:1:pos:R:3:forces:R:3 energy=13.430120026946721 pbc="F F F"
Ho       0.00000000       0.00000000       0.00000000       0.00000000       0.00000000     -45.09669495
Ho       0.00000000       0.00000000       1.64969697       0.00000000       0.00000000      45.09669495
2
Properties=species:S:1:pos:R:3:forces:R:3 energy=10.910689573705822 pbc="F F F"
Ho       0.00000000       0.00000000       0.00000000       0.00000000       0.00000000     -40.75774002
Ho       0.00000000       0.00000000       1.70848485       0.00000000       0.00000000      40.75774002
2
Properties=species:S:1:pos:R:3:forces:R:3 energy=8.626926852687527 pbc="F F F"
Ho       0.00000000       0.00000000       0.00000000       0.00000000       0.00000000     -36.98252106
Ho       0.00000000       0.00000000       1.76727273       0.00000000       0.00000000      36.98252106
2
Properties=species:S:1:pos:R:3:forces:R:3 energy=6.561064687965799 pbc="F F F"
Ho       0.00000000       0.00000000       0.00000000       0.00000000       0.00000000     -33.28526306
Ho       0.00000000       0.00000000       1.82606061       0.00000000       0.00000000      33.28526306
2
Properties=species:S:1:pos:R:3:forces:R:3 energy=4.717330958539751 pbc="F F F"
Ho       0.00000000       0.00000000       0.00000000       0.00000000       0.00000000     -29.39274406
Ho       0.00000000       0.00000000       1.88484848       0.00000000       0.00000000      29.39274406
2
Properties=species:S:1:pos:R:3:forces:R:3 energy=3.1108827144309523 pbc="F F F"
Ho       0.00000000       0.00000000       0.00000000       0.00000000       0.00000000     -25.22145653
Ho       0.00000000       0.00000000       1.94363636       0.00000000       0.00000000      25.22145653
2
Properties=species:S:1:pos:R:3:forces:R:3 energy=1.7537489919170282 pbc="F F F"
Ho       0.00000000       0.00000000       0.00000000       0.00000000       0.00000000     -20.95896721
Ho       0.00000000       0.00000000       2.00242424       0.00000000       0.00000000      20.95896721
2
Properties=species:S:1:pos:R:3:forces:R:3 energy=0.6426878319322117 pbc="F F F"
Ho       0.00000000       0.00000000       0.00000000       0.00000000       0.00000000     -16.89178085
Ho       0.00000000       0.00000000       2.06121212       0.00000000       0.00000000      16.89178085
2
Properties=species:S:1:pos:R:3:forces:R:3 energy=-0.239559331971812 pbc="F F F"
Ho       0.00000000       0.00000000       0.00000000       0.00000000       0.00000000     -13.19002342
Ho       0.00000000       0.00000000       2.12000000       0.00000000       0.00000000      13.19002342
2
Properties=species:S:1:pos:R:3:forces:R:3 energy=-0.9162963443786146 pbc="F F F"
Ho       0.00000000       0.00000000       0.00000000       0.00000000       0.00000000      -9.90347099
Ho       0.00000000       0.00000000       2.17878788       0.00000000       0.00000000       9.90347099
2
Properties=species:S:1:pos:R:3:forces:R:3 energy=-1.4124520132884133 pbc="F F F"
Ho       0.00000000       0.00000000       0.00000000       0.00000000       0.00000000      -7.05019379
Ho       0.00000000       0.00000000       2.23757576       0.00000000       0.00000000       7.05019379
2
Properties=species:S:1:pos:R:3:forces:R:3 energy=-1.7543572267604768 pbc="F F F"
Ho       0.00000000       0.00000000       0.00000000       0.00000000       0.00000000      -4.66454315
Ho       0.00000000       0.00000000       2.29636364       0.00000000       0.00000000       4.66454315
2
Properties=species:S:1:pos:R:3:forces:R:3 energy=-1.9715039425412404 pbc="F F F"
Ho       0.00000000       0.00000000       0.00000000       0.00000000       0.00000000      -2.82158542
Ho       0.00000000       0.00000000       2.35515152       0.00000000       0.00000000       2.82158542
2
Properties=species:S:1:pos:R:3:forces:R:3 energy=-2.0984471753229412 pbc="F F F"
Ho       0.00000000       0.00000000       0.00000000       0.00000000       0.00000000      -1.60448658
Ho       0.00000000       0.00000000       2.41393939       0.00000000       0.00000000       1.60448658
2
Properties=species:S:1:pos:R:3:forces:R:3 energy=-2.172127769176307 pbc="F F F"
Ho       0.00000000       0.00000000       0.00000000       0.00000000       0.00000000      -0.99261653
Ho       0.00000000       0.00000000       2.47272727       0.00000000       0.00000000       0.99261653
2
Properties=species:S:1:pos:R:3:forces:R:3 energy=-2.2236925682119906 pbc="F F F"
Ho       0.00000000       0.00000000       0.00000000       0.00000000       0.00000000      -0.81446832
Ho       0.00000000       0.00000000       2.53151515       0.00000000       0.00000000       0.81446832
2
Properties=species:S:1:pos:R:3:forces:R:3 energy=-2.2718516258081225 pbc="F F F"
Ho       0.00000000       0.00000000       0.00000000       0.00000000       0.00000000      -0.84078145
Ho       0.00000000       0.00000000       2.59030303       0.00000000       0.00000000       0.84078145
2
Properties=species:S:1:pos:R:3:forces:R:3 energy=-2.323093958417205 pbc="F F F"
Ho       0.00000000       0.00000000       0.00000000       0.00000000       0.00000000      -0.89815265
Ho       0.00000000       0.00000000       2.64909091       0.00000000       0.00000000       0.89815265
2
Properties=species:S:1:pos:R:3:forces:R:3 energy=-2.3763649806351 pbc="F F F"
Ho       0.00000000       0.00000000       0.00000000       0.00000000       0.00000000      -0.90202522
Ho       0.00000000       0.00000000       2.70787879       0.00000000       0.00000000       0.90202522
2
Properties=species:S:1:pos:R:3:forces:R:3 energy=-2.4276216545456144 pbc="F F F"
Ho       0.00000000       0.00000000       0.00000000       0.00000000       0.00000000      -0.82872325
Ho       0.00000000       0.00000000       2.76666667       0.00000000       0.00000000       0.82872325
2
Properties=species:S:1:pos:R:3:forces:R:3 energy=-2.4723552727337044 pbc="F F F"
Ho       0.00000000       0.00000000       0.00000000       0.00000000       0.00000000      -0.68188643
Ho       0.00000000       0.00000000       2.82545455       0.00000000       0.00000000       0.68188643
2
Properties=species:S:1:pos:R:3:forces:R:3 energy=-2.506630636172757 pbc="F F F"
Ho       0.00000000       0.00000000       0.00000000       0.00000000       0.00000000      -0.47584897
Ho       0.00000000       0.00000000       2.88424242       0.00000000       0.00000000       0.47584897
2
Properties=species:S:1:pos:R:3:forces:R:3 energy=-2.527541459053254 pbc="F F F"
Ho       0.00000000       0.00000000       0.00000000       0.00000000       0.00000000      -0.23105961
Ho       0.00000000       0.00000000       2.94303030       0.00000000       0.00000000       0.23105961
2
Properties=species:S:1:pos:R:3:forces:R:3 energy=-2.5335286955997365 pbc="F F F"
Ho       0.00000000       0.00000000       0.00000000       0.00000000       0.00000000       0.02735803
Ho       0.00000000       0.00000000       3.00181818       0.00000000       0.00000000      -0.02735803
2
Properties=species:S:1:pos:R:3:forces:R:3 energy=-2.524602695501375 pbc="F F F"
Ho       0.00000000       0.00000000       0.00000000       0.00000000       0.00000000       0.27159092
Ho       0.00000000       0.00000000       3.06060606       0.00000000       0.00000000      -0.27159092
2
Properties=species:S:1:pos:R:3:forces:R:3 energy=-2.502403260051323 pbc="F F F"
Ho       0.00000000       0.00000000       0.00000000       0.00000000       0.00000000       0.47487608
Ho       0.00000000       0.00000000       3.11939394       0.00000000       0.00000000      -0.47487608
2
Properties=species:S:1:pos:R:3:forces:R:3 energy=-2.4699775120587284 pbc="F F F"
Ho       0.00000000       0.00000000       0.00000000       0.00000000       0.00000000       0.61688942
Ho       0.00000000       0.00000000       3.17818182       0.00000000       0.00000000      -0.61688942
2
Properties=species:S:1:pos:R:3:forces:R:3 energy=-2.431251258502422 pbc="F F F"
Ho       0.00000000       0.00000000       0.00000000       0.00000000       0.00000000       0.68898797
Ho       0.00000000       0.00000000       3.23696970       0.00000000       0.00000000      -0.68898797
2
Properties=species:S:1:pos:R:3:forces:R:3 energy=-2.3902424349671723 pbc="F F F"
Ho       0.00000000       0.00000000       0.00000000       0.00000000       0.00000000       0.69652462
Ho       0.00000000       0.00000000       3.29575758       0.00000000       0.00000000      -0.69652462
2
Properties=species:S:1:pos:R:3:forces:R:3 energy=-2.350288203295392 pbc="F F F"
Ho       0.00000000       0.00000000       0.00000000       0.00000000       0.00000000       0.65673488
Ho       0.00000000       0.00000000       3.35454545       0.00000000       0.00000000      -0.65673488
2
Properties=species:S:1:pos:R:3:forces:R:3 energy=-2.313486286171149 pbc="F F F"
Ho       0.00000000       0.00000000       0.00000000       0.00000000       0.00000000       0.59349757
Ho       0.00000000       0.00000000       3.41333333       0.00000000       0.00000000      -0.59349757
2
Properties=species:S:1:pos:R:3:forces:R:3 energy=-2.2804838423006824 pbc="F F F"
Ho       0.00000000       0.00000000       0.00000000       0.00000000       0.00000000       0.53132689
Ho       0.00000000       0.00000000       3.47212121       0.00000000       0.00000000      -0.53132689
2
Properties=species:S:1:pos:R:3:forces:R:3 energy=-2.250591052690454 pbc="F F F"
Ho       0.00000000       0.00000000       0.00000000       0.00000000       0.00000000       0.49054846
Ho       0.00000000       0.00000000       3.53090909       0.00000000       0.00000000      -0.49054846
2
Properties=species:S:1:pos:R:3:forces:R:3 energy=-2.2221246081278117 pbc="F F F"
Ho       0.00000000       0.00000000       0.00000000       0.00000000       0.00000000       0.48430330
Ho       0.00000000       0.00000000       3.58969697       0.00000000       0.00000000      -0.48430330
2
Properties=species:S:1:pos:R:3:forces:R:3 energy=-2.1928775435013756 pbc="F F F"
Ho       0.00000000       0.00000000       0.00000000       0.00000000       0.00000000       0.51709449
Ho       0.00000000       0.00000000       3.64848485       0.00000000       0.00000000      -0.51709449
2
Properties=species:S:1:pos:R:3:forces:R:3 energy=-2.1606414251744255 pbc="F F F"
Ho       0.00000000       0.00000000       0.00000000       0.00000000       0.00000000       0.58461469
Ho       0.00000000       0.00000000       3.70727273       0.00000000       0.00000000      -0.58461469
2
Properties=species:S:1:pos:R:3:forces:R:3 energy=-2.1236862495707656 pbc="F F F"
Ho       0.00000000       0.00000000       0.00000000       0.00000000       0.00000000       0.67519838
Ho       0.00000000       0.00000000       3.76606061       0.00000000       0.00000000      -0.67519838
2
Properties=species:S:1:pos:R:3:forces:R:3 energy=-2.0811121612640555 pbc="F F F"
Ho       0.00000000       0.00000000       0.00000000       0.00000000       0.00000000       0.77305621
Ho       0.00000000       0.00000000       3.82484848       0.00000000       0.00000000      -0.77305621
2
Properties=species:S:1:pos:R:3:forces:R:3 energy=-2.0329584609536133 pbc="F F F"
Ho       0.00000000       0.00000000       0.00000000       0.00000000       0.00000000       0.86261505
Ho       0.00000000       0.00000000       3.88363636       0.00000000       0.00000000      -0.86261505
2
Properties=species:S:1:pos:R:3:forces:R:3 energy=-1.9800810076296016 pbc="F F F"
Ho       0.00000000       0.00000000       0.00000000       0.00000000       0.00000000       0.93243456
Ho       0.00000000       0.00000000       3.94242424       0.00000000       0.00000000      -0.93243456
2
Properties=species:S:1:pos:R:3:forces:R:3 energy=-1.9238185149256635 pbc="F F F"
Ho       0.00000000       0.00000000       0.00000000       0.00000000       0.00000000       0.97742826
Ho       0.00000000       0.00000000       4.00121212       0.00000000       0.00000000      -0.97742826
2
Properties=species:S:1:pos:R:3:forces:R:3 energy=-1.865626133441063 pbc="F F F"
Ho       0.00000000       0.00000000       0.00000000       0.00000000       0.00000000       0.99871927
Ho       0.00000000       0.00000000       4.06000000       0.00000000       0.00000000      -0.99871927
2
Properties=species:S:1:pos:R:3:forces:R:3 energy=-1.806754552004504 pbc="F F F"
Ho       0.00000000       0.00000000       0.00000000       0.00000000       0.00000000       1.00163984
Ho       0.00000000       0.00000000       4.11878788       0.00000000       0.00000000      -1.00163984
2
Properties=species:S:1:pos:R:3:forces:R:3 energy=-1.748085081709479 pbc="F F F"
Ho       0.00000000       0.00000000       0.00000000       0.00000000       0.00000000       0.99289322
Ho       0.00000000       0.00000000       4.17757576       0.00000000       0.00000000      -0.99289322
2
Properties=species:S:1:pos:R:3:forces:R:3 energy=-1.6901301390870718 pbc="F F F"
Ho       0.00000000       0.00000000       0.00000000       0.00000000       0.00000000       0.97808576
Ho       0.00000000       0.00000000       4.23636364       0.00000000       0.00000000      -0.97808576
2
Properties=species:S:1:pos:R:3:forces:R:3 energy=-1.633139499596812 pbc="F F F"
Ho       0.00000000       0.00000000       0.00000000       0.00000000       0.00000000       0.96039939
Ho       0.00000000       0.00000000       4.29515152       0.00000000       0.00000000      -0.96039939
2
Properties=species:S:1:pos:R:3:forces:R:3 energy=-1.5772528866852538 pbc="F F F"
Ho       0.00000000       0.00000000       0.00000000       0.00000000       0.00000000       0.94053227
Ho       0.00000000       0.00000000       4.35393939       0.00000000       0.00000000      -0.94053227
2
Properties=species:S:1:pos:R:3:forces:R:3 energy=-1.5226188919717916 pbc="F F F"
Ho       0.00000000       0.00000000       0.00000000       0.00000000       0.00000000       0.91748947
Ho       0.00000000       0.00000000       4.41272727       0.00000000       0.00000000      -0.91748947
2
Properties=species:S:1:pos:R:3:forces:R:3 energy=-1.4694708557132585 pbc="F F F"
Ho       0.00000000       0.00000000       0.00000000       0.00000000       0.00000000       0.88972223
Ho       0.00000000       0.00000000       4.47151515       0.00000000       0.00000000      -0.88972223
2
Properties=species:S:1:pos:R:3:forces:R:3 energy=-1.418123774865994 pbc="F F F"
Ho       0.00000000       0.00000000       0.00000000       0.00000000       0.00000000       0.85608929
Ho       0.00000000       0.00000000       4.53030303       0.00000000       0.00000000      -0.85608929
2
Properties=species:S:1:pos:R:3:forces:R:3 energy=-1.368934781454559 pbc="F F F"
Ho       0.00000000       0.00000000       0.00000000       0.00000000       0.00000000       0.81641841
Ho       0.00000000       0.00000000       4.58909091       0.00000000       0.00000000      -0.81641841
2
Properties=species:S:1:pos:R:3:forces:R:3 energy=-1.3222336130456593 pbc="F F F"
Ho       0.00000000       0.00000000       0.00000000       0.00000000       0.00000000       0.77170038
Ho       0.00000000       0.00000000       4.64787879       0.00000000       0.00000000      -0.77170038
2
Properties=species:S:1:pos:R:3:forces:R:3 energy=-1.2782634100807488 pbc="F F F"
Ho       0.00000000       0.00000000       0.00000000       0.00000000       0.00000000       0.72381037
Ho       0.00000000       0.00000000       4.70666667       0.00000000       0.00000000      -0.72381037
2
Properties=species:S:1:pos:R:3:forces:R:3 energy=-1.2371476885671786 pbc="F F F"
Ho       0.00000000       0.00000000       0.00000000       0.00000000       0.00000000       0.67503434
Ho       0.00000000       0.00000000       4.76545455       0.00000000       0.00000000      -0.67503434
2
Properties=species:S:1:pos:R:3:forces:R:3 energy=-1.1988730990807237 pbc="F F F"
Ho       0.00000000       0.00000000       0.00000000       0.00000000       0.00000000       0.62735456
Ho       0.00000000       0.00000000       4.82424242       0.00000000       0.00000000      -0.62735456
2
Properties=species:S:1:pos:R:3:forces:R:3 energy=-1.1633449909658011 pbc="F F F"
Ho       0.00000000       0.00000000       0.00000000       0.00000000       0.00000000       0.58180255
Ho       0.00000000       0.00000000       4.88303030       0.00000000       0.00000000      -0.58180255
2
Properties=species:S:1:pos:R:3:forces:R:3 energy=-1.130431362549449 pbc="F F F"
Ho       0.00000000       0.00000000       0.00000000       0.00000000       0.00000000       0.53808725
Ho       0.00000000       0.00000000       4.94181818       0.00000000       0.00000000      -0.53808725
2
Properties=species:S:1:pos:R:3:forces:R:3 energy=-1.1000611961339168 pbc="F F F"
Ho       0.00000000       0.00000000       0.00000000       0.00000000       0.00000000       0.49516150
Ho       0.00000000       0.00000000       5.00060606       0.00000000       0.00000000      -0.49516150
2
Properties=species:S:1:pos:R:3:forces:R:3 energy=-1.072190559376876 pbc="F F F"
Ho       0.00000000       0.00000000       0.00000000       0.00000000       0.00000000       0.45347792
Ho       0.00000000       0.00000000       5.05939394       0.00000000       0.00000000      -0.45347792
2
Properties=species:S:1:pos:R:3:forces:R:3 energy=-1.0466082892297002 pbc="F F F"
Ho       0.00000000       0.00000000       0.00000000       0.00000000       0.00000000       0.41894493
Ho       0.00000000       0.00000000       5.11818182       0.00000000       0.00000000      -0.41894493
2
Properties=species:S:1:pos:R:3:forces:R:3 energy=-1.0225393673759973 pbc="F F F"
Ho       0.00000000       0.00000000       0.00000000       0.00000000       0.00000000       0.40455756
Ho       0.00000000       0.00000000       5.17696970       0.00000000       0.00000000      -0.40455756
2
Properties=species:S:1:pos:R:3:forces:R:3 energy=-0.9984165330718088 pbc="F F F"
Ho       0.00000000       0.00000000       0.00000000       0.00000000       0.00000000       0.42147711
Ho       0.00000000       0.00000000       5.23575758       0.00000000       0.00000000      -0.42147711
2
Properties=species:S:1:pos:R:3:forces:R:3 energy=-0.9725385314999337 pbc="F F F"
Ho       0.00000000       0.00000000       0.00000000       0.00000000       0.00000000       0.46023619
Ho       0.00000000       0.00000000       5.29454545       0.00000000       0.00000000      -0.46023619
2
Properties=species:S:1:pos:R:3:forces:R:3 energy=-0.9445320800738918 pbc="F F F"
Ho       0.00000000       0.00000000       0.00000000       0.00000000       0.00000000       0.48749456
Ho       0.00000000       0.00000000       5.35333333       0.00000000       0.00000000      -0.48749456
2
Properties=species:S:1:pos:R:3:forces:R:3 energy=-0.9159808370724201 pbc="F F F"
Ho       0.00000000       0.00000000       0.00000000       0.00000000       0.00000000       0.47733858
Ho       0.00000000       0.00000000       5.41212121       0.00000000       0.00000000      -0.47733858
2
Properties=species:S:1:pos:R:3:forces:R:3 energy=-0.8888869994221766 pbc="F F F"
Ho       0.00000000       0.00000000       0.00000000       0.00000000       0.00000000       0.44402108
Ho       0.00000000       0.00000000       5.47090909       0.00000000       0.00000000      -0.44402108
2
Properties=species:S:1:pos:R:3:forces:R:3 energy=-0.8632879222773757 pbc="F F F"
Ho       0.00000000       0.00000000       0.00000000       0.00000000       0.00000000       0.43531802
Ho       0.00000000       0.00000000       5.52969697       0.00000000       0.00000000      -0.43531802
2
Properties=species:S:1:pos:R:3:forces:R:3 energy=-0.836399005643812 pbc="F F F"
Ho       0.00000000       0.00000000       0.00000000       0.00000000       0.00000000       0.49110270
Ho       0.00000000       0.00000000       5.58848485       0.00000000       0.00000000      -0.49110270
2
Properties=species:S:1:pos:R:3:forces:R:3 energy=-0.8045850938301815 pbc="F F F"
Ho       0.00000000       0.00000000       0.00000000       0.00000000       0.00000000       0.59335023
Ho       0.00000000       0.00000000       5.64727273       0.00000000       0.00000000      -0.59335023
2
Properties=species:S:1:pos:R:3:forces:R:3 energy=-0.7673670187224014 pbc="F F F"
Ho       0.00000000       0.00000000       0.00000000       0.00000000       0.00000000       0.65907264
Ho       0.00000000       0.00000000       5.70606061       0.00000000       0.00000000      -0.65907264
2
Properties=species:S:1:pos:R:3:forces:R:3 energy=-0.7293156033116373 pbc="F F F"
Ho       0.00000000       0.00000000       0.00000000       0.00000000       0.00000000       0.61123407
Ho       0.00000000       0.00000000       5.76484848       0.00000000       0.00000000      -0.61123407
2
Properties=species:S:1:pos:R:3:forces:R:3 energy=-0.6977487677192705 pbc="F F F"
Ho       0.00000000       0.00000000       0.00000000       0.00000000       0.00000000       0.45023769
Ho       0.00000000       0.00000000       5.82363636       0.00000000       0.00000000      -0.45023769
2
Properties=species:S:1:pos:R:3:forces:R:3 energy=-0.6772652850910001 pbc="F F F"
Ho       0.00000000       0.00000000       0.00000000       0.00000000       0.00000000       0.24896689
Ho       0.00000000       0.00000000       5.88242424       0.00000000       0.00000000      -0.24896689
2
Properties=species:S:1:pos:R:3:forces:R:3 energy=-0.6675765446018 pbc="F F F"
Ho       0.00000000       0.00000000       0.00000000       0.00000000       0.00000000       0.09217678
Ho       0.00000000       0.00000000       5.94121212       0.00000000       0.00000000      -0.09217678
2
Properties=species:S:1:pos:R:3:forces:R:3 energy=-0.6644688583583755 pbc="F F F"
Ho       0.00000000       0.00000000       0.00000000       0.00000000       0.00000000       0.03309826
Ho       0.00000000       0.00000000       6.00000000       0.00000000       0.00000000      -0.03309826
