2
Properties=species:S:1:pos:R:3:forces:R:3 energy=13991.375342720694 pbc="F F F"
Lu       0.00000000       0.00000000       0.00000000       0.00000000       0.00000000 -244138.45312500
Lu       0.00000000       0.00000000       0.18000000       0.00000000       0.00000000  244138.45312500
2
Properties=species:S:1:pos:R:3:forces:R:3 energy=5448.109229439443 pbc="F F F"
Lu       0.00000000       0.00000000       0.00000000       0.00000000       0.00000000  -80997.44531250
Lu       0.00000000       0.00000000       0.23878788       0.00000000       0.00000000   80997.44531250
2
Properties=species:S:1:pos:R:3:forces:R:3 energy=2393.4256356894434 pbc="F F F"
Lu       0.00000000       0.00000000       0.00000000       0.00000000       0.00000000  -31620.11328125
Lu       0.00000000       0.00000000       0.29757576       0.00000000       0.00000000   31620.11328125
2
Properties=species:S:1:pos:R:3:forces:R:3 energy=1144.181495070779 pbc="F F F"
Lu       0.00000000       0.00000000       0.00000000       0.00000000       0.00000000  -13656.24218750
Lu       0.00000000       0.00000000       0.35636364       0.00000000       0.00000000   13656.24218750
2
Properties=species:S:1:pos:R:3:forces:R:3 energy=586.6094125512477 pbc="F F F"
Lu       0.00000000       0.00000000       0.00000000       0.00000000       0.00000000   -6339.32373047
Lu       0.00000000       0.00000000       0.41515152       0.00000000       0.00000000    6339.32373047
2
Properties=species:S:1:pos:R:3:forces:R:3 energy=320.8873056303253 pbc="F F F"
Lu       0.00000000       0.00000000       0.00000000       0.00000000       0.00000000   -3118.19165039
Lu       0.00000000       0.00000000       0.47393939       0.00000000       0.00000000    3118.19165039
2
Properties=species:S:1:pos:R:3:forces:R:3 energy=187.2283548373325 pbc="F F F"
Lu       0.00000000       0.00000000       0.00000000       0.00000000       0.00000000   -1610.71887207
Lu       0.00000000       0.00000000       0.53272727       0.00000000       0.00000000    1610.71887207
2
Properties=species:S:1:pos:R:3:forces:R:3 energy=116.86382239830759 pbc="F F F"
Lu       0.00000000       0.00000000       0.00000000       0.00000000       0.00000000    -866.78656006
Lu       0.00000000       0.00000000       0.59151515       0.00000000       0.00000000     866.78656006
2
Properties=species:S:1:pos:R:3:forces:R:3 energy=78.41314648463727 pbc="F F F"
Lu       0.00000000       0.00000000       0.00000000       0.00000000       0.00000000    -481.86358643
Lu       0.00000000       0.00000000       0.65030303       0.00000000       0.00000000     481.86358643
2
Properties=species:S:1:pos:R:3:forces:R:3 energy=56.78411060462233 pbc="F F F"
Lu       0.00000000       0.00000000       0.00000000       0.00000000       0.00000000    -274.62014771
Lu       0.00000000       0.00000000       0.70909091       0.00000000       0.00000000     274.62014771
2
Properties=species:S:1:pos:R:3:forces:R:3 energy=44.34503906339049 pbc="F F F"
Lu       0.00000000       0.00000000       0.00000000       0.00000000       0.00000000    -159.47375488
Lu       0.00000000       0.00000000       0.76787879       0.00000000       0.00000000     159.47375488
2
Properties=species:S:1:pos:R:3:forces:R:3 energy=37.09194933600337 pbc="F F F"
Lu       0.00000000       0.00000000       0.00000000       0.00000000       0.00000000     -93.01848602
Lu       0.00000000       0.00000000       0.82666667       0.00000000       0.00000000      93.01848602
2
Properties=species:S:1:pos:R:3:forces:R:3 energy=32.91265118221459 pbc="F F F"
Lu       0.00000000       0.00000000       0.00000000       0.00000000       0.00000000     -52.27674103
Lu       0.00000000       0.00000000       0.88545455       0.00000000       0.00000000      52.27674103
2
Properties=species:S:1:pos:R:3:forces:R:3 energy=30.652756205967997 pbc="F F F"
Lu       0.00000000       0.00000000       0.00000000       0.00000000       0.00000000     -26.67120552
Lu       0.00000000       0.00000000       0.94424242       0.00000000       0.00000000      26.67120552
2
Properties=species:S:1:pos:R:3:forces:R:3 energy=29.567292203602257 pbc="F F F"
Lu       0.00000000       0.00000000       0.00000000       0.00000000       0.00000000     -11.78647041
Lu       0.00000000       0.00000000       1.00303030       0.00000000       0.00000000      11.78647041
2
Properties=species:S:1:pos:R:3:forces:R:3 energy=29.112565670650767 pbc="F F F"
Lu       0.00000000       0.00000000       0.00000000       0.00000000       0.00000000      -4.80998325
Lu       0.00000000       0.00000000       1.06181818       0.00000000       0.00000000       4.80998325
2
Properties=species:S:1:pos:R:3:forces:R:3 energy=28.88702064911968 pbc="F F F"
Lu       0.00000000       0.00000000       0.00000000       0.00000000       0.00000000      -3.70589304
Lu       0.00000000       0.00000000       1.12060606       0.00000000       0.00000000       3.70589304
2
Properties=species:S:1:pos:R:3:forces:R:3 energy=28.5918862661462 pbc="F F F"
Lu       0.00000000       0.00000000       0.00000000       0.00000000       0.00000000      -6.93935156
Lu       0.00000000       0.00000000       1.17939394       0.00000000       0.00000000       6.93935156
2
Properties=species:S:1:pos:R:3:forces:R:3 energy=28.013474701029548 pbc="F F F"
Lu       0.00000000       0.00000000       0.00000000       0.00000000       0.00000000     -13.11960983
Lu       0.00000000       0.00000000       1.23818182       0.00000000       0.00000000      13.11960983
2
Properties=species:S:1:pos:R:3:forces:R:3 energy=27.016795337658774 pbc="F F F"
Lu       0.00000000       0.00000000       0.00000000       0.00000000       0.00000000     -20.96433067
Lu       0.00000000       0.00000000       1.29696970       0.00000000       0.00000000      20.96433067
2
Properties=species:S:1:pos:R:3:forces:R:3 energy=25.538789398912204 pbc="F F F"
Lu       0.00000000       0.00000000       0.00000000       0.00000000       0.00000000     -29.31362915
Lu       0.00000000       0.00000000       1.35575758       0.00000000       0.00000000      29.31362915
2
Properties=species:S:1:pos:R:3:forces:R:3 energy=23.579750730520885 pbc="F F F"
Lu       0.00000000       0.00000000       0.00000000       0.00000000       0.00000000     -37.18436813
Lu       0.00000000       0.00000000       1.41454545       0.00000000       0.00000000      37.18436813
2
Properties=species:S:1:pos:R:3:forces:R:3 energy=21.192795291252978 pbc="F F F"
Lu       0.00000000       0.00000000       0.00000000       0.00000000       0.00000000     -43.72360229
Lu       0.00000000       0.00000000       1.47333333       0.00000000       0.00000000      43.72360229
2
Properties=species:S:1:pos:R:3:forces:R:3 energy=18.48395653935232 pbc="F F F"
Lu       0.00000000       0.00000000       0.00000000       0.00000000       0.00000000     -47.95610809
Lu       0.00000000       0.00000000       1.53212121       0.00000000       0.00000000      47.95610809
2
Properties=species:S:1:pos:R:3:forces:R:3 energy=15.620018926044695 pbc="F F F"
Lu       0.00000000       0.00000000       0.00000000       0.00000000       0.00000000     -48.86702347
Lu       0.00000000       0.00000000       1.59090909       0.00000000       0.00000000      48.86702347
2
Properties=species:S:1:pos:R:3:forces:R:3 energy=12.807834575285366 pbc="F F F"
Lu       0.00000000       0.00000000       0.00000000       0.00000000       0.00000000     -46.28965378
Lu       0.00000000       0.00000000       1.64969697       0.00000000       0.00000000      46.28965378
2
Properties=species:S:1:pos:R:3:forces:R:3 energy=10.22217404503956 pbc="F F F"
Lu       0.00000000       0.00000000       0.00000000       0.00000000       0.00000000     -41.43936157
Lu       0.00000000       0.00000000       1.70848485       0.00000000       0.00000000      41.43936157
2
Properties=species:S:1:pos:R:3:forces:R:3 energy=7.94969032546342 pbc="F F F"
Lu       0.00000000       0.00000000       0.00000000       0.00000000       0.00000000     -35.83755112
Lu       0.00000000       0.00000000       1.76727273       0.00000000       0.00000000      35.83755112
2
Properties=species:S:1:pos:R:3:forces:R:3 energy=6.007030055175591 pbc="F F F"
Lu       0.00000000       0.00000000       0.00000000       0.00000000       0.00000000     -30.29772949
Lu       0.00000000       0.00000000       1.82606061       0.00000000       0.00000000      30.29772949
2
Properties=species:S:1:pos:R:3:forces:R:3 energy=4.37949264236395 pbc="F F F"
Lu       0.00000000       0.00000000       0.00000000       0.00000000       0.00000000     -25.15938568
Lu       0.00000000       0.00000000       1.88484848       0.00000000       0.00000000      25.15938568
2
Properties=species:S:1:pos:R:3:forces:R:3 energy=3.0368457232164516 pbc="F F F"
Lu       0.00000000       0.00000000       0.00000000       0.00000000       0.00000000     -20.63246155
Lu       0.00000000       0.00000000       1.94363636       0.00000000       0.00000000      20.63246155
2
Properties=species:S:1:pos:R:3:forces:R:3 energy=1.9396130511354976 pbc="F F F"
Lu       0.00000000       0.00000000       0.00000000       0.00000000       0.00000000     -16.81550407
Lu       0.00000000       0.00000000       2.00242424       0.00000000       0.00000000      16.81550407
2
Properties=species:S:1:pos:R:3:forces:R:3 energy=1.0463544064781416 pbc="F F F"
Lu       0.00000000       0.00000000       0.00000000       0.00000000       0.00000000     -13.68019676
Lu       0.00000000       0.00000000       2.06121212       0.00000000       0.00000000      13.68019676
2
Properties=species:S:1:pos:R:3:forces:R:3 energy=0.31973401513275757 pbc="F F F"
Lu       0.00000000       0.00000000       0.00000000       0.00000000       0.00000000     -11.12768364
Lu       0.00000000       0.00000000       2.12000000       0.00000000       0.00000000      11.12768364
2
Properties=species:S:1:pos:R:3:forces:R:3 energy=-0.27128301586124104 pbc="F F F"
Lu       0.00000000       0.00000000       0.00000000       0.00000000       0.00000000      -9.04948330
Lu       0.00000000       0.00000000       2.17878788       0.00000000       0.00000000       9.04948330
2
Properties=species:S:1:pos:R:3:forces:R:3 energy=-0.751559659298018 pbc="F F F"
Lu       0.00000000       0.00000000       0.00000000       0.00000000       0.00000000      -7.34332657
Lu       0.00000000       0.00000000       2.23757576       0.00000000       0.00000000       7.34332657
2
Properties=species:S:1:pos:R:3:forces:R:3 energy=-1.140009142242815 pbc="F F F"
Lu       0.00000000       0.00000000       0.00000000       0.00000000       0.00000000      -5.90944672
Lu       0.00000000       0.00000000       2.29636364       0.00000000       0.00000000       5.90944672
2
Properties=species:S:1:pos:R:3:forces:R:3 energy=-1.4499956743944211 pbc="F F F"
Lu       0.00000000       0.00000000       0.00000000       0.00000000       0.00000000      -4.66192293
Lu       0.00000000       0.00000000       2.35515152       0.00000000       0.00000000       4.66192293
2
Properties=species:S:1:pos:R:3:forces:R:3 energy=-1.6907376561727294 pbc="F F F"
Lu       0.00000000       0.00000000       0.00000000       0.00000000       0.00000000      -3.54857230
Lu       0.00000000       0.00000000       2.41393939       0.00000000       0.00000000       3.54857230
2
Properties=species:S:1:pos:R:3:forces:R:3 energy=-1.8696580287864009 pbc="F F F"
Lu       0.00000000       0.00000000       0.00000000       0.00000000       0.00000000      -2.56083298
Lu       0.00000000       0.00000000       2.47272727       0.00000000       0.00000000       2.56083298
2
Properties=species:S:1:pos:R:3:forces:R:3 energy=-1.994811711405207 pbc="F F F"
Lu       0.00000000       0.00000000       0.00000000       0.00000000       0.00000000      -1.72563434
Lu       0.00000000       0.00000000       2.53151515       0.00000000       0.00000000       1.72563434
2
Properties=species:S:1:pos:R:3:forces:R:3 energy=-2.0762764919689514 pbc="F F F"
Lu       0.00000000       0.00000000       0.00000000       0.00000000       0.00000000      -1.07972538
Lu       0.00000000       0.00000000       2.59030303       0.00000000       0.00000000       1.07972538
2
Properties=species:S:1:pos:R:3:forces:R:3 energy=-2.125784122785559 pbc="F F F"
Lu       0.00000000       0.00000000       0.00000000       0.00000000       0.00000000      -0.63773209
Lu       0.00000000       0.00000000       2.64909091       0.00000000       0.00000000       0.63773209
2
Properties=species:S:1:pos:R:3:forces:R:3 energy=-2.154795480978874 pbc="F F F"
Lu       0.00000000       0.00000000       0.00000000       0.00000000       0.00000000      -0.37521914
Lu       0.00000000       0.00000000       2.70787879       0.00000000       0.00000000       0.37521914
2
Properties=species:S:1:pos:R:3:forces:R:3 energy=-2.1723443793834014 pbc="F F F"
Lu       0.00000000       0.00000000       0.00000000       0.00000000       0.00000000      -0.23716548
Lu       0.00000000       0.00000000       2.76666667       0.00000000       0.00000000       0.23716548
2
Properties=species:S:1:pos:R:3:forces:R:3 energy=-2.1838948262946705 pbc="F F F"
Lu       0.00000000       0.00000000       0.00000000       0.00000000       0.00000000      -0.16157562
Lu       0.00000000       0.00000000       2.82545455       0.00000000       0.00000000       0.16157562
2
Properties=species:S:1:pos:R:3:forces:R:3 energy=-2.1916013837253097 pbc="F F F"
Lu       0.00000000       0.00000000       0.00000000       0.00000000       0.00000000      -0.10000359
Lu       0.00000000       0.00000000       2.88424242       0.00000000       0.00000000       0.10000359
2
Properties=species:S:1:pos:R:3:forces:R:3 energy=-2.1953841991141156 pbc="F F F"
Lu       0.00000000       0.00000000       0.00000000       0.00000000       0.00000000      -0.02534725
Lu       0.00000000       0.00000000       2.94303030       0.00000000       0.00000000       0.02534725
2
Properties=species:S:1:pos:R:3:forces:R:3 energy=-2.1941497314577294 pbc="F F F"
Lu       0.00000000       0.00000000       0.00000000       0.00000000       0.00000000       0.07096446
Lu       0.00000000       0.00000000       3.00181818       0.00000000       0.00000000      -0.07096446
2
Properties=species:S:1:pos:R:3:forces:R:3 energy=-2.186682983325721 pbc="F F F"
Lu       0.00000000       0.00000000       0.00000000       0.00000000       0.00000000       0.18530750
Lu       0.00000000       0.00000000       3.06060606       0.00000000       0.00000000      -0.18530750
2
Properties=species:S:1:pos:R:3:forces:R:3 energy=-2.1722162432133425 pbc="F F F"
Lu       0.00000000       0.00000000       0.00000000       0.00000000       0.00000000       0.30695441
Lu       0.00000000       0.00000000       3.11939394       0.00000000       0.00000000      -0.30695441
2
Properties=species:S:1:pos:R:3:forces:R:3 energy=-2.1507319865067775 pbc="F F F"
Lu       0.00000000       0.00000000       0.00000000       0.00000000       0.00000000       0.42142460
Lu       0.00000000       0.00000000       3.17818182       0.00000000       0.00000000      -0.42142460
2
Properties=species:S:1:pos:R:3:forces:R:3 energy=-2.123101753809584 pbc="F F F"
Lu       0.00000000       0.00000000       0.00000000       0.00000000       0.00000000       0.51379156
Lu       0.00000000       0.00000000       3.23696970       0.00000000       0.00000000      -0.51379156
2
Properties=species:S:1:pos:R:3:forces:R:3 energy=-2.0909819550159137 pbc="F F F"
Lu       0.00000000       0.00000000       0.00000000       0.00000000       0.00000000       0.57279998
Lu       0.00000000       0.00000000       3.29575758       0.00000000       0.00000000      -0.57279998
2
Properties=species:S:1:pos:R:3:forces:R:3 energy=-2.0564882345530373 pbc="F F F"
Lu       0.00000000       0.00000000       0.00000000       0.00000000       0.00000000       0.59464872
Lu       0.00000000       0.00000000       3.35454545       0.00000000       0.00000000      -0.59464872
2
Properties=species:S:1:pos:R:3:forces:R:3 energy=-2.0217045046664164 pbc="F F F"
Lu       0.00000000       0.00000000       0.00000000       0.00000000       0.00000000       0.58411163
Lu       0.00000000       0.00000000       3.41333333       0.00000000       0.00000000      -0.58411163
2
Properties=species:S:1:pos:R:3:forces:R:3 energy=-1.988235552460135 pbc="F F F"
Lu       0.00000000       0.00000000       0.00000000       0.00000000       0.00000000       0.55196255
Lu       0.00000000       0.00000000       3.47212121       0.00000000       0.00000000      -0.55196255
2
Properties=species:S:1:pos:R:3:forces:R:3 energy=-1.956989239853082 pbc="F F F"
Lu       0.00000000       0.00000000       0.00000000       0.00000000       0.00000000       0.51047510
Lu       0.00000000       0.00000000       3.53090909       0.00000000       0.00000000      -0.51047510
2
Properties=species:S:1:pos:R:3:forces:R:3 energy=-1.928191150818489 pbc="F F F"
Lu       0.00000000       0.00000000       0.00000000       0.00000000       0.00000000       0.47016647
Lu       0.00000000       0.00000000       3.58969697       0.00000000       0.00000000      -0.47016647
2
Properties=species:S:1:pos:R:3:forces:R:3 energy=-1.9015287585965552 pbc="F F F"
Lu       0.00000000       0.00000000       0.00000000       0.00000000       0.00000000       0.43897015
Lu       0.00000000       0.00000000       3.64848485       0.00000000       0.00000000      -0.43897015
2
Properties=species:S:1:pos:R:3:forces:R:3 energy=-1.8762881334069854 pbc="F F F"
Lu       0.00000000       0.00000000       0.00000000       0.00000000       0.00000000       0.42256337
Lu       0.00000000       0.00000000       3.70727273       0.00000000       0.00000000      -0.42256337
2
Properties=species:S:1:pos:R:3:forces:R:3 energy=-1.8514843574117583 pbc="F F F"
Lu       0.00000000       0.00000000       0.00000000       0.00000000       0.00000000       0.42447871
Lu       0.00000000       0.00000000       3.76606061       0.00000000       0.00000000      -0.42447871
2
Properties=species:S:1:pos:R:3:forces:R:3 energy=-1.8259961448492028 pbc="F F F"
Lu       0.00000000       0.00000000       0.00000000       0.00000000       0.00000000       0.44588992
Lu       0.00000000       0.00000000       3.82484848       0.00000000       0.00000000      -0.44588992
2
Properties=species:S:1:pos:R:3:forces:R:3 energy=-1.798697479599931 pbc="F F F"
Lu       0.00000000       0.00000000       0.00000000       0.00000000       0.00000000       0.48569301
Lu       0.00000000       0.00000000       3.88363636       0.00000000       0.00000000      -0.48569301
2
Properties=species:S:1:pos:R:3:forces:R:3 energy=-1.7685857473341264 pbc="F F F"
Lu       0.00000000       0.00000000       0.00000000       0.00000000       0.00000000       0.54098713
Lu       0.00000000       0.00000000       3.94242424       0.00000000       0.00000000      -0.54098713
2
Properties=species:S:1:pos:R:3:forces:R:3 energy=-1.7348682941270437 pbc="F F F"
Lu       0.00000000       0.00000000       0.00000000       0.00000000       0.00000000       0.60760790
Lu       0.00000000       0.00000000       4.00121212       0.00000000       0.00000000      -0.60760790
2
Properties=species:S:1:pos:R:3:forces:R:3 energy=-1.69702435943673 pbc="F F F"
Lu       0.00000000       0.00000000       0.00000000       0.00000000       0.00000000       0.68040389
Lu       0.00000000       0.00000000       4.06000000       0.00000000       0.00000000      -0.68040389
2
Properties=species:S:1:pos:R:3:forces:R:3 energy=-1.6548649445099572 pbc="F F F"
Lu       0.00000000       0.00000000       0.00000000       0.00000000       0.00000000       0.75339186
Lu       0.00000000       0.00000000       4.11878788       0.00000000       0.00000000      -0.75339186
2
Properties=species:S:1:pos:R:3:forces:R:3 energy=-1.6085677533753473 pbc="F F F"
Lu       0.00000000       0.00000000       0.00000000       0.00000000       0.00000000       0.82000947
Lu       0.00000000       0.00000000       4.17757576       0.00000000       0.00000000      -0.82000947
2
Properties=species:S:1:pos:R:3:forces:R:3 energy=-1.558707002669358 pbc="F F F"
Lu       0.00000000       0.00000000       0.00000000       0.00000000       0.00000000       0.87357920
Lu       0.00000000       0.00000000       4.23636364       0.00000000       0.00000000      -0.87357920
2
Properties=species:S:1:pos:R:3:forces:R:3 energy=-1.5062315429798503 pbc="F F F"
Lu       0.00000000       0.00000000       0.00000000       0.00000000       0.00000000       0.90799612
Lu       0.00000000       0.00000000       4.29515152       0.00000000       0.00000000      -0.90799612
2
Properties=species:S:1:pos:R:3:forces:R:3 energy=-1.4524190277940083 pbc="F F F"
Lu       0.00000000       0.00000000       0.00000000       0.00000000       0.00000000       0.91852826
Lu       0.00000000       0.00000000       4.35393939       0.00000000       0.00000000      -0.91852826
2
Properties=species:S:1:pos:R:3:forces:R:3 energy=-1.3987570606687039 pbc="F F F"
Lu       0.00000000       0.00000000       0.00000000       0.00000000       0.00000000       0.90259594
Lu       0.00000000       0.00000000       4.41272727       0.00000000       0.00000000      -0.90259594
2
Properties=species:S:1:pos:R:3:forces:R:3 energy=-1.3468107612134022 pbc="F F F"
Lu       0.00000000       0.00000000       0.00000000       0.00000000       0.00000000       0.86045015
Lu       0.00000000       0.00000000       4.47151515       0.00000000       0.00000000      -0.86045015
2
Properties=species:S:1:pos:R:3:forces:R:3 energy=-1.2980352742202759 pbc="F F F"
Lu       0.00000000       0.00000000       0.00000000       0.00000000       0.00000000       0.79557043
Lu       0.00000000       0.00000000       4.53030303       0.00000000       0.00000000      -0.79557043
2
Properties=species:S:1:pos:R:3:forces:R:3 energy=-1.253588843162545 pbc="F F F"
Lu       0.00000000       0.00000000       0.00000000       0.00000000       0.00000000       0.71455657
Lu       0.00000000       0.00000000       4.58909091       0.00000000       0.00000000      -0.71455657
2
Properties=species:S:1:pos:R:3:forces:R:3 energy=-1.2141622026941965 pbc="F F F"
Lu       0.00000000       0.00000000       0.00000000       0.00000000       0.00000000       0.62642783
Lu       0.00000000       0.00000000       4.64787879       0.00000000       0.00000000      -0.62642783
2
Properties=species:S:1:pos:R:3:forces:R:3 energy=-1.179878769964362 pbc="F F F"
Lu       0.00000000       0.00000000       0.00000000       0.00000000       0.00000000       0.54118204
Lu       0.00000000       0.00000000       4.70666667       0.00000000       0.00000000      -0.54118204
2
Properties=species:S:1:pos:R:3:forces:R:3 energy=-1.150294411366429 pbc="F F F"
Lu       0.00000000       0.00000000       0.00000000       0.00000000       0.00000000       0.46793893
Lu       0.00000000       0.00000000       4.76545455       0.00000000       0.00000000      -0.46793893
2
Properties=species:S:1:pos:R:3:forces:R:3 energy=-1.124500238959502 pbc="F F F"
Lu       0.00000000       0.00000000       0.00000000       0.00000000       0.00000000       0.41291878
Lu       0.00000000       0.00000000       4.82424242       0.00000000       0.00000000      -0.41291878
2
Properties=species:S:1:pos:R:3:forces:R:3 energy=-1.1013501493239306 pbc="F F F"
Lu       0.00000000       0.00000000       0.00000000       0.00000000       0.00000000       0.37795183
Lu       0.00000000       0.00000000       4.88303030       0.00000000       0.00000000      -0.37795183
2
Properties=species:S:1:pos:R:3:forces:R:3 energy=-1.0797260503913215 pbc="F F F"
Lu       0.00000000       0.00000000       0.00000000       0.00000000       0.00000000       0.36003220
Lu       0.00000000       0.00000000       4.94181818       0.00000000       0.00000000      -0.36003220
2
Properties=species:S:1:pos:R:3:forces:R:3 energy=-1.0588111081431213 pbc="F F F"
Lu       0.00000000       0.00000000       0.00000000       0.00000000       0.00000000       0.35262853
Lu       0.00000000       0.00000000       5.00060606       0.00000000       0.00000000      -0.35262853
2
Properties=species:S:1:pos:R:3:forces:R:3 energy=-1.0381863809949312 pbc="F F F"
Lu       0.00000000       0.00000000       0.00000000       0.00000000       0.00000000       0.34942129
Lu       0.00000000       0.00000000       5.05939394       0.00000000       0.00000000      -0.34942129
2
Properties=species:S:1:pos:R:3:forces:R:3 energy=-1.0176599346958308 pbc="F F F"
Lu       0.00000000       0.00000000       0.00000000       0.00000000       0.00000000       0.35000905
Lu       0.00000000       0.00000000       5.11818182       0.00000000       0.00000000      -0.35000905
2
Properties=species:S:1:pos:R:3:forces:R:3 energy=-0.9967865481007783 pbc="F F F"
Lu       0.00000000       0.00000000       0.00000000       0.00000000       0.00000000       0.36340734
Lu       0.00000000       0.00000000       5.17696970       0.00000000       0.00000000      -0.36340734
2
Properties=species:S:1:pos:R:3:forces:R:3 energy=-0.974462516459652 pbc="F F F"
Lu       0.00000000       0.00000000       0.00000000       0.00000000       0.00000000       0.40022004
Lu       0.00000000       0.00000000       5.23575758       0.00000000       0.00000000      -0.40022004
2
Properties=species:S:1:pos:R:3:forces:R:3 energy=-0.9494089880655814 pbc="F F F"
Lu       0.00000000       0.00000000       0.00000000       0.00000000       0.00000000       0.45249194
Lu       0.00000000       0.00000000       5.29454545       0.00000000       0.00000000      -0.45249194
2
Properties=species:S:1:pos:R:3:forces:R:3 energy=-0.921595011893694 pbc="F F F"
Lu       0.00000000       0.00000000       0.00000000       0.00000000       0.00000000       0.48781231
Lu       0.00000000       0.00000000       5.35333333       0.00000000       0.00000000      -0.48781231
2
Properties=species:S:1:pos:R:3:forces:R:3 energy=-0.8929114798159947 pbc="F F F"
Lu       0.00000000       0.00000000       0.00000000       0.00000000       0.00000000       0.48073915
Lu       0.00000000       0.00000000       5.41212121       0.00000000       0.00000000      -0.48073915
2
Properties=species:S:1:pos:R:3:forces:R:3 energy=-0.8656388509911923 pbc="F F F"
Lu       0.00000000       0.00000000       0.00000000       0.00000000       0.00000000       0.44591823
Lu       0.00000000       0.00000000       5.47090909       0.00000000       0.00000000      -0.44591823
2
Properties=species:S:1:pos:R:3:forces:R:3 energy=-0.8401111197070413 pbc="F F F"
Lu       0.00000000       0.00000000       0.00000000       0.00000000       0.00000000       0.42968506
Lu       0.00000000       0.00000000       5.52969697       0.00000000       0.00000000      -0.42968506
2
Properties=species:S:1:pos:R:3:forces:R:3 energy=-0.8140141705088493 pbc="F F F"
Lu       0.00000000       0.00000000       0.00000000       0.00000000       0.00000000       0.46763352
Lu       0.00000000       0.00000000       5.58848485       0.00000000       0.00000000      -0.46763352
2
Properties=species:S:1:pos:R:3:forces:R:3 energy=-0.784444171921771 pbc="F F F"
Lu       0.00000000       0.00000000       0.00000000       0.00000000       0.00000000       0.53834379
Lu       0.00000000       0.00000000       5.64727273       0.00000000       0.00000000      -0.53834379
2
Properties=species:S:1:pos:R:3:forces:R:3 energy=-0.7515725799428722 pbc="F F F"
Lu       0.00000000       0.00000000       0.00000000       0.00000000       0.00000000       0.56688756
Lu       0.00000000       0.00000000       5.70606061       0.00000000       0.00000000      -0.56688756
2
Properties=species:S:1:pos:R:3:forces:R:3 energy=-0.719681376854167 pbc="F F F"
Lu       0.00000000       0.00000000       0.00000000       0.00000000       0.00000000       0.49921843
Lu       0.00000000       0.00000000       5.76484848       0.00000000       0.00000000      -0.49921843
2
Properties=species:S:1:pos:R:3:forces:R:3 energy=-0.6944344561159975 pbc="F F F"
Lu       0.00000000       0.00000000       0.00000000       0.00000000       0.00000000       0.35254085
Lu       0.00000000       0.00000000       5.82363636       0.00000000       0.00000000      -0.35254085
2
Properties=species:S:1:pos:R:3:forces:R:3 energy=-0.6786184578490352 pbc="F F F"
Lu       0.00000000       0.00000000       0.00000000       0.00000000       0.00000000       0.18940839
Lu       0.00000000       0.00000000       5.88242424       0.00000000       0.00000000      -0.18940839
2
Properties=species:S:1:pos:R:3:forces:R:3 energy=-0.6713237209875955 pbc="F F F"
Lu       0.00000000       0.00000000       0.00000000       0.00000000       0.00000000       0.06820866
Lu       0.00000000       0.00000000       5.94121212       0.00000000       0.00000000      -0.06820866
2
Properties=species:S:1:pos:R:3:forces:R:3 energy=-0.6690739320982 pbc="F F F"
Lu       0.00000000       0.00000000       0.00000000       0.00000000       0.00000000       0.02315903
Lu       0.00000000       0.00000000       6.00000000       0.00000000       0.00000000      -0.02315903
