2
Properties=species:S:1:pos:R:3:forces:R:3 energy=10853.475693257402 pbc="F F F"
Pr       0.00000000       0.00000000       0.00000000       0.00000000       0.00000000 -185313.89062500
Pr       0.00000000       0.00000000       0.18000000       0.00000000       0.00000000  185313.89062500
2
Properties=species:S:1:pos:R:3:forces:R:3 energy=4316.958603413652 pbc="F F F"
Pr       0.00000000       0.00000000       0.00000000       0.00000000       0.00000000  -62685.29687500
Pr       0.00000000       0.00000000       0.23878788       0.00000000       0.00000000   62685.29687500
2
Properties=species:S:1:pos:R:3:forces:R:3 energy=1932.639023335527 pbc="F F F"
Pr       0.00000000       0.00000000       0.00000000       0.00000000       0.00000000  -24974.85156250
Pr       0.00000000       0.00000000       0.29757576       0.00000000       0.00000000   24974.85156250
2
Properties=species:S:1:pos:R:3:forces:R:3 energy=937.027145906792 pbc="F F F"
Pr       0.00000000       0.00000000       0.00000000       0.00000000       0.00000000  -11012.44335938
Pr       0.00000000       0.00000000       0.35636364       0.00000000       0.00000000   11012.44335938
2
Properties=species:S:1:pos:R:3:forces:R:3 energy=483.4455113853077 pbc="F F F"
Pr       0.00000000       0.00000000       0.00000000       0.00000000       0.00000000   -5213.99121094
Pr       0.00000000       0.00000000       0.41515152       0.00000000       0.00000000    5213.99121094
2
Properties=species:S:1:pos:R:3:forces:R:3 energy=263.0894322837452 pbc="F F F"
Pr       0.00000000       0.00000000       0.00000000       0.00000000       0.00000000   -2612.32934570
Pr       0.00000000       0.00000000       0.47393939       0.00000000       0.00000000    2612.32934570
2
Properties=species:S:1:pos:R:3:forces:R:3 energy=150.19487054150966 pbc="F F F"
Pr       0.00000000       0.00000000       0.00000000       0.00000000       0.00000000   -1374.79895020
Pr       0.00000000       0.00000000       0.53272727       0.00000000       0.00000000    1374.79895020
2
Properties=species:S:1:pos:R:3:forces:R:3 energy=89.55005702925459 pbc="F F F"
Pr       0.00000000       0.00000000       0.00000000       0.00000000       0.00000000    -757.00183105
Pr       0.00000000       0.00000000       0.59151515       0.00000000       0.00000000     757.00183105
2
Properties=species:S:1:pos:R:3:forces:R:3 energy=55.48769822373857 pbc="F F F"
Pr       0.00000000       0.00000000       0.00000000       0.00000000       0.00000000    -435.53051758
Pr       0.00000000       0.00000000       0.65030303       0.00000000       0.00000000     435.53051758
2
Properties=species:S:1:pos:R:3:forces:R:3 energy=35.48791955220771 pbc="F F F"
Pr       0.00000000       0.00000000       0.00000000       0.00000000       0.00000000    -262.05999756
Pr       0.00000000       0.00000000       0.70909091       0.00000000       0.00000000     262.05999756
2
Properties=species:S:1:pos:R:3:forces:R:3 energy=23.21233831905731 pbc="F F F"
Pr       0.00000000       0.00000000       0.00000000       0.00000000       0.00000000    -164.29109192
Pr       0.00000000       0.00000000       0.76787879       0.00000000       0.00000000     164.29109192
2
Properties=species:S:1:pos:R:3:forces:R:3 energy=15.4616089356033 pbc="F F F"
Pr       0.00000000       0.00000000       0.00000000       0.00000000       0.00000000    -103.27774048
Pr       0.00000000       0.00000000       0.82666667       0.00000000       0.00000000     103.27774048
2
Properties=species:S:1:pos:R:3:forces:R:3 energy=10.758992497439715 pbc="F F F"
Pr       0.00000000       0.00000000       0.00000000       0.00000000       0.00000000     -58.51980209
Pr       0.00000000       0.00000000       0.88545455       0.00000000       0.00000000      58.51980209
2
Properties=species:S:1:pos:R:3:forces:R:3 energy=8.458315565407574 pbc="F F F"
Pr       0.00000000       0.00000000       0.00000000       0.00000000       0.00000000     -20.06829453
Pr       0.00000000       0.00000000       0.94424242       0.00000000       0.00000000      20.06829453
2
Properties=species:S:1:pos:R:3:forces:R:3 energy=8.411723347185484 pbc="F F F"
Pr       0.00000000       0.00000000       0.00000000       0.00000000       0.00000000      18.72192955
Pr       0.00000000       0.00000000       1.00303030       0.00000000       0.00000000     -18.72192955
2
Properties=species:S:1:pos:R:3:forces:R:3 energy=10.64891426534581 pbc="F F F"
Pr       0.00000000       0.00000000       0.00000000       0.00000000       0.00000000      56.57475662
Pr       0.00000000       0.00000000       1.06181818       0.00000000       0.00000000     -56.57475662
2
Properties=species:S:1:pos:R:3:forces:R:3 energy=14.788001888334938 pbc="F F F"
Pr       0.00000000       0.00000000       0.00000000       0.00000000       0.00000000      81.16123962
Pr       0.00000000       0.00000000       1.12060606       0.00000000       0.00000000     -81.16123962
2
Properties=species:S:1:pos:R:3:forces:R:3 energy=20.021874514054424 pbc="F F F"
Pr       0.00000000       0.00000000       0.00000000       0.00000000       0.00000000      96.54902649
Pr       0.00000000       0.00000000       1.17939394       0.00000000       0.00000000     -96.54902649
2
Properties=species:S:1:pos:R:3:forces:R:3 energy=25.88016003119109 pbc="F F F"
Pr       0.00000000       0.00000000       0.00000000       0.00000000       0.00000000      98.66788483
Pr       0.00000000       0.00000000       1.23818182       0.00000000       0.00000000     -98.66788483
2
Properties=species:S:1:pos:R:3:forces:R:3 energy=31.217253428492384 pbc="F F F"
Pr       0.00000000       0.00000000       0.00000000       0.00000000       0.00000000      80.27067566
Pr       0.00000000       0.00000000       1.29696970       0.00000000       0.00000000     -80.27067566
2
Properties=species:S:1:pos:R:3:forces:R:3 energy=34.96387794695108 pbc="F F F"
Pr       0.00000000       0.00000000       0.00000000       0.00000000       0.00000000      45.14020157
Pr       0.00000000       0.00000000       1.35575758       0.00000000       0.00000000     -45.14020157
2
Properties=species:S:1:pos:R:3:forces:R:3 energy=36.584410188207606 pbc="F F F"
Pr       0.00000000       0.00000000       0.00000000       0.00000000       0.00000000      10.95041180
Pr       0.00000000       0.00000000       1.41454545       0.00000000       0.00000000     -10.95041180
2
Properties=species:S:1:pos:R:3:forces:R:3 energy=36.303495880927585 pbc="F F F"
Pr       0.00000000       0.00000000       0.00000000       0.00000000       0.00000000     -20.08110428
Pr       0.00000000       0.00000000       1.47333333       0.00000000       0.00000000      20.08110428
2
Properties=species:S:1:pos:R:3:forces:R:3 energy=34.302340888664325 pbc="F F F"
Pr       0.00000000       0.00000000       0.00000000       0.00000000       0.00000000     -47.12941360
Pr       0.00000000       0.00000000       1.53212121       0.00000000       0.00000000      47.12941360
2
Properties=species:S:1:pos:R:3:forces:R:3 energy=30.877475196727197 pbc="F F F"
Pr       0.00000000       0.00000000       0.00000000       0.00000000       0.00000000     -68.30371857
Pr       0.00000000       0.00000000       1.59090909       0.00000000       0.00000000      68.30371857
2
Properties=species:S:1:pos:R:3:forces:R:3 energy=26.419617404583384 pbc="F F F"
Pr       0.00000000       0.00000000       0.00000000       0.00000000       0.00000000     -81.85776520
Pr       0.00000000       0.00000000       1.64969697       0.00000000       0.00000000      81.85776520
2
Properties=species:S:1:pos:R:3:forces:R:3 energy=21.457500014778187 pbc="F F F"
Pr       0.00000000       0.00000000       0.00000000       0.00000000       0.00000000     -85.06874847
Pr       0.00000000       0.00000000       1.70848485       0.00000000       0.00000000      85.06874847
2
Properties=species:S:1:pos:R:3:forces:R:3 energy=16.624569045826057 pbc="F F F"
Pr       0.00000000       0.00000000       0.00000000       0.00000000       0.00000000     -77.93647766
Pr       0.00000000       0.00000000       1.76727273       0.00000000       0.00000000      77.93647766
2
Properties=species:S:1:pos:R:3:forces:R:3 energy=12.394896241167014 pbc="F F F"
Pr       0.00000000       0.00000000       0.00000000       0.00000000       0.00000000     -65.65680695
Pr       0.00000000       0.00000000       1.82606061       0.00000000       0.00000000      65.65680695
2
Properties=species:S:1:pos:R:3:forces:R:3 energy=8.897078198087872 pbc="F F F"
Pr       0.00000000       0.00000000       0.00000000       0.00000000       0.00000000     -53.60925674
Pr       0.00000000       0.00000000       1.88484848       0.00000000       0.00000000      53.60925674
2
Properties=species:S:1:pos:R:3:forces:R:3 energy=6.056507447606191 pbc="F F F"
Pr       0.00000000       0.00000000       0.00000000       0.00000000       0.00000000     -43.32327652
Pr       0.00000000       0.00000000       1.94363636       0.00000000       0.00000000      43.32327652
2
Properties=species:S:1:pos:R:3:forces:R:3 energy=3.7687457885270614 pbc="F F F"
Pr       0.00000000       0.00000000       0.00000000       0.00000000       0.00000000     -34.80338287
Pr       0.00000000       0.00000000       2.00242424       0.00000000       0.00000000      34.80338287
2
Properties=species:S:1:pos:R:3:forces:R:3 energy=1.9315950509052526 pbc="F F F"
Pr       0.00000000       0.00000000       0.00000000       0.00000000       0.00000000     -27.94689941
Pr       0.00000000       0.00000000       2.06121212       0.00000000       0.00000000      27.94689941
2
Properties=species:S:1:pos:R:3:forces:R:3 energy=0.45825930064722864 pbc="F F F"
Pr       0.00000000       0.00000000       0.00000000       0.00000000       0.00000000     -22.34994507
Pr       0.00000000       0.00000000       2.12000000       0.00000000       0.00000000      22.34994507
2
Properties=species:S:1:pos:R:3:forces:R:3 energy=-0.7134241042052636 pbc="F F F"
Pr       0.00000000       0.00000000       0.00000000       0.00000000       0.00000000     -17.63709641
Pr       0.00000000       0.00000000       2.17878788       0.00000000       0.00000000      17.63709641
2
Properties=species:S:1:pos:R:3:forces:R:3 energy=-1.6285291412820846 pbc="F F F"
Pr       0.00000000       0.00000000       0.00000000       0.00000000       0.00000000     -13.59551716
Pr       0.00000000       0.00000000       2.23757576       0.00000000       0.00000000      13.59551716
2
Properties=species:S:1:pos:R:3:forces:R:3 energy=-2.3229385314091306 pbc="F F F"
Pr       0.00000000       0.00000000       0.00000000       0.00000000       0.00000000     -10.11890984
Pr       0.00000000       0.00000000       2.29636364       0.00000000       0.00000000      10.11890984
2
Properties=species:S:1:pos:R:3:forces:R:3 energy=-2.828917764583017 pbc="F F F"
Pr       0.00000000       0.00000000       0.00000000       0.00000000       0.00000000      -7.18671465
Pr       0.00000000       0.00000000       2.35515152       0.00000000       0.00000000       7.18671465
2
Properties=species:S:1:pos:R:3:forces:R:3 energy=-3.1789260674866564 pbc="F F F"
Pr       0.00000000       0.00000000       0.00000000       0.00000000       0.00000000      -4.81581259
Pr       0.00000000       0.00000000       2.41393939       0.00000000       0.00000000       4.81581259
2
Properties=species:S:1:pos:R:3:forces:R:3 energy=-3.406302581079407 pbc="F F F"
Pr       0.00000000       0.00000000       0.00000000       0.00000000       0.00000000      -3.01355410
Pr       0.00000000       0.00000000       2.47272727       0.00000000       0.00000000       3.01355410
2
Properties=species:S:1:pos:R:3:forces:R:3 energy=-3.5439040241647937 pbc="F F F"
Pr       0.00000000       0.00000000       0.00000000       0.00000000       0.00000000      -1.75353992
Pr       0.00000000       0.00000000       2.53151515       0.00000000       0.00000000       1.75353992
2
Properties=species:S:1:pos:R:3:forces:R:3 energy=-3.6217348887419742 pbc="F F F"
Pr       0.00000000       0.00000000       0.00000000       0.00000000       0.00000000      -0.96452862
Pr       0.00000000       0.00000000       2.59030303       0.00000000       0.00000000       0.96452862
2
Properties=species:S:1:pos:R:3:forces:R:3 energy=-3.664373333641581 pbc="F F F"
Pr       0.00000000       0.00000000       0.00000000       0.00000000       0.00000000      -0.53532565
Pr       0.00000000       0.00000000       2.64909091       0.00000000       0.00000000       0.53532565
2
Properties=species:S:1:pos:R:3:forces:R:3 energy=-3.6891944155824303 pbc="F F F"
Pr       0.00000000       0.00000000       0.00000000       0.00000000       0.00000000      -0.33706522
Pr       0.00000000       0.00000000       2.70787879       0.00000000       0.00000000       0.33706522
2
Properties=species:S:1:pos:R:3:forces:R:3 energy=-3.706190821406711 pbc="F F F"
Pr       0.00000000       0.00000000       0.00000000       0.00000000       0.00000000      -0.25145835
Pr       0.00000000       0.00000000       2.76666667       0.00000000       0.00000000       0.25145835
2
Properties=species:S:1:pos:R:3:forces:R:3 energy=-3.719206448144159 pbc="F F F"
Pr       0.00000000       0.00000000       0.00000000       0.00000000       0.00000000      -0.18981904
Pr       0.00000000       0.00000000       2.82545455       0.00000000       0.00000000       0.18981904
2
Properties=species:S:1:pos:R:3:forces:R:3 energy=-3.7278873418950775 pbc="F F F"
Pr       0.00000000       0.00000000       0.00000000       0.00000000       0.00000000      -0.09747532
Pr       0.00000000       0.00000000       2.88424242       0.00000000       0.00000000       0.09747532
2
Properties=species:S:1:pos:R:3:forces:R:3 energy=-3.729553400053783 pbc="F F F"
Pr       0.00000000       0.00000000       0.00000000       0.00000000       0.00000000       0.05094978
Pr       0.00000000       0.00000000       2.94303030       0.00000000       0.00000000      -0.05094978
2
Properties=species:S:1:pos:R:3:forces:R:3 energy=-3.720744523793562 pbc="F F F"
Pr       0.00000000       0.00000000       0.00000000       0.00000000       0.00000000       0.25753263
Pr       0.00000000       0.00000000       3.00181818       0.00000000       0.00000000      -0.25753263
2
Properties=species:S:1:pos:R:3:forces:R:3 energy=-3.6984567723859647 pbc="F F F"
Pr       0.00000000       0.00000000       0.00000000       0.00000000       0.00000000       0.50528735
Pr       0.00000000       0.00000000       3.06060606       0.00000000       0.00000000      -0.50528735
2
Properties=species:S:1:pos:R:3:forces:R:3 energy=-3.6611401172758646 pbc="F F F"
Pr       0.00000000       0.00000000       0.00000000       0.00000000       0.00000000       0.76280290
Pr       0.00000000       0.00000000       3.11939394       0.00000000       0.00000000      -0.76280290
2
Properties=species:S:1:pos:R:3:forces:R:3 energy=-3.6093202630783314 pbc="F F F"
Pr       0.00000000       0.00000000       0.00000000       0.00000000       0.00000000       0.99241430
Pr       0.00000000       0.00000000       3.17818182       0.00000000       0.00000000      -0.99241430
2
Properties=species:S:1:pos:R:3:forces:R:3 energy=-3.5456525198421254 pbc="F F F"
Pr       0.00000000       0.00000000       0.00000000       0.00000000       0.00000000       1.16148305
Pr       0.00000000       0.00000000       3.23696970       0.00000000       0.00000000      -1.16148305
2
Properties=species:S:1:pos:R:3:forces:R:3 energy=-3.4742986609111357 pbc="F F F"
Pr       0.00000000       0.00000000       0.00000000       0.00000000       0.00000000       1.25263488
Pr       0.00000000       0.00000000       3.29575758       0.00000000       0.00000000      -1.25263488
2
Properties=species:S:1:pos:R:3:forces:R:3 energy=-3.3998665027768857 pbc="F F F"
Pr       0.00000000       0.00000000       0.00000000       0.00000000       0.00000000       1.26812577
Pr       0.00000000       0.00000000       3.35454545       0.00000000       0.00000000      -1.26812577
2
Properties=species:S:1:pos:R:3:forces:R:3 energy=-3.3263178466159373 pbc="F F F"
Pr       0.00000000       0.00000000       0.00000000       0.00000000       0.00000000       1.22669029
Pr       0.00000000       0.00000000       3.41333333       0.00000000       0.00000000      -1.22669029
2
Properties=species:S:1:pos:R:3:forces:R:3 energy=-3.2562265196717286 pbc="F F F"
Pr       0.00000000       0.00000000       0.00000000       0.00000000       0.00000000       1.15510809
Pr       0.00000000       0.00000000       3.47212121       0.00000000       0.00000000      -1.15510809
2
Properties=species:S:1:pos:R:3:forces:R:3 energy=-3.1905918812405605 pbc="F F F"
Pr       0.00000000       0.00000000       0.00000000       0.00000000       0.00000000       1.07882833
Pr       0.00000000       0.00000000       3.53090909       0.00000000       0.00000000      -1.07882833
2
Properties=species:S:1:pos:R:3:forces:R:3 energy=-3.129123118988195 pbc="F F F"
Pr       0.00000000       0.00000000       0.00000000       0.00000000       0.00000000       1.01544225
Pr       0.00000000       0.00000000       3.58969697       0.00000000       0.00000000      -1.01544225
2
Properties=species:S:1:pos:R:3:forces:R:3 energy=-3.0707881011902365 pbc="F F F"
Pr       0.00000000       0.00000000       0.00000000       0.00000000       0.00000000       0.97284091
Pr       0.00000000       0.00000000       3.64848485       0.00000000       0.00000000      -0.97284091
2
Properties=species:S:1:pos:R:3:forces:R:3 energy=-3.014325887978179 pbc="F F F"
Pr       0.00000000       0.00000000       0.00000000       0.00000000       0.00000000       0.95129406
Pr       0.00000000       0.00000000       3.70727273       0.00000000       0.00000000      -0.95129406
2
Properties=species:S:1:pos:R:3:forces:R:3 energy=-2.9585975971247276 pbc="F F F"
Pr       0.00000000       0.00000000       0.00000000       0.00000000       0.00000000       0.94708395
Pr       0.00000000       0.00000000       3.76606061       0.00000000       0.00000000      -0.94708395
2
Properties=species:S:1:pos:R:3:forces:R:3 energy=-2.9027253387189726 pbc="F F F"
Pr       0.00000000       0.00000000       0.00000000       0.00000000       0.00000000       0.95548671
Pr       0.00000000       0.00000000       3.82484848       0.00000000       0.00000000      -0.95548671
2
Properties=species:S:1:pos:R:3:forces:R:3 energy=-2.8460890523684172 pbc="F F F"
Pr       0.00000000       0.00000000       0.00000000       0.00000000       0.00000000       0.97242534
Pr       0.00000000       0.00000000       3.88363636       0.00000000       0.00000000      -0.97242534
2
Properties=species:S:1:pos:R:3:forces:R:3 energy=-2.78827907690893 pbc="F F F"
Pr       0.00000000       0.00000000       0.00000000       0.00000000       0.00000000       0.99517035
Pr       0.00000000       0.00000000       3.94242424       0.00000000       0.00000000      -0.99517035
2
Properties=species:S:1:pos:R:3:forces:R:3 energy=-2.7289944193632953 pbc="F F F"
Pr       0.00000000       0.00000000       0.00000000       0.00000000       0.00000000       1.02245498
Pr       0.00000000       0.00000000       4.00121212       0.00000000       0.00000000      -1.02245498
2
Properties=species:S:1:pos:R:3:forces:R:3 energy=-2.667978607672146 pbc="F F F"
Pr       0.00000000       0.00000000       0.00000000       0.00000000       0.00000000       1.05405235
Pr       0.00000000       0.00000000       4.06000000       0.00000000       0.00000000      -1.05405235
2
Properties=species:S:1:pos:R:3:forces:R:3 energy=-2.6049802906078745 pbc="F F F"
Pr       0.00000000       0.00000000       0.00000000       0.00000000       0.00000000       1.08985376
Pr       0.00000000       0.00000000       4.11878788       0.00000000       0.00000000      -1.08985376
2
Properties=species:S:1:pos:R:3:forces:R:3 energy=-2.5397747207893273 pbc="F F F"
Pr       0.00000000       0.00000000       0.00000000       0.00000000       0.00000000       1.12883329
Pr       0.00000000       0.00000000       4.17757576       0.00000000       0.00000000      -1.12883329
2
Properties=species:S:1:pos:R:3:forces:R:3 energy=-2.472243987701365 pbc="F F F"
Pr       0.00000000       0.00000000       0.00000000       0.00000000       0.00000000       1.16836393
Pr       0.00000000       0.00000000       4.23636364       0.00000000       0.00000000      -1.16836393
2
Properties=species:S:1:pos:R:3:forces:R:3 energy=-2.4024728642995665 pbc="F F F"
Pr       0.00000000       0.00000000       0.00000000       0.00000000       0.00000000       1.20422876
Pr       0.00000000       0.00000000       4.29515152       0.00000000       0.00000000      -1.20422876
2
Properties=species:S:1:pos:R:3:forces:R:3 energy=-2.330829881998412 pbc="F F F"
Pr       0.00000000       0.00000000       0.00000000       0.00000000       0.00000000       1.23130047
Pr       0.00000000       0.00000000       4.35393939       0.00000000       0.00000000      -1.23130047
2
Properties=species:S:1:pos:R:3:forces:R:3 energy=-2.25797342818403 pbc="F F F"
Pr       0.00000000       0.00000000       0.00000000       0.00000000       0.00000000       1.24465716
Pr       0.00000000       0.00000000       4.41272727       0.00000000       0.00000000      -1.24465716
2
Properties=species:S:1:pos:R:3:forces:R:3 energy=-2.184825007655376 pbc="F F F"
Pr       0.00000000       0.00000000       0.00000000       0.00000000       0.00000000       1.24084246
Pr       0.00000000       0.00000000       4.47151515       0.00000000       0.00000000      -1.24084246
2
Properties=species:S:1:pos:R:3:forces:R:3 energy=-2.112436757921985 pbc="F F F"
Pr       0.00000000       0.00000000       0.00000000       0.00000000       0.00000000       1.21889162
Pr       0.00000000       0.00000000       4.53030303       0.00000000       0.00000000      -1.21889162
2
Properties=species:S:1:pos:R:3:forces:R:3 energy=-2.041830547173346 pbc="F F F"
Pr       0.00000000       0.00000000       0.00000000       0.00000000       0.00000000       1.18086195
Pr       0.00000000       0.00000000       4.58909091       0.00000000       0.00000000      -1.18086195
2
Properties=species:S:1:pos:R:3:forces:R:3 energy=-1.9738186351581692 pbc="F F F"
Pr       0.00000000       0.00000000       0.00000000       0.00000000       0.00000000       1.13161874
Pr       0.00000000       0.00000000       4.64787879       0.00000000       0.00000000      -1.13161874
2
Properties=species:S:1:pos:R:3:forces:R:3 energy=-1.908868834806613 pbc="F F F"
Pr       0.00000000       0.00000000       0.00000000       0.00000000       0.00000000       1.07777143
Pr       0.00000000       0.00000000       4.70666667       0.00000000       0.00000000      -1.07777143
2
Properties=species:S:1:pos:R:3:forces:R:3 energy=-1.8470553421501443 pbc="F F F"
Pr       0.00000000       0.00000000       0.00000000       0.00000000       0.00000000       1.02603447
Pr       0.00000000       0.00000000       4.76545455       0.00000000       0.00000000      -1.02603447
2
Properties=species:S:1:pos:R:3:forces:R:3 energy=-1.788093012744082 pbc="F F F"
Pr       0.00000000       0.00000000       0.00000000       0.00000000       0.00000000       0.98124707
Pr       0.00000000       0.00000000       4.82424242       0.00000000       0.00000000      -0.98124707
2
Properties=species:S:1:pos:R:3:forces:R:3 energy=-1.7315232216212952 pbc="F F F"
Pr       0.00000000       0.00000000       0.00000000       0.00000000       0.00000000       0.94469976
Pr       0.00000000       0.00000000       4.88303030       0.00000000       0.00000000      -0.94469976
2
Properties=species:S:1:pos:R:3:forces:R:3 energy=-1.6769135515234899 pbc="F F F"
Pr       0.00000000       0.00000000       0.00000000       0.00000000       0.00000000       0.91349268
Pr       0.00000000       0.00000000       4.94181818       0.00000000       0.00000000      -0.91349268
2
Properties=species:S:1:pos:R:3:forces:R:3 energy=-1.6241171796439813 pbc="F F F"
Pr       0.00000000       0.00000000       0.00000000       0.00000000       0.00000000       0.88215441
Pr       0.00000000       0.00000000       5.00060606       0.00000000       0.00000000      -0.88215441
2
Properties=species:S:1:pos:R:3:forces:R:3 energy=-1.5732563910677764 pbc="F F F"
Pr       0.00000000       0.00000000       0.00000000       0.00000000       0.00000000       0.84787440
Pr       0.00000000       0.00000000       5.05939394       0.00000000       0.00000000      -0.84787440
2
Properties=species:S:1:pos:R:3:forces:R:3 energy=-1.5243324222699495 pbc="F F F"
Pr       0.00000000       0.00000000       0.00000000       0.00000000       0.00000000       0.81896996
Pr       0.00000000       0.00000000       5.11818182       0.00000000       0.00000000      -0.81896996
2
Properties=species:S:1:pos:R:3:forces:R:3 energy=-1.4764199916246288 pbc="F F F"
Pr       0.00000000       0.00000000       0.00000000       0.00000000       0.00000000       0.81806767
Pr       0.00000000       0.00000000       5.17696970       0.00000000       0.00000000      -0.81806767
2
Properties=species:S:1:pos:R:3:forces:R:3 energy=-1.4271916773463627 pbc="F F F"
Pr       0.00000000       0.00000000       0.00000000       0.00000000       0.00000000       0.86489779
Pr       0.00000000       0.00000000       5.23575758       0.00000000       0.00000000      -0.86489779
2
Properties=species:S:1:pos:R:3:forces:R:3 energy=-1.374104628128617 pbc="F F F"
Pr       0.00000000       0.00000000       0.00000000       0.00000000       0.00000000       0.94207823
Pr       0.00000000       0.00000000       5.29454545       0.00000000       0.00000000      -0.94207823
2
Properties=species:S:1:pos:R:3:forces:R:3 energy=-1.3169998445067446 pbc="F F F"
Pr       0.00000000       0.00000000       0.00000000       0.00000000       0.00000000       0.99031609
Pr       0.00000000       0.00000000       5.35333333       0.00000000       0.00000000      -0.99031609
2
Properties=species:S:1:pos:R:3:forces:R:3 energy=-1.2591392426562804 pbc="F F F"
Pr       0.00000000       0.00000000       0.00000000       0.00000000       0.00000000       0.96607459
Pr       0.00000000       0.00000000       5.41212121       0.00000000       0.00000000      -0.96607459
2
Properties=species:S:1:pos:R:3:forces:R:3 energy=-1.2041933295127047 pbc="F F F"
Pr       0.00000000       0.00000000       0.00000000       0.00000000       0.00000000       0.90466058
Pr       0.00000000       0.00000000       5.47090909       0.00000000       0.00000000      -0.90466058
2
Properties=species:S:1:pos:R:3:forces:R:3 energy=-1.1514110986164054 pbc="F F F"
Pr       0.00000000       0.00000000       0.00000000       0.00000000       0.00000000       0.91242385
Pr       0.00000000       0.00000000       5.52969697       0.00000000       0.00000000      -0.91242385
2
Properties=species:S:1:pos:R:3:forces:R:3 energy=-1.0936191125229522 pbc="F F F"
Pr       0.00000000       0.00000000       0.00000000       0.00000000       0.00000000       1.08379865
Pr       0.00000000       0.00000000       5.58848485       0.00000000       0.00000000      -1.08379865
2
Properties=species:S:1:pos:R:3:forces:R:3 energy=-1.021262454132598 pbc="F F F"
Pr       0.00000000       0.00000000       0.00000000       0.00000000       0.00000000       1.38765669
Pr       0.00000000       0.00000000       5.64727273       0.00000000       0.00000000      -1.38765669
2
Properties=species:S:1:pos:R:3:forces:R:3 energy=-0.9317237343349174 pbc="F F F"
Pr       0.00000000       0.00000000       0.00000000       0.00000000       0.00000000       1.62767971
Pr       0.00000000       0.00000000       5.70606061       0.00000000       0.00000000      -1.62767971
2
Properties=species:S:1:pos:R:3:forces:R:3 energy=-0.8354899319411844 pbc="F F F"
Pr       0.00000000       0.00000000       0.00000000       0.00000000       0.00000000       1.58014596
Pr       0.00000000       0.00000000       5.76484848       0.00000000       0.00000000      -1.58014596
2
Properties=species:S:1:pos:R:3:forces:R:3 energy=-0.7526653480708271 pbc="F F F"
Pr       0.00000000       0.00000000       0.00000000       0.00000000       0.00000000       1.19549990
Pr       0.00000000       0.00000000       5.82363636       0.00000000       0.00000000      -1.19549990
2
Properties=species:S:1:pos:R:3:forces:R:3 energy=-0.6982655352076129 pbc="F F F"
Pr       0.00000000       0.00000000       0.00000000       0.00000000       0.00000000       0.65514368
Pr       0.00000000       0.00000000       5.88242424       0.00000000       0.00000000      -0.65514368
2
Properties=species:S:1:pos:R:3:forces:R:3 energy=-0.673588645805931 pbc="F F F"
Pr       0.00000000       0.00000000       0.00000000       0.00000000       0.00000000       0.21427281
Pr       0.00000000       0.00000000       5.94121212       0.00000000       0.00000000      -0.21427281
2
Properties=species:S:1:pos:R:3:forces:R:3 energy=-0.6675005098480447 pbc="F F F"
Pr       0.00000000       0.00000000       0.00000000       0.00000000       0.00000000       0.04782233
Pr       0.00000000       0.00000000       6.00000000       0.00000000       0.00000000      -0.04782233
