2
Properties=species:S:1:pos:R:3:forces:R:3 energy=21914.66785773541 pbc="F F F"
As       0.00000000       0.00000000       0.00000000       0.00000000       0.00000000 -501282.81250000
As       0.00000000       0.00000000       0.10000000       0.00000000       0.00000000  501282.81250000
2
Properties=species:S:1:pos:R:3:forces:R:3 energy=6847.735240547909 pbc="F F F"
As       0.00000000       0.00000000       0.00000000       0.00000000       0.00000000 -115445.96093750
As       0.00000000       0.00000000       0.15959596       0.00000000       0.00000000  115445.96093750
2
Properties=species:S:1:pos:R:3:forces:R:3 energy=2795.263072579159 pbc="F F F"
As       0.00000000       0.00000000       0.00000000       0.00000000       0.00000000  -37644.63671875
As       0.00000000       0.00000000       0.21919192       0.00000000       0.00000000   37644.63671875
2
Properties=species:S:1:pos:R:3:forces:R:3 energy=1347.722056954159 pbc="F F F"
As       0.00000000       0.00000000       0.00000000       0.00000000       0.00000000  -14989.47949219
As       0.00000000       0.00000000       0.27878788       0.00000000       0.00000000   14989.47949219
2
Properties=species:S:1:pos:R:3:forces:R:3 energy=736.2970081292018 pbc="F F F"
As       0.00000000       0.00000000       0.00000000       0.00000000       0.00000000   -6783.30712891
As       0.00000000       0.00000000       0.33838384       0.00000000       0.00000000    6783.30712891
2
Properties=species:S:1:pos:R:3:forces:R:3 energy=447.28202400784585 pbc="F F F"
As       0.00000000       0.00000000       0.00000000       0.00000000       0.00000000   -3381.23437500
As       0.00000000       0.00000000       0.39797980       0.00000000       0.00000000    3381.23437500
2
Properties=species:S:1:pos:R:3:forces:R:3 energy=296.9674488283725 pbc="F F F"
As       0.00000000       0.00000000       0.00000000       0.00000000       0.00000000   -1859.24182129
As       0.00000000       0.00000000       0.45757576       0.00000000       0.00000000    1859.24182129
2
Properties=species:S:1:pos:R:3:forces:R:3 energy=209.76554456634352 pbc="F F F"
As       0.00000000       0.00000000       0.00000000       0.00000000       0.00000000   -1156.03771973
As       0.00000000       0.00000000       0.51717172       0.00000000       0.00000000    1156.03771973
2
Properties=species:S:1:pos:R:3:forces:R:3 energy=150.866344187079 pbc="F F F"
As       0.00000000       0.00000000       0.00000000       0.00000000       0.00000000   -1071.84497070
As       0.00000000       0.00000000       0.57676768       0.00000000       0.00000000    1071.84497070
2
Properties=species:S:1:pos:R:3:forces:R:3 energy=105.80610259239839 pbc="F F F"
As       0.00000000       0.00000000       0.00000000       0.00000000       0.00000000    -565.03765869
As       0.00000000       0.00000000       0.63636364       0.00000000       0.00000000     565.03765869
2
Properties=species:S:1:pos:R:3:forces:R:3 energy=74.6374931379845 pbc="F F F"
As       0.00000000       0.00000000       0.00000000       0.00000000       0.00000000    -472.55163574
As       0.00000000       0.00000000       0.69595960       0.00000000       0.00000000     472.55163574
2
Properties=species:S:1:pos:R:3:forces:R:3 energy=49.52581431426185 pbc="F F F"
As       0.00000000       0.00000000       0.00000000       0.00000000       0.00000000    -380.02899170
As       0.00000000       0.00000000       0.75555556       0.00000000       0.00000000     380.02899170
2
Properties=species:S:1:pos:R:3:forces:R:3 energy=27.78947130744362 pbc="F F F"
As       0.00000000       0.00000000       0.00000000       0.00000000       0.00000000    -354.30130005
As       0.00000000       0.00000000       0.81515152       0.00000000       0.00000000     354.30130005
2
Properties=species:S:1:pos:R:3:forces:R:3 energy=10.032788502699654 pbc="F F F"
As       0.00000000       0.00000000       0.00000000       0.00000000       0.00000000    -221.47630310
As       0.00000000       0.00000000       0.87474747       0.00000000       0.00000000     221.47630310
2
Properties=species:S:1:pos:R:3:forces:R:3 energy=2.5001011379469404 pbc="F F F"
As       0.00000000       0.00000000       0.00000000       0.00000000       0.00000000     -32.15560532
As       0.00000000       0.00000000       0.93434343       0.00000000       0.00000000      32.15560532
2
Properties=species:S:1:pos:R:3:forces:R:3 energy=5.160529775846022 pbc="F F F"
As       0.00000000       0.00000000       0.00000000       0.00000000       0.00000000     106.16671753
As       0.00000000       0.00000000       0.99393939       0.00000000       0.00000000    -106.16671753
2
Properties=species:S:1:pos:R:3:forces:R:3 energy=13.36450452318083 pbc="F F F"
As       0.00000000       0.00000000       0.00000000       0.00000000       0.00000000     152.22604370
As       0.00000000       0.00000000       1.05353535       0.00000000       0.00000000    -152.22604370
2
Properties=species:S:1:pos:R:3:forces:R:3 energy=21.144909605430662 pbc="F F F"
As       0.00000000       0.00000000       0.00000000       0.00000000       0.00000000     143.21385193
As       0.00000000       0.00000000       1.11313131       0.00000000       0.00000000    -143.21385193
2
Properties=species:S:1:pos:R:3:forces:R:3 energy=25.64345685802412 pbc="F F F"
As       0.00000000       0.00000000       0.00000000       0.00000000       0.00000000       9.44179726
As       0.00000000       0.00000000       1.17272727       0.00000000       0.00000000      -9.44179726
2
Properties=species:S:1:pos:R:3:forces:R:3 energy=23.833052545687572 pbc="F F F"
As       0.00000000       0.00000000       0.00000000       0.00000000       0.00000000     -55.32802200
As       0.00000000       0.00000000       1.23232323       0.00000000       0.00000000      55.32802200
2
Properties=species:S:1:pos:R:3:forces:R:3 energy=20.04233492260128 pbc="F F F"
As       0.00000000       0.00000000       0.00000000       0.00000000       0.00000000     -70.50717926
As       0.00000000       0.00000000       1.29191919       0.00000000       0.00000000      70.50717926
2
Properties=species:S:1:pos:R:3:forces:R:3 energy=15.533095430257378 pbc="F F F"
As       0.00000000       0.00000000       0.00000000       0.00000000       0.00000000     -78.63468170
As       0.00000000       0.00000000       1.35151515       0.00000000       0.00000000      78.63468170
2
Properties=species:S:1:pos:R:3:forces:R:3 energy=10.947933412077486 pbc="F F F"
As       0.00000000       0.00000000       0.00000000       0.00000000       0.00000000     -73.65307617
As       0.00000000       0.00000000       1.41111111       0.00000000       0.00000000      73.65307617
2
Properties=species:S:1:pos:R:3:forces:R:3 energy=6.852235451652023 pbc="F F F"
As       0.00000000       0.00000000       0.00000000       0.00000000       0.00000000     -63.44171143
As       0.00000000       0.00000000       1.47070707       0.00000000       0.00000000      63.44171143
2
Properties=species:S:1:pos:R:3:forces:R:3 energy=3.4032026758888403 pbc="F F F"
As       0.00000000       0.00000000       0.00000000       0.00000000       0.00000000     -52.30455780
As       0.00000000       0.00000000       1.53030303       0.00000000       0.00000000      52.30455780
2
Properties=species:S:1:pos:R:3:forces:R:3 energy=0.6084896676613595 pbc="F F F"
As       0.00000000       0.00000000       0.00000000       0.00000000       0.00000000     -41.61703491
As       0.00000000       0.00000000       1.58989899       0.00000000       0.00000000      41.61703491
2
Properties=species:S:1:pos:R:3:forces:R:3 energy=-1.5776796539459734 pbc="F F F"
As       0.00000000       0.00000000       0.00000000       0.00000000       0.00000000     -31.96192932
As       0.00000000       0.00000000       1.64949495       0.00000000       0.00000000      31.96192932
2
Properties=species:S:1:pos:R:3:forces:R:3 energy=-3.2315702522130234 pbc="F F F"
As       0.00000000       0.00000000       0.00000000       0.00000000       0.00000000     -23.83226967
As       0.00000000       0.00000000       1.70909091       0.00000000       0.00000000      23.83226967
2
Properties=species:S:1:pos:R:3:forces:R:3 energy=-4.454240896695365 pbc="F F F"
As       0.00000000       0.00000000       0.00000000       0.00000000       0.00000000     -17.49318123
As       0.00000000       0.00000000       1.76868687       0.00000000       0.00000000      17.49318123
2
Properties=species:S:1:pos:R:3:forces:R:3 energy=-5.347956694770204 pbc="F F F"
As       0.00000000       0.00000000       0.00000000       0.00000000       0.00000000     -12.72411537
As       0.00000000       0.00000000       1.82828283       0.00000000       0.00000000      12.72411537
2
Properties=species:S:1:pos:R:3:forces:R:3 energy=-5.992926700579267 pbc="F F F"
As       0.00000000       0.00000000       0.00000000       0.00000000       0.00000000      -9.07007694
As       0.00000000       0.00000000       1.88787879       0.00000000       0.00000000       9.07007694
2
Properties=species:S:1:pos:R:3:forces:R:3 energy=-6.443676482885766 pbc="F F F"
As       0.00000000       0.00000000       0.00000000       0.00000000       0.00000000      -6.15930271
As       0.00000000       0.00000000       1.94747475       0.00000000       0.00000000       6.15930271
2
Properties=species:S:1:pos:R:3:forces:R:3 energy=-6.737796173243149 pbc="F F F"
As       0.00000000       0.00000000       0.00000000       0.00000000       0.00000000      -3.79237413
As       0.00000000       0.00000000       2.00707071       0.00000000       0.00000000       3.79237413
2
Properties=species:S:1:pos:R:3:forces:R:3 energy=-6.904724324468052 pbc="F F F"
As       0.00000000       0.00000000       0.00000000       0.00000000       0.00000000      -1.88089418
As       0.00000000       0.00000000       2.06666667       0.00000000       0.00000000       1.88089418
2
Properties=species:S:1:pos:R:3:forces:R:3 energy=-6.969985019103823 pbc="F F F"
As       0.00000000       0.00000000       0.00000000       0.00000000       0.00000000      -0.37214330
As       0.00000000       0.00000000       2.12626263       0.00000000       0.00000000       0.37214330
2
Properties=species:S:1:pos:R:3:forces:R:3 energy=-6.956023360981604 pbc="F F F"
As       0.00000000       0.00000000       0.00000000       0.00000000       0.00000000       0.78735441
As       0.00000000       0.00000000       2.18585859       0.00000000       0.00000000      -0.78735441
2
Properties=species:S:1:pos:R:3:forces:R:3 energy=-6.881892171032637 pbc="F F F"
As       0.00000000       0.00000000       0.00000000       0.00000000       0.00000000       1.65724790
As       0.00000000       0.00000000       2.24545455       0.00000000       0.00000000      -1.65724790
2
Properties=species:S:1:pos:R:3:forces:R:3 energy=-6.7630660081252785 pbc="F F F"
As       0.00000000       0.00000000       0.00000000       0.00000000       0.00000000       2.29674196
As       0.00000000       0.00000000       2.30505051       0.00000000       0.00000000      -2.29674196
2
Properties=species:S:1:pos:R:3:forces:R:3 energy=-6.611653933472216 pbc="F F F"
As       0.00000000       0.00000000       0.00000000       0.00000000       0.00000000       2.75909305
As       0.00000000       0.00000000       2.36464646       0.00000000       0.00000000      -2.75909305
2
Properties=species:S:1:pos:R:3:forces:R:3 energy=-6.436802371504895 pbc="F F F"
As       0.00000000       0.00000000       0.00000000       0.00000000       0.00000000       3.09036613
As       0.00000000       0.00000000       2.42424242       0.00000000       0.00000000      -3.09036613
2
Properties=species:S:1:pos:R:3:forces:R:3 energy=-6.245150091717986 pbc="F F F"
As       0.00000000       0.00000000       0.00000000       0.00000000       0.00000000       3.32851768
As       0.00000000       0.00000000       2.48383838       0.00000000       0.00000000      -3.32851768
2
Properties=species:S:1:pos:R:3:forces:R:3 energy=-6.041397050056553 pbc="F F F"
As       0.00000000       0.00000000       0.00000000       0.00000000       0.00000000       3.49937105
As       0.00000000       0.00000000       2.54343434       0.00000000       0.00000000      -3.49937105
2
Properties=species:S:1:pos:R:3:forces:R:3 energy=-5.829179028641435 pbc="F F F"
As       0.00000000       0.00000000       0.00000000       0.00000000       0.00000000       3.61304808
As       0.00000000       0.00000000       2.60303030       0.00000000       0.00000000      -3.61304808
2
Properties=species:S:1:pos:R:3:forces:R:3 energy=-5.611939420807331 pbc="F F F"
As       0.00000000       0.00000000       0.00000000       0.00000000       0.00000000       3.66668057
As       0.00000000       0.00000000       2.66262626       0.00000000       0.00000000      -3.66668057
2
Properties=species:S:1:pos:R:3:forces:R:3 energy=-5.393501456203559 pbc="F F F"
As       0.00000000       0.00000000       0.00000000       0.00000000       0.00000000       3.65177464
As       0.00000000       0.00000000       2.72222222       0.00000000       0.00000000      -3.65177464
2
Properties=species:S:1:pos:R:3:forces:R:3 energy=-5.178206705157637 pbc="F F F"
As       0.00000000       0.00000000       0.00000000       0.00000000       0.00000000       3.56012082
As       0.00000000       0.00000000       2.78181818       0.00000000       0.00000000      -3.56012082
2
Properties=species:S:1:pos:R:3:forces:R:3 energy=-4.970762789904076 pbc="F F F"
As       0.00000000       0.00000000       0.00000000       0.00000000       0.00000000       3.38825440
As       0.00000000       0.00000000       2.84141414       0.00000000       0.00000000      -3.38825440
2
Properties=species:S:1:pos:R:3:forces:R:3 energy=-4.775819537883496 pbc="F F F"
As       0.00000000       0.00000000       0.00000000       0.00000000       0.00000000       3.14298844
As       0.00000000       0.00000000       2.90101010       0.00000000       0.00000000      -3.14298844
2
Properties=species:S:1:pos:R:3:forces:R:3 energy=-4.5972103659816925 pbc="F F F"
As       0.00000000       0.00000000       0.00000000       0.00000000       0.00000000       2.84442735
As       0.00000000       0.00000000       2.96060606       0.00000000       0.00000000      -2.84442735
2
Properties=species:S:1:pos:R:3:forces:R:3 energy=-4.437274188650353 pbc="F F F"
As       0.00000000       0.00000000       0.00000000       0.00000000       0.00000000       2.52134395
As       0.00000000       0.00000000       3.02020202       0.00000000       0.00000000      -2.52134395
2
Properties=species:S:1:pos:R:3:forces:R:3 energy=-4.296616641073522 pbc="F F F"
As       0.00000000       0.00000000       0.00000000       0.00000000       0.00000000       2.20144868
As       0.00000000       0.00000000       3.07979798       0.00000000       0.00000000      -2.20144868
2
Properties=species:S:1:pos:R:3:forces:R:3 energy=-4.1744288171947215 pbc="F F F"
As       0.00000000       0.00000000       0.00000000       0.00000000       0.00000000       1.90387142
As       0.00000000       0.00000000       3.13939394       0.00000000       0.00000000      -1.90387142
2
Properties=species:S:1:pos:R:3:forces:R:3 energy=-4.069056203552002 pbc="F F F"
As       0.00000000       0.00000000       0.00000000       0.00000000       0.00000000       1.63801587
As       0.00000000       0.00000000       3.19898990       0.00000000       0.00000000      -1.63801587
2
Properties=species:S:1:pos:R:3:forces:R:3 energy=-3.9784991278131048 pbc="F F F"
As       0.00000000       0.00000000       0.00000000       0.00000000       0.00000000       1.40681863
As       0.00000000       0.00000000       3.25858586       0.00000000       0.00000000      -1.40681863
2
Properties=species:S:1:pos:R:3:forces:R:3 energy=-3.900691598373158 pbc="F F F"
As       0.00000000       0.00000000       0.00000000       0.00000000       0.00000000       1.20995367
As       0.00000000       0.00000000       3.31818182       0.00000000       0.00000000      -1.20995367
2
Properties=species:S:1:pos:R:3:forces:R:3 energy=-3.8336381446816965 pbc="F F F"
As       0.00000000       0.00000000       0.00000000       0.00000000       0.00000000       1.04552627
As       0.00000000       0.00000000       3.37777778       0.00000000       0.00000000      -1.04552627
2
Properties=species:S:1:pos:R:3:forces:R:3 energy=-3.7754856825726164 pbc="F F F"
As       0.00000000       0.00000000       0.00000000       0.00000000       0.00000000       0.91071576
As       0.00000000       0.00000000       3.43737374       0.00000000       0.00000000      -0.91071576
2
Properties=species:S:1:pos:R:3:forces:R:3 energy=-3.7245704462143756 pbc="F F F"
As       0.00000000       0.00000000       0.00000000       0.00000000       0.00000000       0.80193174
As       0.00000000       0.00000000       3.49696970       0.00000000       0.00000000      -0.80193174
2
Properties=species:S:1:pos:R:3:forces:R:3 energy=-3.6794667322143177 pbc="F F F"
As       0.00000000       0.00000000       0.00000000       0.00000000       0.00000000       0.71498060
As       0.00000000       0.00000000       3.55656566       0.00000000       0.00000000      -0.71498060
2
Properties=species:S:1:pos:R:3:forces:R:3 energy=-3.639006942458576 pbc="F F F"
As       0.00000000       0.00000000       0.00000000       0.00000000       0.00000000       0.64533848
As       0.00000000       0.00000000       3.61616162       0.00000000       0.00000000      -0.64533848
2
Properties=species:S:1:pos:R:3:forces:R:3 energy=-3.60229247917887 pbc="F F F"
As       0.00000000       0.00000000       0.00000000       0.00000000       0.00000000       0.58856976
As       0.00000000       0.00000000       3.67575758       0.00000000       0.00000000      -0.58856976
2
Properties=species:S:1:pos:R:3:forces:R:3 energy=-3.5686778207609464 pbc="F F F"
As       0.00000000       0.00000000       0.00000000       0.00000000       0.00000000       0.54070550
As       0.00000000       0.00000000       3.73535354       0.00000000       0.00000000      -0.54070550
2
Properties=species:S:1:pos:R:3:forces:R:3 energy=-3.537732967986576 pbc="F F F"
As       0.00000000       0.00000000       0.00000000       0.00000000       0.00000000       0.49848732
As       0.00000000       0.00000000       3.79494949       0.00000000       0.00000000      -0.49848732
2
Properties=species:S:1:pos:R:3:forces:R:3 energy=-3.509200866142305 pbc="F F F"
As       0.00000000       0.00000000       0.00000000       0.00000000       0.00000000       0.45937225
As       0.00000000       0.00000000       3.85454545       0.00000000       0.00000000      -0.45937225
2
Properties=species:S:1:pos:R:3:forces:R:3 energy=-3.4829568128404644 pbc="F F F"
As       0.00000000       0.00000000       0.00000000       0.00000000       0.00000000       0.42141980
As       0.00000000       0.00000000       3.91414141       0.00000000       0.00000000      -0.42141980
2
Properties=species:S:1:pos:R:3:forces:R:3 energy=-3.458978001461588 pbc="F F F"
As       0.00000000       0.00000000       0.00000000       0.00000000       0.00000000       0.38311571
As       0.00000000       0.00000000       3.97373737       0.00000000       0.00000000      -0.38311571
2
Properties=species:S:1:pos:R:3:forces:R:3 energy=-3.4373226163471795 pbc="F F F"
As       0.00000000       0.00000000       0.00000000       0.00000000       0.00000000       0.34330529
As       0.00000000       0.00000000       4.03333333       0.00000000       0.00000000      -0.34330529
2
Properties=species:S:1:pos:R:3:forces:R:3 energy=-3.4181040970963776 pbc="F F F"
As       0.00000000       0.00000000       0.00000000       0.00000000       0.00000000       0.30123717
As       0.00000000       0.00000000       4.09292929       0.00000000       0.00000000      -0.30123717
2
Properties=species:S:1:pos:R:3:forces:R:3 energy=-3.4014661046151504 pbc="F F F"
As       0.00000000       0.00000000       0.00000000       0.00000000       0.00000000       0.25673968
As       0.00000000       0.00000000       4.15252525       0.00000000       0.00000000      -0.25673968
2
Properties=species:S:1:pos:R:3:forces:R:3 energy=-3.387540126206732 pbc="F F F"
As       0.00000000       0.00000000       0.00000000       0.00000000       0.00000000       0.21040738
As       0.00000000       0.00000000       4.21212121       0.00000000       0.00000000      -0.21040738
2
Properties=species:S:1:pos:R:3:forces:R:3 energy=-3.376396038978463 pbc="F F F"
As       0.00000000       0.00000000       0.00000000       0.00000000       0.00000000       0.16365960
As       0.00000000       0.00000000       4.27171717       0.00000000       0.00000000      -0.16365960
2
Properties=species:S:1:pos:R:3:forces:R:3 energy=-3.3679998020473327 pbc="F F F"
As       0.00000000       0.00000000       0.00000000       0.00000000       0.00000000       0.11860000
As       0.00000000       0.00000000       4.33131313       0.00000000       0.00000000      -0.11860000
2
Properties=species:S:1:pos:R:3:forces:R:3 energy=-3.3621783171420137 pbc="F F F"
As       0.00000000       0.00000000       0.00000000       0.00000000       0.00000000       0.07763860
As       0.00000000       0.00000000       4.39090909       0.00000000       0.00000000      -0.07763860
2
Properties=species:S:1:pos:R:3:forces:R:3 energy=-3.358619557731573 pbc="F F F"
As       0.00000000       0.00000000       0.00000000       0.00000000       0.00000000       0.04299812
As       0.00000000       0.00000000       4.45050505       0.00000000       0.00000000      -0.04299812
2
Properties=species:S:1:pos:R:3:forces:R:3 energy=-3.3568963839568964 pbc="F F F"
As       0.00000000       0.00000000       0.00000000       0.00000000       0.00000000       0.01621714
As       0.00000000       0.00000000       4.51010101       0.00000000       0.00000000      -0.01621714
2
Properties=species:S:1:pos:R:3:forces:R:3 energy=-3.356520292181034 pbc="F F F"
As       0.00000000       0.00000000       0.00000000       0.00000000       0.00000000      -0.00223600
As       0.00000000       0.00000000       4.56969697       0.00000000       0.00000000       0.00223600
2
Properties=species:S:1:pos:R:3:forces:R:3 energy=-3.3570116225091433 pbc="F F F"
As       0.00000000       0.00000000       0.00000000       0.00000000       0.00000000      -0.01311006
As       0.00000000       0.00000000       4.62929293       0.00000000       0.00000000       0.01311006
2
Properties=species:S:1:pos:R:3:forces:R:3 energy=-3.3579692681284343 pbc="F F F"
As       0.00000000       0.00000000       0.00000000       0.00000000       0.00000000      -0.01827471
As       0.00000000       0.00000000       4.68888889       0.00000000       0.00000000       0.01827471
2
Properties=species:S:1:pos:R:3:forces:R:3 energy=-3.3591282482273312 pbc="F F F"
As       0.00000000       0.00000000       0.00000000       0.00000000       0.00000000      -0.02033887
As       0.00000000       0.00000000       4.74848485       0.00000000       0.00000000       0.02033887
2
Properties=species:S:1:pos:R:3:forces:R:3 energy=-3.3603870390169623 pbc="F F F"
As       0.00000000       0.00000000       0.00000000       0.00000000       0.00000000      -0.02206142
As       0.00000000       0.00000000       4.80808081       0.00000000       0.00000000       0.02206142
2
Properties=species:S:1:pos:R:3:forces:R:3 energy=-3.3617967521963354 pbc="F F F"
As       0.00000000       0.00000000       0.00000000       0.00000000       0.00000000      -0.02571222
As       0.00000000       0.00000000       4.86767677       0.00000000       0.00000000       0.02571222
2
Properties=species:S:1:pos:R:3:forces:R:3 energy=-3.3635153379943112 pbc="F F F"
As       0.00000000       0.00000000       0.00000000       0.00000000       0.00000000      -0.03253032
As       0.00000000       0.00000000       4.92727273       0.00000000       0.00000000       0.03253032
2
Properties=species:S:1:pos:R:3:forces:R:3 energy=-3.3657368128654723 pbc="F F F"
As       0.00000000       0.00000000       0.00000000       0.00000000       0.00000000      -0.04246065
As       0.00000000       0.00000000       4.98686869       0.00000000       0.00000000       0.04246065
2
Properties=species:S:1:pos:R:3:forces:R:3 energy=-3.3686121948047947 pbc="F F F"
As       0.00000000       0.00000000       0.00000000       0.00000000       0.00000000      -0.05417138
As       0.00000000       0.00000000       5.04646465       0.00000000       0.00000000       0.05417138
2
Properties=species:S:1:pos:R:3:forces:R:3 energy=-3.372182735058121 pbc="F F F"
As       0.00000000       0.00000000       0.00000000       0.00000000       0.00000000      -0.06532100
As       0.00000000       0.00000000       5.10606061       0.00000000       0.00000000       0.06532100
2
Properties=species:S:1:pos:R:3:forces:R:3 energy=-3.3763275784924454 pbc="F F F"
As       0.00000000       0.00000000       0.00000000       0.00000000       0.00000000      -0.07288881
As       0.00000000       0.00000000       5.16565657       0.00000000       0.00000000       0.07288881
2
Properties=species:S:1:pos:R:3:forces:R:3 energy=-3.3807361133763796 pbc="F F F"
As       0.00000000       0.00000000       0.00000000       0.00000000       0.00000000      -0.07370555
As       0.00000000       0.00000000       5.22525253       0.00000000       0.00000000       0.07370555
2
Properties=species:S:1:pos:R:3:forces:R:3 energy=-3.384938773310281 pbc="F F F"
As       0.00000000       0.00000000       0.00000000       0.00000000       0.00000000      -0.06594753
As       0.00000000       0.00000000       5.28484848       0.00000000       0.00000000       0.06594753
2
Properties=species:S:1:pos:R:3:forces:R:3 energy=-3.388479935045611 pbc="F F F"
As       0.00000000       0.00000000       0.00000000       0.00000000       0.00000000      -0.05263609
As       0.00000000       0.00000000       5.34444444       0.00000000       0.00000000       0.05263609
2
Properties=species:S:1:pos:R:3:forces:R:3 energy=-3.3913120624100532 pbc="F F F"
As       0.00000000       0.00000000       0.00000000       0.00000000       0.00000000      -0.04429115
As       0.00000000       0.00000000       5.40404040       0.00000000       0.00000000       0.04429115
2
Properties=species:S:1:pos:R:3:forces:R:3 energy=-3.3940207916611658 pbc="F F F"
As       0.00000000       0.00000000       0.00000000       0.00000000       0.00000000      -0.04813691
As       0.00000000       0.00000000       5.46363636       0.00000000       0.00000000       0.04813691
2
Properties=species:S:1:pos:R:3:forces:R:3 energy=-3.3970233991097047 pbc="F F F"
As       0.00000000       0.00000000       0.00000000       0.00000000       0.00000000      -0.05081915
As       0.00000000       0.00000000       5.52323232       0.00000000       0.00000000       0.05081915
2
Properties=species:S:1:pos:R:3:forces:R:3 energy=-3.3998085167410497 pbc="F F F"
As       0.00000000       0.00000000       0.00000000       0.00000000       0.00000000      -0.04099524
As       0.00000000       0.00000000       5.58282828       0.00000000       0.00000000       0.04099524
2
Properties=species:S:1:pos:R:3:forces:R:3 energy=-3.4018697682835852 pbc="F F F"
As       0.00000000       0.00000000       0.00000000       0.00000000       0.00000000      -0.02908044
As       0.00000000       0.00000000       5.64242424       0.00000000       0.00000000       0.02908044
2
Properties=species:S:1:pos:R:3:forces:R:3 energy=-3.4034627917549036 pbc="F F F"
As       0.00000000       0.00000000       0.00000000       0.00000000       0.00000000      -0.02597849
As       0.00000000       0.00000000       5.70202020       0.00000000       0.00000000       0.02597849
2
Properties=species:S:1:pos:R:3:forces:R:3 energy=-3.4050482960368917 pbc="F F F"
As       0.00000000       0.00000000       0.00000000       0.00000000       0.00000000      -0.02668794
As       0.00000000       0.00000000       5.76161616       0.00000000       0.00000000       0.02668794
2
Properties=species:S:1:pos:R:3:forces:R:3 energy=-3.4064628378897903 pbc="F F F"
As       0.00000000       0.00000000       0.00000000       0.00000000       0.00000000      -0.01910641
As       0.00000000       0.00000000       5.82121212       0.00000000       0.00000000       0.01910641
2
Properties=species:S:1:pos:R:3:forces:R:3 energy=-3.4072287906556515 pbc="F F F"
As       0.00000000       0.00000000       0.00000000       0.00000000       0.00000000      -0.00685388
As       0.00000000       0.00000000       5.88080808       0.00000000       0.00000000       0.00685388
2
Properties=species:S:1:pos:R:3:forces:R:3 energy=-3.407361386000884 pbc="F F F"
As       0.00000000       0.00000000       0.00000000       0.00000000       0.00000000       0.00166310
As       0.00000000       0.00000000       5.94040404       0.00000000       0.00000000      -0.00166310
2
Properties=species:S:1:pos:R:3:forces:R:3 energy=-3.407149134364679 pbc="F F F"
As       0.00000000       0.00000000       0.00000000       0.00000000       0.00000000       0.00440468
As       0.00000000       0.00000000       6.00000000       0.00000000       0.00000000      -0.00440468
