2
Properties=species:S:1:pos:R:3:forces:R:3 energy=7549.240483835642 pbc="F F F"
Cl       0.00000000       0.00000000       0.00000000       0.00000000       0.00000000 -157121.96875000
Cl       0.00000000       0.00000000       0.10000000       0.00000000       0.00000000  157121.96875000
2
Properties=species:S:1:pos:R:3:forces:R:3 energy=2657.6984916481424 pbc="F F F"
Cl       0.00000000       0.00000000       0.00000000       0.00000000       0.00000000  -39460.14453125
Cl       0.00000000       0.00000000       0.15959596       0.00000000       0.00000000   39460.14453125
2
Properties=species:S:1:pos:R:3:forces:R:3 energy=1233.767461374705 pbc="F F F"
Cl       0.00000000       0.00000000       0.00000000       0.00000000       0.00000000  -13709.87304688
Cl       0.00000000       0.00000000       0.21919192       0.00000000       0.00000000   13709.87304688
2
Properties=species:S:1:pos:R:3:forces:R:3 energy=694.77502973408 pbc="F F F"
Cl       0.00000000       0.00000000       0.00000000       0.00000000       0.00000000   -5741.06640625
Cl       0.00000000       0.00000000       0.27878788       0.00000000       0.00000000    5741.06640625
2
Properties=species:S:1:pos:R:3:forces:R:3 energy=456.1084342814313 pbc="F F F"
Cl       0.00000000       0.00000000       0.00000000       0.00000000       0.00000000   -2707.34033203
Cl       0.00000000       0.00000000       0.33838384       0.00000000       0.00000000    2707.34033203
2
Properties=species:S:1:pos:R:3:forces:R:3 energy=339.4719596910632 pbc="F F F"
Cl       0.00000000       0.00000000       0.00000000       0.00000000       0.00000000   -1374.72119141
Cl       0.00000000       0.00000000       0.39797980       0.00000000       0.00000000    1374.72119141
2
Properties=species:S:1:pos:R:3:forces:R:3 energy=278.86377490512047 pbc="F F F"
Cl       0.00000000       0.00000000       0.00000000       0.00000000       0.00000000    -734.91369629
Cl       0.00000000       0.00000000       0.45757576       0.00000000       0.00000000     734.91369629
2
Properties=species:S:1:pos:R:3:forces:R:3 energy=245.19072503538348 pbc="F F F"
Cl       0.00000000       0.00000000       0.00000000       0.00000000       0.00000000    -437.63479614
Cl       0.00000000       0.00000000       0.51717172       0.00000000       0.00000000     437.63479614
2
Properties=species:S:1:pos:R:3:forces:R:3 energy=222.99870853202344 pbc="F F F"
Cl       0.00000000       0.00000000       0.00000000       0.00000000       0.00000000    -324.47158813
Cl       0.00000000       0.00000000       0.57676768       0.00000000       0.00000000     324.47158813
2
Properties=species:S:1:pos:R:3:forces:R:3 energy=201.9284725033668 pbc="F F F"
Cl       0.00000000       0.00000000       0.00000000       0.00000000       0.00000000    -411.56036377
Cl       0.00000000       0.00000000       0.63636364       0.00000000       0.00000000     411.56036377
2
Properties=species:S:1:pos:R:3:forces:R:3 energy=175.99246813712764 pbc="F F F"
Cl       0.00000000       0.00000000       0.00000000       0.00000000       0.00000000    -432.37326050
Cl       0.00000000       0.00000000       0.69595960       0.00000000       0.00000000     432.37326050
2
Properties=species:S:1:pos:R:3:forces:R:3 energy=150.85675688852612 pbc="F F F"
Cl       0.00000000       0.00000000       0.00000000       0.00000000       0.00000000    -404.66644287
Cl       0.00000000       0.00000000       0.75555556       0.00000000       0.00000000     404.66644287
2
Properties=species:S:1:pos:R:3:forces:R:3 energy=127.41149079528991 pbc="F F F"
Cl       0.00000000       0.00000000       0.00000000       0.00000000       0.00000000    -389.43115234
Cl       0.00000000       0.00000000       0.81515152       0.00000000       0.00000000     389.43115234
2
Properties=species:S:1:pos:R:3:forces:R:3 energy=104.03910859311472 pbc="F F F"
Cl       0.00000000       0.00000000       0.00000000       0.00000000       0.00000000    -392.79885864
Cl       0.00000000       0.00000000       0.87474747       0.00000000       0.00000000     392.79885864
2
Properties=species:S:1:pos:R:3:forces:R:3 energy=80.94952552866458 pbc="F F F"
Cl       0.00000000       0.00000000       0.00000000       0.00000000       0.00000000    -377.77618408
Cl       0.00000000       0.00000000       0.93434343       0.00000000       0.00000000     377.77618408
2
Properties=species:S:1:pos:R:3:forces:R:3 energy=59.87166171156251 pbc="F F F"
Cl       0.00000000       0.00000000       0.00000000       0.00000000       0.00000000    -322.37573242
Cl       0.00000000       0.00000000       0.99393939       0.00000000       0.00000000     322.37573242
2
Properties=species:S:1:pos:R:3:forces:R:3 energy=42.981409160581215 pbc="F F F"
Cl       0.00000000       0.00000000       0.00000000       0.00000000       0.00000000    -243.68899536
Cl       0.00000000       0.00000000       1.05353535       0.00000000       0.00000000     243.68899536
2
Properties=species:S:1:pos:R:3:forces:R:3 energy=30.69407795595678 pbc="F F F"
Cl       0.00000000       0.00000000       0.00000000       0.00000000       0.00000000    -171.33413696
Cl       0.00000000       0.00000000       1.11313131       0.00000000       0.00000000     171.33413696
2
Properties=species:S:1:pos:R:3:forces:R:3 energy=22.11643595484876 pbc="F F F"
Cl       0.00000000       0.00000000       0.00000000       0.00000000       0.00000000    -120.63026428
Cl       0.00000000       0.00000000       1.17272727       0.00000000       0.00000000     120.63026428
2
Properties=species:S:1:pos:R:3:forces:R:3 energy=15.898512593117012 pbc="F F F"
Cl       0.00000000       0.00000000       0.00000000       0.00000000       0.00000000     -90.59295654
Cl       0.00000000       0.00000000       1.23232323       0.00000000       0.00000000      90.59295654
2
Properties=species:S:1:pos:R:3:forces:R:3 energy=11.118075537500342 pbc="F F F"
Cl       0.00000000       0.00000000       0.00000000       0.00000000       0.00000000     -70.90647125
Cl       0.00000000       0.00000000       1.29191919       0.00000000       0.00000000      70.90647125
2
Properties=species:S:1:pos:R:3:forces:R:3 energy=7.355151267202011 pbc="F F F"
Cl       0.00000000       0.00000000       0.00000000       0.00000000       0.00000000     -55.93851089
Cl       0.00000000       0.00000000       1.35151515       0.00000000       0.00000000      55.93851089
2
Properties=species:S:1:pos:R:3:forces:R:3 energy=4.399663388277275 pbc="F F F"
Cl       0.00000000       0.00000000       0.00000000       0.00000000       0.00000000     -43.58380127
Cl       0.00000000       0.00000000       1.41111111       0.00000000       0.00000000      43.58380127
2
Properties=species:S:1:pos:R:3:forces:R:3 energy=2.1224779276410355 pbc="F F F"
Cl       0.00000000       0.00000000       0.00000000       0.00000000       0.00000000     -33.16468430
Cl       0.00000000       0.00000000       1.47070707       0.00000000       0.00000000      33.16468430
2
Properties=species:S:1:pos:R:3:forces:R:3 energy=0.4054612232500899 pbc="F F F"
Cl       0.00000000       0.00000000       0.00000000       0.00000000       0.00000000     -24.80671310
Cl       0.00000000       0.00000000       1.53030303       0.00000000       0.00000000      24.80671310
2
Properties=species:S:1:pos:R:3:forces:R:3 energy=-0.8730209233769126 pbc="F F F"
Cl       0.00000000       0.00000000       0.00000000       0.00000000       0.00000000     -18.38494873
Cl       0.00000000       0.00000000       1.58989899       0.00000000       0.00000000      18.38494873
2
Properties=species:S:1:pos:R:3:forces:R:3 energy=-1.8148685685103778 pbc="F F F"
Cl       0.00000000       0.00000000       0.00000000       0.00000000       0.00000000     -13.42805862
Cl       0.00000000       0.00000000       1.64949495       0.00000000       0.00000000      13.42805862
2
Properties=species:S:1:pos:R:3:forces:R:3 energy=-2.4948241726458353 pbc="F F F"
Cl       0.00000000       0.00000000       0.00000000       0.00000000       0.00000000      -9.54854107
Cl       0.00000000       0.00000000       1.70909091       0.00000000       0.00000000       9.54854107
2
Properties=species:S:1:pos:R:3:forces:R:3 energy=-2.969831614704593 pbc="F F F"
Cl       0.00000000       0.00000000       0.00000000       0.00000000       0.00000000      -6.51826096
Cl       0.00000000       0.00000000       1.76868687       0.00000000       0.00000000       6.51826096
2
Properties=species:S:1:pos:R:3:forces:R:3 energy=-3.284939840613519 pbc="F F F"
Cl       0.00000000       0.00000000       0.00000000       0.00000000       0.00000000      -4.15266514
Cl       0.00000000       0.00000000       1.82828283       0.00000000       0.00000000       4.15266514
2
Properties=species:S:1:pos:R:3:forces:R:3 energy=-3.474709909556537 pbc="F F F"
Cl       0.00000000       0.00000000       0.00000000       0.00000000       0.00000000      -2.28766632
Cl       0.00000000       0.00000000       1.88787879       0.00000000       0.00000000       2.28766632
2
Properties=species:S:1:pos:R:3:forces:R:3 energy=-3.5651242752986563 pbc="F F F"
Cl       0.00000000       0.00000000       0.00000000       0.00000000       0.00000000      -0.80277050
Cl       0.00000000       0.00000000       1.94747475       0.00000000       0.00000000       0.80277050
2
Properties=species:S:1:pos:R:3:forces:R:3 energy=-3.5766122577661426 pbc="F F F"
Cl       0.00000000       0.00000000       0.00000000       0.00000000       0.00000000       0.36733210
Cl       0.00000000       0.00000000       2.00707071       0.00000000       0.00000000      -0.36733210
2
Properties=species:S:1:pos:R:3:forces:R:3 energy=-3.527248265894323 pbc="F F F"
Cl       0.00000000       0.00000000       0.00000000       0.00000000       0.00000000       1.23952997
Cl       0.00000000       0.00000000       2.06666667       0.00000000       0.00000000      -1.23952997
2
Properties=species:S:1:pos:R:3:forces:R:3 energy=-3.434771431907686 pbc="F F F"
Cl       0.00000000       0.00000000       0.00000000       0.00000000       0.00000000       1.81566393
Cl       0.00000000       0.00000000       2.12626263       0.00000000       0.00000000      -1.81566393
2
Properties=species:S:1:pos:R:3:forces:R:3 energy=-3.316176077893074 pbc="F F F"
Cl       0.00000000       0.00000000       0.00000000       0.00000000       0.00000000       2.12442899
Cl       0.00000000       0.00000000       2.18585859       0.00000000       0.00000000      -2.12442899
2
Properties=species:S:1:pos:R:3:forces:R:3 energy=-3.18557416252541 pbc="F F F"
Cl       0.00000000       0.00000000       0.00000000       0.00000000       0.00000000       2.23116064
Cl       0.00000000       0.00000000       2.24545455       0.00000000       0.00000000      -2.23116064
2
Properties=species:S:1:pos:R:3:forces:R:3 energy=-3.0527848085931053 pbc="F F F"
Cl       0.00000000       0.00000000       0.00000000       0.00000000       0.00000000       2.20950556
Cl       0.00000000       0.00000000       2.30505051       0.00000000       0.00000000      -2.20950556
2
Properties=species:S:1:pos:R:3:forces:R:3 energy=-2.923364151173942 pbc="F F F"
Cl       0.00000000       0.00000000       0.00000000       0.00000000       0.00000000       2.13080835
Cl       0.00000000       0.00000000       2.36464646       0.00000000       0.00000000      -2.13080835
2
Properties=species:S:1:pos:R:3:forces:R:3 energy=-2.7982191468944113 pbc="F F F"
Cl       0.00000000       0.00000000       0.00000000       0.00000000       0.00000000       2.08237123
Cl       0.00000000       0.00000000       2.42424242       0.00000000       0.00000000      -2.08237123
2
Properties=species:S:1:pos:R:3:forces:R:3 energy=-2.6726181033245346 pbc="F F F"
Cl       0.00000000       0.00000000       0.00000000       0.00000000       0.00000000       2.16078734
Cl       0.00000000       0.00000000       2.48383838       0.00000000       0.00000000      -2.16078734
2
Properties=species:S:1:pos:R:3:forces:R:3 energy=-2.536944760593532 pbc="F F F"
Cl       0.00000000       0.00000000       0.00000000       0.00000000       0.00000000       2.42369413
Cl       0.00000000       0.00000000       2.54343434       0.00000000       0.00000000      -2.42369413
2
Properties=species:S:1:pos:R:3:forces:R:3 energy=-2.380616813881698 pbc="F F F"
Cl       0.00000000       0.00000000       0.00000000       0.00000000       0.00000000       2.83975053
Cl       0.00000000       0.00000000       2.60303030       0.00000000       0.00000000      -2.83975053
2
Properties=species:S:1:pos:R:3:forces:R:3 energy=-2.1980554346979697 pbc="F F F"
Cl       0.00000000       0.00000000       0.00000000       0.00000000       0.00000000       3.27429342
Cl       0.00000000       0.00000000       2.66262626       0.00000000       0.00000000      -3.27429342
2
Properties=species:S:1:pos:R:3:forces:R:3 energy=-1.9938131770725107 pbc="F F F"
Cl       0.00000000       0.00000000       0.00000000       0.00000000       0.00000000       3.53624249
Cl       0.00000000       0.00000000       2.72222222       0.00000000       0.00000000      -3.53624249
2
Properties=species:S:1:pos:R:3:forces:R:3 energy=-1.782833260629435 pbc="F F F"
Cl       0.00000000       0.00000000       0.00000000       0.00000000       0.00000000       3.48815799
Cl       0.00000000       0.00000000       2.78181818       0.00000000       0.00000000      -3.48815799
2
Properties=species:S:1:pos:R:3:forces:R:3 energy=-1.5841254396849453 pbc="F F F"
Cl       0.00000000       0.00000000       0.00000000       0.00000000       0.00000000       3.13886642
Cl       0.00000000       0.00000000       2.84141414       0.00000000       0.00000000      -3.13886642
2
Properties=species:S:1:pos:R:3:forces:R:3 energy=-1.4120706526541213 pbc="F F F"
Cl       0.00000000       0.00000000       0.00000000       0.00000000       0.00000000       2.62069821
Cl       0.00000000       0.00000000       2.90101010       0.00000000       0.00000000      -2.62069821
2
Properties=species:S:1:pos:R:3:forces:R:3 energy=-1.2720817686002652 pbc="F F F"
Cl       0.00000000       0.00000000       0.00000000       0.00000000       0.00000000       2.08406472
Cl       0.00000000       0.00000000       2.96060606       0.00000000       0.00000000      -2.08406472
2
Properties=species:S:1:pos:R:3:forces:R:3 energy=-1.1621487218571778 pbc="F F F"
Cl       0.00000000       0.00000000       0.00000000       0.00000000       0.00000000       1.62143731
Cl       0.00000000       0.00000000       3.02020202       0.00000000       0.00000000      -1.62143731
2
Properties=species:S:1:pos:R:3:forces:R:3 energy=-1.0767714274882962 pbc="F F F"
Cl       0.00000000       0.00000000       0.00000000       0.00000000       0.00000000       1.26067698
Cl       0.00000000       0.00000000       3.07979798       0.00000000       0.00000000      -1.26067698
2
Properties=species:S:1:pos:R:3:forces:R:3 energy=-1.010039567793547 pbc="F F F"
Cl       0.00000000       0.00000000       0.00000000       0.00000000       0.00000000       0.99258912
Cl       0.00000000       0.00000000       3.13939394       0.00000000       0.00000000      -0.99258912
2
Properties=species:S:1:pos:R:3:forces:R:3 energy=-0.9570360732896119 pbc="F F F"
Cl       0.00000000       0.00000000       0.00000000       0.00000000       0.00000000       0.79637933
Cl       0.00000000       0.00000000       3.19898990       0.00000000       0.00000000      -0.79637933
2
Properties=species:S:1:pos:R:3:forces:R:3 energy=-0.9140866285049523 pbc="F F F"
Cl       0.00000000       0.00000000       0.00000000       0.00000000       0.00000000       0.65223360
Cl       0.00000000       0.00000000       3.25858586       0.00000000       0.00000000      -0.65223360
2
Properties=species:S:1:pos:R:3:forces:R:3 energy=-0.8785674154902027 pbc="F F F"
Cl       0.00000000       0.00000000       0.00000000       0.00000000       0.00000000       0.54487067
Cl       0.00000000       0.00000000       3.31818182       0.00000000       0.00000000      -0.54487067
2
Properties=species:S:1:pos:R:3:forces:R:3 energy=-0.8486324098970355 pbc="F F F"
Cl       0.00000000       0.00000000       0.00000000       0.00000000       0.00000000       0.46329826
Cl       0.00000000       0.00000000       3.37777778       0.00000000       0.00000000      -0.46329826
2
Properties=species:S:1:pos:R:3:forces:R:3 energy=-0.8229880284875538 pbc="F F F"
Cl       0.00000000       0.00000000       0.00000000       0.00000000       0.00000000       0.39982405
Cl       0.00000000       0.00000000       3.43737374       0.00000000       0.00000000      -0.39982405
2
Properties=species:S:1:pos:R:3:forces:R:3 energy=-0.8007225663994804 pbc="F F F"
Cl       0.00000000       0.00000000       0.00000000       0.00000000       0.00000000       0.34920430
Cl       0.00000000       0.00000000       3.49696970       0.00000000       0.00000000      -0.34920430
2
Properties=species:S:1:pos:R:3:forces:R:3 energy=-0.7811792966895432 pbc="F F F"
Cl       0.00000000       0.00000000       0.00000000       0.00000000       0.00000000       0.30800858
Cl       0.00000000       0.00000000       3.55656566       0.00000000       0.00000000      -0.30800858
2
Properties=species:S:1:pos:R:3:forces:R:3 energy=-0.7638661744643339 pbc="F F F"
Cl       0.00000000       0.00000000       0.00000000       0.00000000       0.00000000       0.27409050
Cl       0.00000000       0.00000000       3.61616162       0.00000000       0.00000000      -0.27409050
2
Properties=species:S:1:pos:R:3:forces:R:3 energy=-0.7483925397473608 pbc="F F F"
Cl       0.00000000       0.00000000       0.00000000       0.00000000       0.00000000       0.24610373
Cl       0.00000000       0.00000000       3.67575758       0.00000000       0.00000000      -0.24610373
2
Properties=species:S:1:pos:R:3:forces:R:3 energy=-0.7344334749014081 pbc="F F F"
Cl       0.00000000       0.00000000       0.00000000       0.00000000       0.00000000       0.22311893
Cl       0.00000000       0.00000000       3.73535354       0.00000000       0.00000000      -0.22311893
2
Properties=species:S:1:pos:R:3:forces:R:3 energy=-0.7217142349769448 pbc="F F F"
Cl       0.00000000       0.00000000       0.00000000       0.00000000       0.00000000       0.20437253
Cl       0.00000000       0.00000000       3.79494949       0.00000000       0.00000000      -0.20437253
2
Properties=species:S:1:pos:R:3:forces:R:3 energy=-0.7100039743852463 pbc="F F F"
Cl       0.00000000       0.00000000       0.00000000       0.00000000       0.00000000       0.18913570
Cl       0.00000000       0.00000000       3.85454545       0.00000000       0.00000000      -0.18913570
2
Properties=species:S:1:pos:R:3:forces:R:3 energy=-0.6991153833508416 pbc="F F F"
Cl       0.00000000       0.00000000       0.00000000       0.00000000       0.00000000       0.17669253
Cl       0.00000000       0.00000000       3.91414141       0.00000000       0.00000000      -0.17669253
2
Properties=species:S:1:pos:R:3:forces:R:3 energy=-0.6889018914529208 pbc="F F F"
Cl       0.00000000       0.00000000       0.00000000       0.00000000       0.00000000       0.16635059
Cl       0.00000000       0.00000000       3.97373737       0.00000000       0.00000000      -0.16635059
2
Properties=species:S:1:pos:R:3:forces:R:3 energy=-0.6792591547816123 pbc="F F F"
Cl       0.00000000       0.00000000       0.00000000       0.00000000       0.00000000       0.15744957
Cl       0.00000000       0.00000000       4.03333333       0.00000000       0.00000000      -0.15744957
2
Properties=species:S:1:pos:R:3:forces:R:3 energy=-0.6701191329033948 pbc="F F F"
Cl       0.00000000       0.00000000       0.00000000       0.00000000       0.00000000       0.14936376
Cl       0.00000000       0.00000000       4.09292929       0.00000000       0.00000000      -0.14936376
2
Properties=species:S:1:pos:R:3:forces:R:3 energy=-0.6614509670916582 pbc="F F F"
Cl       0.00000000       0.00000000       0.00000000       0.00000000       0.00000000       0.14153267
Cl       0.00000000       0.00000000       4.15252525       0.00000000       0.00000000      -0.14153267
2
Properties=species:S:1:pos:R:3:forces:R:3 energy=-0.6532527309190791 pbc="F F F"
Cl       0.00000000       0.00000000       0.00000000       0.00000000       0.00000000       0.13355543
Cl       0.00000000       0.00000000       4.21212121       0.00000000       0.00000000      -0.13355543
2
Properties=species:S:1:pos:R:3:forces:R:3 energy=-0.6455376027719881 pbc="F F F"
Cl       0.00000000       0.00000000       0.00000000       0.00000000       0.00000000       0.12532316
Cl       0.00000000       0.00000000       4.27171717       0.00000000       0.00000000      -0.12532316
2
Properties=species:S:1:pos:R:3:forces:R:3 energy=-0.6383149844332412 pbc="F F F"
Cl       0.00000000       0.00000000       0.00000000       0.00000000       0.00000000       0.11712001
Cl       0.00000000       0.00000000       4.33131313       0.00000000       0.00000000      -0.11712001
2
Properties=species:S:1:pos:R:3:forces:R:3 energy=-0.6315653764325235 pbc="F F F"
Cl       0.00000000       0.00000000       0.00000000       0.00000000       0.00000000       0.10955919
Cl       0.00000000       0.00000000       4.39090909       0.00000000       0.00000000      -0.10955919
2
Properties=species:S:1:pos:R:3:forces:R:3 energy=-0.6252291785007962 pbc="F F F"
Cl       0.00000000       0.00000000       0.00000000       0.00000000       0.00000000       0.10335302
Cl       0.00000000       0.00000000       4.45050505       0.00000000       0.00000000      -0.10335302
2
Properties=species:S:1:pos:R:3:forces:R:3 energy=-0.6192099573223581 pbc="F F F"
Cl       0.00000000       0.00000000       0.00000000       0.00000000       0.00000000       0.09897000
Cl       0.00000000       0.00000000       4.51010101       0.00000000       0.00000000      -0.09897000
2
Properties=species:S:1:pos:R:3:forces:R:3 energy=-0.6133973751081713 pbc="F F F"
Cl       0.00000000       0.00000000       0.00000000       0.00000000       0.00000000       0.09633745
Cl       0.00000000       0.00000000       4.56969697       0.00000000       0.00000000      -0.09633745
2
Properties=species:S:1:pos:R:3:forces:R:3 energy=-0.6077063654786102 pbc="F F F"
Cl       0.00000000       0.00000000       0.00000000       0.00000000       0.00000000       0.09472762
Cl       0.00000000       0.00000000       4.62929293       0.00000000       0.00000000      -0.09472762
2
Properties=species:S:1:pos:R:3:forces:R:3 energy=-0.6021110110764489 pbc="F F F"
Cl       0.00000000       0.00000000       0.00000000       0.00000000       0.00000000       0.09289894
Cl       0.00000000       0.00000000       4.68888889       0.00000000       0.00000000      -0.09289894
2
Properties=species:S:1:pos:R:3:forces:R:3 energy=-0.5966657057796214 pbc="F F F"
Cl       0.00000000       0.00000000       0.00000000       0.00000000       0.00000000       0.08947044
Cl       0.00000000       0.00000000       4.74848485       0.00000000       0.00000000      -0.08947044
2
Properties=species:S:1:pos:R:3:forces:R:3 energy=-0.5914988966094975 pbc="F F F"
Cl       0.00000000       0.00000000       0.00000000       0.00000000       0.00000000       0.08344936
Cl       0.00000000       0.00000000       4.80808081       0.00000000       0.00000000      -0.08344936
2
Properties=species:S:1:pos:R:3:forces:R:3 energy=-0.5867734559375947 pbc="F F F"
Cl       0.00000000       0.00000000       0.00000000       0.00000000       0.00000000       0.07473110
Cl       0.00000000       0.00000000       4.86767677       0.00000000       0.00000000      -0.07473110
2
Properties=species:S:1:pos:R:3:forces:R:3 energy=-0.5826239797751408 pbc="F F F"
Cl       0.00000000       0.00000000       0.00000000       0.00000000       0.00000000       0.06441655
Cl       0.00000000       0.00000000       4.92727273       0.00000000       0.00000000      -0.06441655
2
Properties=species:S:1:pos:R:3:forces:R:3 energy=-0.5790837334654012 pbc="F F F"
Cl       0.00000000       0.00000000       0.00000000       0.00000000       0.00000000       0.05471680
Cl       0.00000000       0.00000000       4.98686869       0.00000000       0.00000000      -0.05471680
2
Properties=species:S:1:pos:R:3:forces:R:3 energy=-0.5760360396361189 pbc="F F F"
Cl       0.00000000       0.00000000       0.00000000       0.00000000       0.00000000       0.04834273
Cl       0.00000000       0.00000000       5.04646465       0.00000000       0.00000000      -0.04834273
2
Properties=species:S:1:pos:R:3:forces:R:3 energy=-0.5732126668942173 pbc="F F F"
Cl       0.00000000       0.00000000       0.00000000       0.00000000       0.00000000       0.04740450
Cl       0.00000000       0.00000000       5.10606061       0.00000000       0.00000000      -0.04740450
2
Properties=species:S:1:pos:R:3:forces:R:3 energy=-0.5702702679270015 pbc="F F F"
Cl       0.00000000       0.00000000       0.00000000       0.00000000       0.00000000       0.05216126
Cl       0.00000000       0.00000000       5.16565657       0.00000000       0.00000000      -0.05216126
2
Properties=species:S:1:pos:R:3:forces:R:3 energy=-0.5669280062309665 pbc="F F F"
Cl       0.00000000       0.00000000       0.00000000       0.00000000       0.00000000       0.06022577
Cl       0.00000000       0.00000000       5.22525253       0.00000000       0.00000000      -0.06022577
2
Properties=species:S:1:pos:R:3:forces:R:3 energy=-0.5631146015624141 pbc="F F F"
Cl       0.00000000       0.00000000       0.00000000       0.00000000       0.00000000       0.06718975
Cl       0.00000000       0.00000000       5.28484848       0.00000000       0.00000000      -0.06718975
2
Properties=species:S:1:pos:R:3:forces:R:3 energy=-0.5590080949470289 pbc="F F F"
Cl       0.00000000       0.00000000       0.00000000       0.00000000       0.00000000       0.06994783
Cl       0.00000000       0.00000000       5.34444444       0.00000000       0.00000000      -0.06994783
2
Properties=species:S:1:pos:R:3:forces:R:3 energy=-0.5547853911504652 pbc="F F F"
Cl       0.00000000       0.00000000       0.00000000       0.00000000       0.00000000       0.07258418
Cl       0.00000000       0.00000000       5.40404040       0.00000000       0.00000000      -0.07258418
2
Properties=species:S:1:pos:R:3:forces:R:3 energy=-0.5501701552698484 pbc="F F F"
Cl       0.00000000       0.00000000       0.00000000       0.00000000       0.00000000       0.08382209
Cl       0.00000000       0.00000000       5.46363636       0.00000000       0.00000000      -0.08382209
2
Properties=species:S:1:pos:R:3:forces:R:3 energy=-0.5447792949298312 pbc="F F F"
Cl       0.00000000       0.00000000       0.00000000       0.00000000       0.00000000       0.09555202
Cl       0.00000000       0.00000000       5.52323232       0.00000000       0.00000000      -0.09555202
2
Properties=species:S:1:pos:R:3:forces:R:3 energy=-0.5390849210305472 pbc="F F F"
Cl       0.00000000       0.00000000       0.00000000       0.00000000       0.00000000       0.09313278
Cl       0.00000000       0.00000000       5.58282828       0.00000000       0.00000000      -0.09313278
2
Properties=species:S:1:pos:R:3:forces:R:3 energy=-0.5338335525653404 pbc="F F F"
Cl       0.00000000       0.00000000       0.00000000       0.00000000       0.00000000       0.08303992
Cl       0.00000000       0.00000000       5.64242424       0.00000000       0.00000000      -0.08303992
2
Properties=species:S:1:pos:R:3:forces:R:3 energy=-0.5290920288336355 pbc="F F F"
Cl       0.00000000       0.00000000       0.00000000       0.00000000       0.00000000       0.07701140
Cl       0.00000000       0.00000000       5.70202020       0.00000000       0.00000000      -0.07701140
2
Properties=species:S:1:pos:R:3:forces:R:3 energy=-0.5246572284033122 pbc="F F F"
Cl       0.00000000       0.00000000       0.00000000       0.00000000       0.00000000       0.07031050
Cl       0.00000000       0.00000000       5.76161616       0.00000000       0.00000000      -0.07031050
2
Properties=species:S:1:pos:R:3:forces:R:3 energy=-0.5210419834022798 pbc="F F F"
Cl       0.00000000       0.00000000       0.00000000       0.00000000       0.00000000       0.04841776
Cl       0.00000000       0.00000000       5.82121212       0.00000000       0.00000000      -0.04841776
2
Properties=species:S:1:pos:R:3:forces:R:3 energy=-0.5189727930578495 pbc="F F F"
Cl       0.00000000       0.00000000       0.00000000       0.00000000       0.00000000       0.02234551
Cl       0.00000000       0.00000000       5.88080808       0.00000000       0.00000000      -0.02234551
2
Properties=species:S:1:pos:R:3:forces:R:3 energy=-0.5181618434593716 pbc="F F F"
Cl       0.00000000       0.00000000       0.00000000       0.00000000       0.00000000       0.00655844
Cl       0.00000000       0.00000000       5.94040404       0.00000000       0.00000000      -0.00655844
2
Properties=species:S:1:pos:R:3:forces:R:3 energy=-0.5179767250499486 pbc="F F F"
Cl       0.00000000       0.00000000       0.00000000       0.00000000       0.00000000       0.00142215
Cl       0.00000000       0.00000000       6.00000000       0.00000000       0.00000000      -0.00142215
