2
Properties=species:S:1:pos:R:3:forces:R:3 energy=13048.178677373086 pbc="F F F"
Cr       0.00000000       0.00000000       0.00000000       0.00000000       0.00000000 -288363.81250000
Cr       0.00000000       0.00000000       0.10000000       0.00000000       0.00000000  288363.81250000
2
Properties=species:S:1:pos:R:3:forces:R:3 energy=4229.7900054980855 pbc="F F F"
Cr       0.00000000       0.00000000       0.00000000       0.00000000       0.00000000  -69290.58593750
Cr       0.00000000       0.00000000       0.15959596       0.00000000       0.00000000   69290.58593750
2
Properties=species:S:1:pos:R:3:forces:R:3 energy=1765.0899322558978 pbc="F F F"
Cr       0.00000000       0.00000000       0.00000000       0.00000000       0.00000000  -23295.06445312
Cr       0.00000000       0.00000000       0.21919192       0.00000000       0.00000000   23295.06445312
2
Properties=species:S:1:pos:R:3:forces:R:3 energy=859.6012237629719 pbc="F F F"
Cr       0.00000000       0.00000000       0.00000000       0.00000000       0.00000000   -9507.85742188
Cr       0.00000000       0.00000000       0.27878788       0.00000000       0.00000000    9507.85742188
2
Properties=species:S:1:pos:R:3:forces:R:3 energy=468.14757996414386 pbc="F F F"
Cr       0.00000000       0.00000000       0.00000000       0.00000000       0.00000000   -4389.71386719
Cr       0.00000000       0.00000000       0.33838384       0.00000000       0.00000000    4389.71386719
2
Properties=species:S:1:pos:R:3:forces:R:3 energy=280.29256898415133 pbc="F F F"
Cr       0.00000000       0.00000000       0.00000000       0.00000000       0.00000000   -2200.33349609
Cr       0.00000000       0.00000000       0.39797980       0.00000000       0.00000000    2200.33349609
2
Properties=species:S:1:pos:R:3:forces:R:3 energy=183.47294314549828 pbc="F F F"
Cr       0.00000000       0.00000000       0.00000000       0.00000000       0.00000000   -1170.75329590
Cr       0.00000000       0.00000000       0.45757576       0.00000000       0.00000000    1170.75329590
2
Properties=species:S:1:pos:R:3:forces:R:3 energy=130.74123846209463 pbc="F F F"
Cr       0.00000000       0.00000000       0.00000000       0.00000000       0.00000000    -656.01574707
Cr       0.00000000       0.00000000       0.51717172       0.00000000       0.00000000     656.01574707
2
Properties=species:S:1:pos:R:3:forces:R:3 energy=100.41172496297509 pbc="F F F"
Cr       0.00000000       0.00000000       0.00000000       0.00000000       0.00000000    -390.82684326
Cr       0.00000000       0.00000000       0.57676768       0.00000000       0.00000000     390.82684326
2
Properties=species:S:1:pos:R:3:forces:R:3 energy=81.57291126993582 pbc="F F F"
Cr       0.00000000       0.00000000       0.00000000       0.00000000       0.00000000    -257.90725708
Cr       0.00000000       0.00000000       0.63636364       0.00000000       0.00000000     257.90725708
2
Properties=species:S:1:pos:R:3:forces:R:3 energy=68.16003145913669 pbc="F F F"
Cr       0.00000000       0.00000000       0.00000000       0.00000000       0.00000000    -201.13102722
Cr       0.00000000       0.00000000       0.69595960       0.00000000       0.00000000     201.13102722
2
Properties=species:S:1:pos:R:3:forces:R:3 energy=56.81435143773219 pbc="F F F"
Cr       0.00000000       0.00000000       0.00000000       0.00000000       0.00000000    -183.89620972
Cr       0.00000000       0.00000000       0.75555556       0.00000000       0.00000000     183.89620972
2
Properties=species:S:1:pos:R:3:forces:R:3 energy=46.05736322912379 pbc="F F F"
Cr       0.00000000       0.00000000       0.00000000       0.00000000       0.00000000    -178.37969971
Cr       0.00000000       0.00000000       0.81515152       0.00000000       0.00000000     178.37969971
2
Properties=species:S:1:pos:R:3:forces:R:3 energy=35.47656839720423 pbc="F F F"
Cr       0.00000000       0.00000000       0.00000000       0.00000000       0.00000000    -174.51622009
Cr       0.00000000       0.00000000       0.87474747       0.00000000       0.00000000     174.51622009
2
Properties=species:S:1:pos:R:3:forces:R:3 energy=25.44104849618673 pbc="F F F"
Cr       0.00000000       0.00000000       0.00000000       0.00000000       0.00000000    -162.56626892
Cr       0.00000000       0.00000000       0.93434343       0.00000000       0.00000000     162.56626892
2
Properties=species:S:1:pos:R:3:forces:R:3 energy=16.13320904539036 pbc="F F F"
Cr       0.00000000       0.00000000       0.00000000       0.00000000       0.00000000    -147.74421692
Cr       0.00000000       0.00000000       0.99393939       0.00000000       0.00000000     147.74421692
2
Properties=species:S:1:pos:R:3:forces:R:3 energy=8.222420778423615 pbc="F F F"
Cr       0.00000000       0.00000000       0.00000000       0.00000000       0.00000000    -114.90579987
Cr       0.00000000       0.00000000       1.05353535       0.00000000       0.00000000     114.90579987
2
Properties=species:S:1:pos:R:3:forces:R:3 energy=2.512690357355781 pbc="F F F"
Cr       0.00000000       0.00000000       0.00000000       0.00000000       0.00000000     -77.61933899
Cr       0.00000000       0.00000000       1.11313131       0.00000000       0.00000000      77.61933899
2
Properties=species:S:1:pos:R:3:forces:R:3 energy=-1.2617082027525506 pbc="F F F"
Cr       0.00000000       0.00000000       0.00000000       0.00000000       0.00000000     -51.72212982
Cr       0.00000000       0.00000000       1.17272727       0.00000000       0.00000000      51.72212982
2
Properties=species:S:1:pos:R:3:forces:R:3 energy=-3.92529298525949 pbc="F F F"
Cr       0.00000000       0.00000000       0.00000000       0.00000000       0.00000000     -39.34016418
Cr       0.00000000       0.00000000       1.23232323       0.00000000       0.00000000      39.34016418
2
Properties=species:S:1:pos:R:3:forces:R:3 energy=-6.074321032048296 pbc="F F F"
Cr       0.00000000       0.00000000       0.00000000       0.00000000       0.00000000     -33.18112564
Cr       0.00000000       0.00000000       1.29191919       0.00000000       0.00000000      33.18112564
2
Properties=species:S:1:pos:R:3:forces:R:3 energy=-7.8826508273059845 pbc="F F F"
Cr       0.00000000       0.00000000       0.00000000       0.00000000       0.00000000     -27.37553978
Cr       0.00000000       0.00000000       1.35151515       0.00000000       0.00000000      27.37553978
2
Properties=species:S:1:pos:R:3:forces:R:3 energy=-9.32828565751274 pbc="F F F"
Cr       0.00000000       0.00000000       0.00000000       0.00000000       0.00000000     -21.15725708
Cr       0.00000000       0.00000000       1.41111111       0.00000000       0.00000000      21.15725708
2
Properties=species:S:1:pos:R:3:forces:R:3 energy=-10.415789586199333 pbc="F F F"
Cr       0.00000000       0.00000000       0.00000000       0.00000000       0.00000000     -15.47859859
Cr       0.00000000       0.00000000       1.47070707       0.00000000       0.00000000      15.47859859
2
Properties=species:S:1:pos:R:3:forces:R:3 energy=-11.190158621536671 pbc="F F F"
Cr       0.00000000       0.00000000       0.00000000       0.00000000       0.00000000     -10.64186287
Cr       0.00000000       0.00000000       1.53030303       0.00000000       0.00000000      10.64186287
2
Properties=species:S:1:pos:R:3:forces:R:3 energy=-11.699919229665488 pbc="F F F"
Cr       0.00000000       0.00000000       0.00000000       0.00000000       0.00000000      -6.60567141
Cr       0.00000000       0.00000000       1.58989899       0.00000000       0.00000000       6.60567141
2
Properties=species:S:1:pos:R:3:forces:R:3 energy=-11.995546341060889 pbc="F F F"
Cr       0.00000000       0.00000000       0.00000000       0.00000000       0.00000000      -3.47031236
Cr       0.00000000       0.00000000       1.64949495       0.00000000       0.00000000       3.47031236
2
Properties=species:S:1:pos:R:3:forces:R:3 energy=-12.130711627849148 pbc="F F F"
Cr       0.00000000       0.00000000       0.00000000       0.00000000       0.00000000      -1.19201434
Cr       0.00000000       0.00000000       1.70909091       0.00000000       0.00000000       1.19201434
2
Properties=species:S:1:pos:R:3:forces:R:3 energy=-12.150196001797301 pbc="F F F"
Cr       0.00000000       0.00000000       0.00000000       0.00000000       0.00000000       0.45182300
Cr       0.00000000       0.00000000       1.76868687       0.00000000       0.00000000      -0.45182300
2
Properties=species:S:1:pos:R:3:forces:R:3 energy=-12.08558401869687 pbc="F F F"
Cr       0.00000000       0.00000000       0.00000000       0.00000000       0.00000000       1.65089715
Cr       0.00000000       0.00000000       1.82828283       0.00000000       0.00000000      -1.65089715
2
Properties=species:S:1:pos:R:3:forces:R:3 energy=-11.961226867915364 pbc="F F F"
Cr       0.00000000       0.00000000       0.00000000       0.00000000       0.00000000       2.45403647
Cr       0.00000000       0.00000000       1.88787879       0.00000000       0.00000000      -2.45403647
2
Properties=species:S:1:pos:R:3:forces:R:3 energy=-11.801519832434511 pbc="F F F"
Cr       0.00000000       0.00000000       0.00000000       0.00000000       0.00000000       2.83617878
Cr       0.00000000       0.00000000       1.94747475       0.00000000       0.00000000      -2.83617878
2
Properties=species:S:1:pos:R:3:forces:R:3 energy=-11.630401305403533 pbc="F F F"
Cr       0.00000000       0.00000000       0.00000000       0.00000000       0.00000000       2.85907626
Cr       0.00000000       0.00000000       2.00707071       0.00000000       0.00000000      -2.85907626
2
Properties=species:S:1:pos:R:3:forces:R:3 energy=-11.464392386653845 pbc="F F F"
Cr       0.00000000       0.00000000       0.00000000       0.00000000       0.00000000       2.69793820
Cr       0.00000000       0.00000000       2.06666667       0.00000000       0.00000000      -2.69793820
2
Properties=species:S:1:pos:R:3:forces:R:3 energy=-11.309010233332895 pbc="F F F"
Cr       0.00000000       0.00000000       0.00000000       0.00000000       0.00000000       2.52337360
Cr       0.00000000       0.00000000       2.12626263       0.00000000       0.00000000      -2.52337360
2
Properties=species:S:1:pos:R:3:forces:R:3 energy=-11.162795555463958 pbc="F F F"
Cr       0.00000000       0.00000000       0.00000000       0.00000000       0.00000000       2.38505483
Cr       0.00000000       0.00000000       2.18585859       0.00000000       0.00000000      -2.38505483
2
Properties=species:S:1:pos:R:3:forces:R:3 energy=-11.025958806266038 pbc="F F F"
Cr       0.00000000       0.00000000       0.00000000       0.00000000       0.00000000       2.18311310
Cr       0.00000000       0.00000000       2.24545455       0.00000000       0.00000000      -2.18311310
2
Properties=species:S:1:pos:R:3:forces:R:3 energy=-10.906869122037241 pbc="F F F"
Cr       0.00000000       0.00000000       0.00000000       0.00000000       0.00000000       1.76880682
Cr       0.00000000       0.00000000       2.30505051       0.00000000       0.00000000      -1.76880682
2
Properties=species:S:1:pos:R:3:forces:R:3 energy=-10.82076355884973 pbc="F F F"
Cr       0.00000000       0.00000000       0.00000000       0.00000000       0.00000000       1.07496130
Cr       0.00000000       0.00000000       2.36464646       0.00000000       0.00000000      -1.07496130
2
Properties=species:S:1:pos:R:3:forces:R:3 energy=-10.783503755938405 pbc="F F F"
Cr       0.00000000       0.00000000       0.00000000       0.00000000       0.00000000       0.14390543
Cr       0.00000000       0.00000000       2.42424242       0.00000000       0.00000000      -0.14390543
2
Properties=species:S:1:pos:R:3:forces:R:3 energy=-10.805926326822195 pbc="F F F"
Cr       0.00000000       0.00000000       0.00000000       0.00000000       0.00000000      -0.90136051
Cr       0.00000000       0.00000000       2.48383838       0.00000000       0.00000000       0.90136051
2
Properties=species:S:1:pos:R:3:forces:R:3 energy=-10.889386347927713 pbc="F F F"
Cr       0.00000000       0.00000000       0.00000000       0.00000000       0.00000000      -1.86689436
Cr       0.00000000       0.00000000       2.54343434       0.00000000       0.00000000       1.86689436
2
Properties=species:S:1:pos:R:3:forces:R:3 energy=-11.022236458653028 pbc="F F F"
Cr       0.00000000       0.00000000       0.00000000       0.00000000       0.00000000      -2.52175379
Cr       0.00000000       0.00000000       2.60303030       0.00000000       0.00000000       2.52175379
2
Properties=species:S:1:pos:R:3:forces:R:3 energy=-11.180273559610747 pbc="F F F"
Cr       0.00000000       0.00000000       0.00000000       0.00000000       0.00000000      -2.69512320
Cr       0.00000000       0.00000000       2.66262626       0.00000000       0.00000000       2.69512320
2
Properties=species:S:1:pos:R:3:forces:R:3 energy=-11.333803744570591 pbc="F F F"
Cr       0.00000000       0.00000000       0.00000000       0.00000000       0.00000000      -2.38902044
Cr       0.00000000       0.00000000       2.72222222       0.00000000       0.00000000       2.38902044
2
Properties=species:S:1:pos:R:3:forces:R:3 energy=-11.45924260346731 pbc="F F F"
Cr       0.00000000       0.00000000       0.00000000       0.00000000       0.00000000      -1.79280674
Cr       0.00000000       0.00000000       2.78181818       0.00000000       0.00000000       1.79280674
2
Properties=species:S:1:pos:R:3:forces:R:3 energy=-11.546347923279242 pbc="F F F"
Cr       0.00000000       0.00000000       0.00000000       0.00000000       0.00000000      -1.13606107
Cr       0.00000000       0.00000000       2.84141414       0.00000000       0.00000000       1.13606107
2
Properties=species:S:1:pos:R:3:forces:R:3 energy=-11.596657578604116 pbc="F F F"
Cr       0.00000000       0.00000000       0.00000000       0.00000000       0.00000000      -0.57760793
Cr       0.00000000       0.00000000       2.90101010       0.00000000       0.00000000       0.57760793
2
Properties=species:S:1:pos:R:3:forces:R:3 energy=-11.618733849509564 pbc="F F F"
Cr       0.00000000       0.00000000       0.00000000       0.00000000       0.00000000      -0.19487849
Cr       0.00000000       0.00000000       2.96060606       0.00000000       0.00000000       0.19487849
2
Properties=species:S:1:pos:R:3:forces:R:3 energy=-11.623468051599268 pbc="F F F"
Cr       0.00000000       0.00000000       0.00000000       0.00000000       0.00000000       0.00949211
Cr       0.00000000       0.00000000       3.02020202       0.00000000       0.00000000      -0.00949211
2
Properties=species:S:1:pos:R:3:forces:R:3 energy=-11.620099025269967 pbc="F F F"
Cr       0.00000000       0.00000000       0.00000000       0.00000000       0.00000000       0.08888233
Cr       0.00000000       0.00000000       3.07979798       0.00000000       0.00000000      -0.08888233
2
Properties=species:S:1:pos:R:3:forces:R:3 energy=-11.613883501241272 pbc="F F F"
Cr       0.00000000       0.00000000       0.00000000       0.00000000       0.00000000       0.11691404
Cr       0.00000000       0.00000000       3.13939394       0.00000000       0.00000000      -0.11691404
2
Properties=species:S:1:pos:R:3:forces:R:3 energy=-11.605978345848355 pbc="F F F"
Cr       0.00000000       0.00000000       0.00000000       0.00000000       0.00000000       0.15312016
Cr       0.00000000       0.00000000       3.19898990       0.00000000       0.00000000      -0.15312016
2
Properties=species:S:1:pos:R:3:forces:R:3 energy=-11.594882276304245 pbc="F F F"
Cr       0.00000000       0.00000000       0.00000000       0.00000000       0.00000000       0.22614536
Cr       0.00000000       0.00000000       3.25858586       0.00000000       0.00000000      -0.22614536
2
Properties=species:S:1:pos:R:3:forces:R:3 energy=-11.578290455502893 pbc="F F F"
Cr       0.00000000       0.00000000       0.00000000       0.00000000       0.00000000       0.33554268
Cr       0.00000000       0.00000000       3.31818182       0.00000000       0.00000000      -0.33554268
2
Properties=species:S:1:pos:R:3:forces:R:3 energy=-11.554514062925843 pbc="F F F"
Cr       0.00000000       0.00000000       0.00000000       0.00000000       0.00000000       0.46363631
Cr       0.00000000       0.00000000       3.37777778       0.00000000       0.00000000      -0.46363631
2
Properties=species:S:1:pos:R:3:forces:R:3 energy=-11.523102445092618 pbc="F F F"
Cr       0.00000000       0.00000000       0.00000000       0.00000000       0.00000000       0.58815616
Cr       0.00000000       0.00000000       3.43737374       0.00000000       0.00000000      -0.58815616
2
Properties=species:S:1:pos:R:3:forces:R:3 energy=-11.484853891082196 pbc="F F F"
Cr       0.00000000       0.00000000       0.00000000       0.00000000       0.00000000       0.69054633
Cr       0.00000000       0.00000000       3.49696970       0.00000000       0.00000000      -0.69054633
2
Properties=species:S:1:pos:R:3:forces:R:3 energy=-11.441467699798617 pbc="F F F"
Cr       0.00000000       0.00000000       0.00000000       0.00000000       0.00000000       0.75932670
Cr       0.00000000       0.00000000       3.55656566       0.00000000       0.00000000      -0.75932670
2
Properties=species:S:1:pos:R:3:forces:R:3 energy=-11.395103690142772 pbc="F F F"
Cr       0.00000000       0.00000000       0.00000000       0.00000000       0.00000000       0.79029149
Cr       0.00000000       0.00000000       3.61616162       0.00000000       0.00000000      -0.79029149
2
Properties=species:S:1:pos:R:3:forces:R:3 energy=-11.347989420242564 pbc="F F F"
Cr       0.00000000       0.00000000       0.00000000       0.00000000       0.00000000       0.78522992
Cr       0.00000000       0.00000000       3.67575758       0.00000000       0.00000000      -0.78522992
2
Properties=species:S:1:pos:R:3:forces:R:3 energy=-11.302111196974394 pbc="F F F"
Cr       0.00000000       0.00000000       0.00000000       0.00000000       0.00000000       0.75002390
Cr       0.00000000       0.00000000       3.73535354       0.00000000       0.00000000      -0.75002390
2
Properties=species:S:1:pos:R:3:forces:R:3 energy=-11.259035916264034 pbc="F F F"
Cr       0.00000000       0.00000000       0.00000000       0.00000000       0.00000000       0.69252867
Cr       0.00000000       0.00000000       3.79494949       0.00000000       0.00000000      -0.69252867
2
Properties=species:S:1:pos:R:3:forces:R:3 energy=-11.2198519479503 pbc="F F F"
Cr       0.00000000       0.00000000       0.00000000       0.00000000       0.00000000       0.62063903
Cr       0.00000000       0.00000000       3.85454545       0.00000000       0.00000000      -0.62063903
2
Properties=species:S:1:pos:R:3:forces:R:3 energy=-11.185214880474012 pbc="F F F"
Cr       0.00000000       0.00000000       0.00000000       0.00000000       0.00000000       0.54095435
Cr       0.00000000       0.00000000       3.91414141       0.00000000       0.00000000      -0.54095435
2
Properties=species:S:1:pos:R:3:forces:R:3 energy=-11.155433294545682 pbc="F F F"
Cr       0.00000000       0.00000000       0.00000000       0.00000000       0.00000000       0.45825228
Cr       0.00000000       0.00000000       3.97373737       0.00000000       0.00000000      -0.45825228
2
Properties=species:S:1:pos:R:3:forces:R:3 energy=-11.130589943140132 pbc="F F F"
Cr       0.00000000       0.00000000       0.00000000       0.00000000       0.00000000       0.37573537
Cr       0.00000000       0.00000000       4.03333333       0.00000000       0.00000000      -0.37573537
2
Properties=species:S:1:pos:R:3:forces:R:3 energy=-11.110598775550507 pbc="F F F"
Cr       0.00000000       0.00000000       0.00000000       0.00000000       0.00000000       0.29573372
Cr       0.00000000       0.00000000       4.09292929       0.00000000       0.00000000      -0.29573372
2
Properties=species:S:1:pos:R:3:forces:R:3 energy=-11.095244864996681 pbc="F F F"
Cr       0.00000000       0.00000000       0.00000000       0.00000000       0.00000000       0.22055510
Cr       0.00000000       0.00000000       4.15252525       0.00000000       0.00000000      -0.22055510
2
Properties=species:S:1:pos:R:3:forces:R:3 energy=-11.0841594800445 pbc="F F F"
Cr       0.00000000       0.00000000       0.00000000       0.00000000       0.00000000       0.15300189
Cr       0.00000000       0.00000000       4.21212121       0.00000000       0.00000000      -0.15300189
2
Properties=species:S:1:pos:R:3:forces:R:3 energy=-11.07679121461487 pbc="F F F"
Cr       0.00000000       0.00000000       0.00000000       0.00000000       0.00000000       0.09638837
Cr       0.00000000       0.00000000       4.27171717       0.00000000       0.00000000      -0.09638837
2
Properties=species:S:1:pos:R:3:forces:R:3 energy=-11.072387779472724 pbc="F F F"
Cr       0.00000000       0.00000000       0.00000000       0.00000000       0.00000000       0.05401248
Cr       0.00000000       0.00000000       4.33131313       0.00000000       0.00000000      -0.05401248
2
Properties=species:S:1:pos:R:3:forces:R:3 energy=-11.070021437819182 pbc="F F F"
Cr       0.00000000       0.00000000       0.00000000       0.00000000       0.00000000       0.02830150
Cr       0.00000000       0.00000000       4.39090909       0.00000000       0.00000000      -0.02830150
2
Properties=species:S:1:pos:R:3:forces:R:3 energy=-11.068667019683978 pbc="F F F"
Cr       0.00000000       0.00000000       0.00000000       0.00000000       0.00000000       0.02000960
Cr       0.00000000       0.00000000       4.45050505       0.00000000       0.00000000      -0.02000960
2
Properties=species:S:1:pos:R:3:forces:R:3 energy=-11.06731620128451 pbc="F F F"
Cr       0.00000000       0.00000000       0.00000000       0.00000000       0.00000000       0.02775488
Cr       0.00000000       0.00000000       4.51010101       0.00000000       0.00000000      -0.02775488
2
Properties=species:S:1:pos:R:3:forces:R:3 energy=-11.065107854296249 pbc="F F F"
Cr       0.00000000       0.00000000       0.00000000       0.00000000       0.00000000       0.04806061
Cr       0.00000000       0.00000000       4.56969697       0.00000000       0.00000000      -0.04806061
2
Properties=species:S:1:pos:R:3:forces:R:3 energy=-11.061437743741715 pbc="F F F"
Cr       0.00000000       0.00000000       0.00000000       0.00000000       0.00000000       0.07586367
Cr       0.00000000       0.00000000       4.62929293       0.00000000       0.00000000      -0.07586367
2
Properties=species:S:1:pos:R:3:forces:R:3 energy=-11.056032645322265 pbc="F F F"
Cr       0.00000000       0.00000000       0.00000000       0.00000000       0.00000000       0.10535517
Cr       0.00000000       0.00000000       4.68888889       0.00000000       0.00000000      -0.10535517
2
Properties=species:S:1:pos:R:3:forces:R:3 energy=-11.048957958973523 pbc="F F F"
Cr       0.00000000       0.00000000       0.00000000       0.00000000       0.00000000       0.13100466
Cr       0.00000000       0.00000000       4.74848485       0.00000000       0.00000000      -0.13100466
2
Properties=species:S:1:pos:R:3:forces:R:3 energy=-11.040579409837246 pbc="F F F"
Cr       0.00000000       0.00000000       0.00000000       0.00000000       0.00000000       0.14859810
Cr       0.00000000       0.00000000       4.80808081       0.00000000       0.00000000      -0.14859810
2
Properties=species:S:1:pos:R:3:forces:R:3 energy=-11.031447748703721 pbc="F F F"
Cr       0.00000000       0.00000000       0.00000000       0.00000000       0.00000000       0.15615228
Cr       0.00000000       0.00000000       4.86767677       0.00000000       0.00000000      -0.15615228
2
Properties=species:S:1:pos:R:3:forces:R:3 energy=-11.022153736494861 pbc="F F F"
Cr       0.00000000       0.00000000       0.00000000       0.00000000       0.00000000       0.15439087
Cr       0.00000000       0.00000000       4.92727273       0.00000000       0.00000000      -0.15439087
2
Properties=species:S:1:pos:R:3:forces:R:3 energy=-11.013166998647309 pbc="F F F"
Cr       0.00000000       0.00000000       0.00000000       0.00000000       0.00000000       0.14652266
Cr       0.00000000       0.00000000       4.98686869       0.00000000       0.00000000      -0.14652266
2
Properties=species:S:1:pos:R:3:forces:R:3 energy=-11.004720712883536 pbc="F F F"
Cr       0.00000000       0.00000000       0.00000000       0.00000000       0.00000000       0.13709074
Cr       0.00000000       0.00000000       5.04646465       0.00000000       0.00000000      -0.13709074
2
Properties=species:S:1:pos:R:3:forces:R:3 energy=-10.99678011261682 pbc="F F F"
Cr       0.00000000       0.00000000       0.00000000       0.00000000       0.00000000       0.12995133
Cr       0.00000000       0.00000000       5.10606061       0.00000000       0.00000000      -0.12995133
2
Properties=species:S:1:pos:R:3:forces:R:3 energy=-10.989162858991365 pbc="F F F"
Cr       0.00000000       0.00000000       0.00000000       0.00000000       0.00000000       0.12603602
Cr       0.00000000       0.00000000       5.16565657       0.00000000       0.00000000      -0.12603602
2
Properties=species:S:1:pos:R:3:forces:R:3 energy=-10.981754574445652 pbc="F F F"
Cr       0.00000000       0.00000000       0.00000000       0.00000000       0.00000000       0.12217586
Cr       0.00000000       0.00000000       5.22525253       0.00000000       0.00000000      -0.12217586
2
Properties=species:S:1:pos:R:3:forces:R:3 energy=-10.974701557784238 pbc="F F F"
Cr       0.00000000       0.00000000       0.00000000       0.00000000       0.00000000       0.11345474
Cr       0.00000000       0.00000000       5.28484848       0.00000000       0.00000000      -0.11345474
2
Properties=species:S:1:pos:R:3:forces:R:3 energy=-10.968304119958068 pbc="F F F"
Cr       0.00000000       0.00000000       0.00000000       0.00000000       0.00000000       0.10167394
Cr       0.00000000       0.00000000       5.34444444       0.00000000       0.00000000      -0.10167394
2
Properties=species:S:1:pos:R:3:forces:R:3 energy=-10.962321388749935 pbc="F F F"
Cr       0.00000000       0.00000000       0.00000000       0.00000000       0.00000000       0.10300626
Cr       0.00000000       0.00000000       5.40404040       0.00000000       0.00000000      -0.10300626
2
Properties=species:S:1:pos:R:3:forces:R:3 energy=-10.955549894016501 pbc="F F F"
Cr       0.00000000       0.00000000       0.00000000       0.00000000       0.00000000       0.12633520
Cr       0.00000000       0.00000000       5.46363636       0.00000000       0.00000000      -0.12633520
2
Properties=species:S:1:pos:R:3:forces:R:3 energy=-10.947473473356917 pbc="F F F"
Cr       0.00000000       0.00000000       0.00000000       0.00000000       0.00000000       0.13961861
Cr       0.00000000       0.00000000       5.52323232       0.00000000       0.00000000      -0.13961861
2
Properties=species:S:1:pos:R:3:forces:R:3 energy=-10.939597562267876 pbc="F F F"
Cr       0.00000000       0.00000000       0.00000000       0.00000000       0.00000000       0.12057887
Cr       0.00000000       0.00000000       5.58282828       0.00000000       0.00000000      -0.12057887
2
Properties=species:S:1:pos:R:3:forces:R:3 energy=-10.933191843868855 pbc="F F F"
Cr       0.00000000       0.00000000       0.00000000       0.00000000       0.00000000       0.09696434
Cr       0.00000000       0.00000000       5.64242424       0.00000000       0.00000000      -0.09696434
2
Properties=species:S:1:pos:R:3:forces:R:3 energy=-10.927481249101136 pbc="F F F"
Cr       0.00000000       0.00000000       0.00000000       0.00000000       0.00000000       0.09986047
Cr       0.00000000       0.00000000       5.70202020       0.00000000       0.00000000      -0.09986047
2
Properties=species:S:1:pos:R:3:forces:R:3 energy=-10.920936290749196 pbc="F F F"
Cr       0.00000000       0.00000000       0.00000000       0.00000000       0.00000000       0.11910941
Cr       0.00000000       0.00000000       5.76161616       0.00000000       0.00000000      -0.11910941
2
Properties=species:S:1:pos:R:3:forces:R:3 energy=-10.913853720396093 pbc="F F F"
Cr       0.00000000       0.00000000       0.00000000       0.00000000       0.00000000       0.11146405
Cr       0.00000000       0.00000000       5.82121212       0.00000000       0.00000000      -0.11146405
2
Properties=species:S:1:pos:R:3:forces:R:3 energy=-10.90835279767349 pbc="F F F"
Cr       0.00000000       0.00000000       0.00000000       0.00000000       0.00000000       0.07055351
Cr       0.00000000       0.00000000       5.88080808       0.00000000       0.00000000      -0.07055351
2
Properties=species:S:1:pos:R:3:forces:R:3 energy=-10.905441757970092 pbc="F F F"
Cr       0.00000000       0.00000000       0.00000000       0.00000000       0.00000000       0.02880959
Cr       0.00000000       0.00000000       5.94040404       0.00000000       0.00000000      -0.02880959
2
Properties=species:S:1:pos:R:3:forces:R:3 energy=-10.904398944324537 pbc="F F F"
Cr       0.00000000       0.00000000       0.00000000       0.00000000       0.00000000       0.01175158
Cr       0.00000000       0.00000000       6.00000000       0.00000000       0.00000000      -0.01175158
