2
Properties=species:S:1:pos:R:3:forces:R:3 energy=378.7082367974285 pbc="F F F"
Li       0.00000000       0.00000000       0.00000000       0.00000000       0.00000000   -6662.75244141
Li       0.00000000       0.00000000       0.10000000       0.00000000       0.00000000    6662.75244141
2
Properties=species:S:1:pos:R:3:forces:R:3 energy=156.1485596734051 pbc="F F F"
Li       0.00000000       0.00000000       0.00000000       0.00000000       0.00000000   -1997.49780273
Li       0.00000000       0.00000000       0.15959596       0.00000000       0.00000000    1997.49780273
2
Properties=species:S:1:pos:R:3:forces:R:3 energy=79.03602610406915 pbc="F F F"
Li       0.00000000       0.00000000       0.00000000       0.00000000       0.00000000    -810.34375000
Li       0.00000000       0.00000000       0.21919192       0.00000000       0.00000000     810.34375000
2
Properties=species:S:1:pos:R:3:forces:R:3 energy=45.31855021295586 pbc="F F F"
Li       0.00000000       0.00000000       0.00000000       0.00000000       0.00000000    -385.02597046
Li       0.00000000       0.00000000       0.27878788       0.00000000       0.00000000     385.02597046
2
Properties=species:S:1:pos:R:3:forces:R:3 energy=28.502929790592585 pbc="F F F"
Li       0.00000000       0.00000000       0.00000000       0.00000000       0.00000000    -202.67210388
Li       0.00000000       0.00000000       0.33838384       0.00000000       0.00000000     202.67210388
2
Properties=species:S:1:pos:R:3:forces:R:3 energy=19.33721934454166 pbc="F F F"
Li       0.00000000       0.00000000       0.00000000       0.00000000       0.00000000    -114.81247711
Li       0.00000000       0.00000000       0.39797980       0.00000000       0.00000000     114.81247711
2
Properties=species:S:1:pos:R:3:forces:R:3 energy=14.005842321458356 pbc="F F F"
Li       0.00000000       0.00000000       0.00000000       0.00000000       0.00000000     -68.75923157
Li       0.00000000       0.00000000       0.45757576       0.00000000       0.00000000      68.75923157
2
Properties=species:S:1:pos:R:3:forces:R:3 energy=10.7419463472492 pbc="F F F"
Li       0.00000000       0.00000000       0.00000000       0.00000000       0.00000000     -43.18486404
Li       0.00000000       0.00000000       0.51717172       0.00000000       0.00000000      43.18486404
2
Properties=species:S:1:pos:R:3:forces:R:3 energy=8.641900213170953 pbc="F F F"
Li       0.00000000       0.00000000       0.00000000       0.00000000       0.00000000     -28.66776276
Li       0.00000000       0.00000000       0.57676768       0.00000000       0.00000000      28.66776276
2
Properties=species:S:1:pos:R:3:forces:R:3 energy=7.195228765283939 pbc="F F F"
Li       0.00000000       0.00000000       0.00000000       0.00000000       0.00000000     -20.75056267
Li       0.00000000       0.00000000       0.63636364       0.00000000       0.00000000      20.75056267
2
Properties=species:S:1:pos:R:3:forces:R:3 energy=6.082073463650147 pbc="F F F"
Li       0.00000000       0.00000000       0.00000000       0.00000000       0.00000000     -17.22936440
Li       0.00000000       0.00000000       0.69595960       0.00000000       0.00000000      17.22936440
2
Properties=species:S:1:pos:R:3:forces:R:3 energy=5.074859015649021 pbc="F F F"
Li       0.00000000       0.00000000       0.00000000       0.00000000       0.00000000     -17.05647659
Li       0.00000000       0.00000000       0.75555556       0.00000000       0.00000000      17.05647659
2
Properties=species:S:1:pos:R:3:forces:R:3 energy=4.0186376762309 pbc="F F F"
Li       0.00000000       0.00000000       0.00000000       0.00000000       0.00000000     -18.30514145
Li       0.00000000       0.00000000       0.81515152       0.00000000       0.00000000      18.30514145
2
Properties=species:S:1:pos:R:3:forces:R:3 energy=2.925845612739413 pbc="F F F"
Li       0.00000000       0.00000000       0.00000000       0.00000000       0.00000000     -18.09392548
Li       0.00000000       0.00000000       0.87474747       0.00000000       0.00000000      18.09392548
2
Properties=species:S:1:pos:R:3:forces:R:3 energy=1.8881569383649877 pbc="F F F"
Li       0.00000000       0.00000000       0.00000000       0.00000000       0.00000000     -16.52068520
Li       0.00000000       0.00000000       0.93434343       0.00000000       0.00000000      16.52068520
2
Properties=species:S:1:pos:R:3:forces:R:3 energy=0.9818532871851446 pbc="F F F"
Li       0.00000000       0.00000000       0.00000000       0.00000000       0.00000000     -13.69430828
Li       0.00000000       0.00000000       0.99393939       0.00000000       0.00000000      13.69430828
2
Properties=species:S:1:pos:R:3:forces:R:3 energy=0.2808845674933453 pbc="F F F"
Li       0.00000000       0.00000000       0.00000000       0.00000000       0.00000000      -9.58695793
Li       0.00000000       0.00000000       1.05353535       0.00000000       0.00000000       9.58695793
2
Properties=species:S:1:pos:R:3:forces:R:3 energy=-0.13990684890290436 pbc="F F F"
Li       0.00000000       0.00000000       0.00000000       0.00000000       0.00000000      -4.60006952
Li       0.00000000       0.00000000       1.11313131       0.00000000       0.00000000       4.60006952
2
Properties=species:S:1:pos:R:3:forces:R:3 energy=-0.30900650908232313 pbc="F F F"
Li       0.00000000       0.00000000       0.00000000       0.00000000       0.00000000      -1.51125896
Li       0.00000000       0.00000000       1.17272727       0.00000000       0.00000000       1.51125896
2
Properties=species:S:1:pos:R:3:forces:R:3 energy=-0.3586353975500952 pbc="F F F"
Li       0.00000000       0.00000000       0.00000000       0.00000000       0.00000000      -0.36878747
Li       0.00000000       0.00000000       1.23232323       0.00000000       0.00000000       0.36878747
2
Properties=species:S:1:pos:R:3:forces:R:3 energy=-0.3697840587049107 pbc="F F F"
Li       0.00000000       0.00000000       0.00000000       0.00000000       0.00000000      -0.07969896
Li       0.00000000       0.00000000       1.29191919       0.00000000       0.00000000       0.07969896
2
Properties=species:S:1:pos:R:3:forces:R:3 energy=-0.3708058064290664 pbc="F F F"
Li       0.00000000       0.00000000       0.00000000       0.00000000       0.00000000       0.04952893
Li       0.00000000       0.00000000       1.35151515       0.00000000       0.00000000      -0.04952893
2
Properties=species:S:1:pos:R:3:forces:R:3 energy=-0.36504278832062176 pbc="F F F"
Li       0.00000000       0.00000000       0.00000000       0.00000000       0.00000000       0.10847104
Li       0.00000000       0.00000000       1.41111111       0.00000000       0.00000000      -0.10847104
2
Properties=species:S:1:pos:R:3:forces:R:3 energy=-0.3638549145351319 pbc="F F F"
Li       0.00000000       0.00000000       0.00000000       0.00000000       0.00000000      -0.11727917
Li       0.00000000       0.00000000       1.47070707       0.00000000       0.00000000       0.11727917
2
Properties=species:S:1:pos:R:3:forces:R:3 energy=-0.3825880506014285 pbc="F F F"
Li       0.00000000       0.00000000       0.00000000       0.00000000       0.00000000      -0.51992095
Li       0.00000000       0.00000000       1.53030303       0.00000000       0.00000000       0.51992095
2
Properties=species:S:1:pos:R:3:forces:R:3 energy=-0.42504563813471136 pbc="F F F"
Li       0.00000000       0.00000000       0.00000000       0.00000000       0.00000000      -0.89074814
Li       0.00000000       0.00000000       1.58989899       0.00000000       0.00000000       0.89074814
2
Properties=species:S:1:pos:R:3:forces:R:3 energy=-0.4872712525273512 pbc="F F F"
Li       0.00000000       0.00000000       0.00000000       0.00000000       0.00000000      -1.18992591
Li       0.00000000       0.00000000       1.64949495       0.00000000       0.00000000       1.18992591
2
Properties=species:S:1:pos:R:3:forces:R:3 energy=-0.5665425094819487 pbc="F F F"
Li       0.00000000       0.00000000       0.00000000       0.00000000       0.00000000      -1.46991313
Li       0.00000000       0.00000000       1.70909091       0.00000000       0.00000000       1.46991313
2
Properties=species:S:1:pos:R:3:forces:R:3 energy=-0.6621914287879676 pbc="F F F"
Li       0.00000000       0.00000000       0.00000000       0.00000000       0.00000000      -1.73369479
Li       0.00000000       0.00000000       1.76868687       0.00000000       0.00000000       1.73369479
2
Properties=species:S:1:pos:R:3:forces:R:3 energy=-0.7718481369367003 pbc="F F F"
Li       0.00000000       0.00000000       0.00000000       0.00000000       0.00000000      -1.93071425
Li       0.00000000       0.00000000       1.82828283       0.00000000       0.00000000       1.93071425
2
Properties=species:S:1:pos:R:3:forces:R:3 energy=-0.8901456632340211 pbc="F F F"
Li       0.00000000       0.00000000       0.00000000       0.00000000       0.00000000      -2.01958895
Li       0.00000000       0.00000000       1.88787879       0.00000000       0.00000000       2.01958895
2
Properties=species:S:1:pos:R:3:forces:R:3 energy=-1.0102184427516612 pbc="F F F"
Li       0.00000000       0.00000000       0.00000000       0.00000000       0.00000000      -1.99105382
Li       0.00000000       0.00000000       1.94747475       0.00000000       0.00000000       1.99105382
2
Properties=species:S:1:pos:R:3:forces:R:3 energy=-1.1253969708288625 pbc="F F F"
Li       0.00000000       0.00000000       0.00000000       0.00000000       0.00000000      -1.85900998
Li       0.00000000       0.00000000       2.00707071       0.00000000       0.00000000       1.85900998
2
Properties=species:S:1:pos:R:3:forces:R:3 energy=-1.2302912731304134 pbc="F F F"
Li       0.00000000       0.00000000       0.00000000       0.00000000       0.00000000      -1.65135205
Li       0.00000000       0.00000000       2.06666667       0.00000000       0.00000000       1.65135205
2
Properties=species:S:1:pos:R:3:forces:R:3 energy=-1.3213915327325616 pbc="F F F"
Li       0.00000000       0.00000000       0.00000000       0.00000000       0.00000000      -1.40158963
Li       0.00000000       0.00000000       2.12626263       0.00000000       0.00000000       1.40158963
2
Properties=species:S:1:pos:R:3:forces:R:3 energy=-1.3971053752881946 pbc="F F F"
Li       0.00000000       0.00000000       0.00000000       0.00000000       0.00000000      -1.13923204
Li       0.00000000       0.00000000       2.18585859       0.00000000       0.00000000       1.13923204
2
Properties=species:S:1:pos:R:3:forces:R:3 energy=-1.4573332593767017 pbc="F F F"
Li       0.00000000       0.00000000       0.00000000       0.00000000       0.00000000      -0.88439971
Li       0.00000000       0.00000000       2.24545455       0.00000000       0.00000000       0.88439971
2
Properties=species:S:1:pos:R:3:forces:R:3 energy=-1.5028962330683455 pbc="F F F"
Li       0.00000000       0.00000000       0.00000000       0.00000000       0.00000000      -0.64837831
Li       0.00000000       0.00000000       2.30505051       0.00000000       0.00000000       0.64837831
2
Properties=species:S:1:pos:R:3:forces:R:3 energy=-1.5351051645728848 pbc="F F F"
Li       0.00000000       0.00000000       0.00000000       0.00000000       0.00000000      -0.43693742
Li       0.00000000       0.00000000       2.36464646       0.00000000       0.00000000       0.43693742
2
Properties=species:S:1:pos:R:3:forces:R:3 energy=-1.555525149757453 pbc="F F F"
Li       0.00000000       0.00000000       0.00000000       0.00000000       0.00000000      -0.25309294
Li       0.00000000       0.00000000       2.42424242       0.00000000       0.00000000       0.25309294
2
Properties=species:S:1:pos:R:3:forces:R:3 energy=-1.5658488856266355 pbc="F F F"
Li       0.00000000       0.00000000       0.00000000       0.00000000       0.00000000      -0.09823611
Li       0.00000000       0.00000000       2.48383838       0.00000000       0.00000000       0.09823611
2
Properties=species:S:1:pos:R:3:forces:R:3 energy=-1.5678048512512595 pbc="F F F"
Li       0.00000000       0.00000000       0.00000000       0.00000000       0.00000000       0.02793602
Li       0.00000000       0.00000000       2.54343434       0.00000000       0.00000000      -0.02793602
2
Properties=species:S:1:pos:R:3:forces:R:3 energy=-1.563044018609884 pbc="F F F"
Li       0.00000000       0.00000000       0.00000000       0.00000000       0.00000000       0.12774232
Li       0.00000000       0.00000000       2.60303030       0.00000000       0.00000000      -0.12774232
2
Properties=species:S:1:pos:R:3:forces:R:3 energy=-1.5530216363479037 pbc="F F F"
Li       0.00000000       0.00000000       0.00000000       0.00000000       0.00000000       0.20534152
Li       0.00000000       0.00000000       2.66262626       0.00000000       0.00000000      -0.20534152
2
Properties=species:S:1:pos:R:3:forces:R:3 energy=-1.5389100497420984 pbc="F F F"
Li       0.00000000       0.00000000       0.00000000       0.00000000       0.00000000       0.26579514
Li       0.00000000       0.00000000       2.72222222       0.00000000       0.00000000      -0.26579514
2
Properties=species:S:1:pos:R:3:forces:R:3 energy=-1.5215852937614718 pbc="F F F"
Li       0.00000000       0.00000000       0.00000000       0.00000000       0.00000000       0.31389451
Li       0.00000000       0.00000000       2.78181818       0.00000000       0.00000000      -0.31389451
2
Properties=species:S:1:pos:R:3:forces:R:3 energy=-1.5016772925659034 pbc="F F F"
Li       0.00000000       0.00000000       0.00000000       0.00000000       0.00000000       0.35277259
Li       0.00000000       0.00000000       2.84141414       0.00000000       0.00000000      -0.35277259
2
Properties=species:S:1:pos:R:3:forces:R:3 energy=-1.4797156585882068 pbc="F F F"
Li       0.00000000       0.00000000       0.00000000       0.00000000       0.00000000       0.38249585
Li       0.00000000       0.00000000       2.90101010       0.00000000       0.00000000      -0.38249585
2
Properties=species:S:1:pos:R:3:forces:R:3 energy=-1.4563564534524265 pbc="F F F"
Li       0.00000000       0.00000000       0.00000000       0.00000000       0.00000000       0.39844644
Li       0.00000000       0.00000000       2.96060606       0.00000000       0.00000000      -0.39844644
2
Properties=species:S:1:pos:R:3:forces:R:3 energy=-1.4327103204650824 pbc="F F F"
Li       0.00000000       0.00000000       0.00000000       0.00000000       0.00000000       0.38973030
Li       0.00000000       0.00000000       3.02020202       0.00000000       0.00000000      -0.38973030
2
Properties=species:S:1:pos:R:3:forces:R:3 energy=-1.41068932498522 pbc="F F F"
Li       0.00000000       0.00000000       0.00000000       0.00000000       0.00000000       0.34190565
Li       0.00000000       0.00000000       3.07979798       0.00000000       0.00000000      -0.34190565
2
Properties=species:S:1:pos:R:3:forces:R:3 energy=-1.3927346323630345 pbc="F F F"
Li       0.00000000       0.00000000       0.00000000       0.00000000       0.00000000       0.25684777
Li       0.00000000       0.00000000       3.13939394       0.00000000       0.00000000      -0.25684777
2
Properties=species:S:1:pos:R:3:forces:R:3 energy=-1.3798538090719406 pbc="F F F"
Li       0.00000000       0.00000000       0.00000000       0.00000000       0.00000000       0.18387440
Li       0.00000000       0.00000000       3.19898990       0.00000000       0.00000000      -0.18387440
2
Properties=species:S:1:pos:R:3:forces:R:3 energy=-1.3692139511217527 pbc="F F F"
Li       0.00000000       0.00000000       0.00000000       0.00000000       0.00000000       0.18871483
Li       0.00000000       0.00000000       3.25858586       0.00000000       0.00000000      -0.18871483
2
Properties=species:S:1:pos:R:3:forces:R:3 energy=-1.355838606219343 pbc="F F F"
Li       0.00000000       0.00000000       0.00000000       0.00000000       0.00000000       0.26809490
Li       0.00000000       0.00000000       3.31818182       0.00000000       0.00000000      -0.26809490
2
Properties=species:S:1:pos:R:3:forces:R:3 energy=-1.3369484997238155 pbc="F F F"
Li       0.00000000       0.00000000       0.00000000       0.00000000       0.00000000       0.36404818
Li       0.00000000       0.00000000       3.37777778       0.00000000       0.00000000      -0.36404818
2
Properties=species:S:1:pos:R:3:forces:R:3 energy=-1.312944670227804 pbc="F F F"
Li       0.00000000       0.00000000       0.00000000       0.00000000       0.00000000       0.43616608
Li       0.00000000       0.00000000       3.43737374       0.00000000       0.00000000      -0.43616608
2
Properties=species:S:1:pos:R:3:forces:R:3 energy=-1.2855940447769938 pbc="F F F"
Li       0.00000000       0.00000000       0.00000000       0.00000000       0.00000000       0.47687614
Li       0.00000000       0.00000000       3.49696970       0.00000000       0.00000000      -0.47687614
2
Properties=species:S:1:pos:R:3:forces:R:3 energy=-1.256585750885797 pbc="F F F"
Li       0.00000000       0.00000000       0.00000000       0.00000000       0.00000000       0.49339774
Li       0.00000000       0.00000000       3.55656566       0.00000000       0.00000000      -0.49339774
2
Properties=species:S:1:pos:R:3:forces:R:3 energy=-1.2270823778590643 pbc="F F F"
Li       0.00000000       0.00000000       0.00000000       0.00000000       0.00000000       0.49487063
Li       0.00000000       0.00000000       3.61616162       0.00000000       0.00000000      -0.49487063
2
Properties=species:S:1:pos:R:3:forces:R:3 energy=-1.1977593311390229 pbc="F F F"
Li       0.00000000       0.00000000       0.00000000       0.00000000       0.00000000       0.48829719
Li       0.00000000       0.00000000       3.67575758       0.00000000       0.00000000      -0.48829719
2
Properties=species:S:1:pos:R:3:forces:R:3 energy=-1.168949231425781 pbc="F F F"
Li       0.00000000       0.00000000       0.00000000       0.00000000       0.00000000       0.47823387
Li       0.00000000       0.00000000       3.73535354       0.00000000       0.00000000      -0.47823387
2
Properties=species:S:1:pos:R:3:forces:R:3 energy=-1.1407728265225998 pbc="F F F"
Li       0.00000000       0.00000000       0.00000000       0.00000000       0.00000000       0.46737003
Li       0.00000000       0.00000000       3.79494949       0.00000000       0.00000000      -0.46737003
2
Properties=species:S:1:pos:R:3:forces:R:3 energy=-1.1132299836632584 pbc="F F F"
Li       0.00000000       0.00000000       0.00000000       0.00000000       0.00000000       0.45709893
Li       0.00000000       0.00000000       3.85454545       0.00000000       0.00000000      -0.45709893
2
Properties=species:S:1:pos:R:3:forces:R:3 energy=-1.0862676600915842 pbc="F F F"
Li       0.00000000       0.00000000       0.00000000       0.00000000       0.00000000       0.44795680
Li       0.00000000       0.00000000       3.91414141       0.00000000       0.00000000      -0.44795680
2
Properties=species:S:1:pos:R:3:forces:R:3 energy=-1.0598157713817098 pbc="F F F"
Li       0.00000000       0.00000000       0.00000000       0.00000000       0.00000000       0.43990108
Li       0.00000000       0.00000000       3.97373737       0.00000000       0.00000000      -0.43990108
2
Properties=species:S:1:pos:R:3:forces:R:3 energy=-1.0338212565464582 pbc="F F F"
Li       0.00000000       0.00000000       0.00000000       0.00000000       0.00000000       0.43252203
Li       0.00000000       0.00000000       4.03333333       0.00000000       0.00000000      -0.43252203
2
Properties=species:S:1:pos:R:3:forces:R:3 energy=-1.0082615704149354 pbc="F F F"
Li       0.00000000       0.00000000       0.00000000       0.00000000       0.00000000       0.42518973
Li       0.00000000       0.00000000       4.09292929       0.00000000       0.00000000      -0.42518973
2
Properties=species:S:1:pos:R:3:forces:R:3 energy=-0.9831554061656143 pbc="F F F"
Li       0.00000000       0.00000000       0.00000000       0.00000000       0.00000000       0.41718817
Li       0.00000000       0.00000000       4.15252525       0.00000000       0.00000000      -0.41718817
2
Properties=species:S:1:pos:R:3:forces:R:3 energy=-0.9585631091594182 pbc="F F F"
Li       0.00000000       0.00000000       0.00000000       0.00000000       0.00000000       0.40784794
Li       0.00000000       0.00000000       4.21212121       0.00000000       0.00000000      -0.40784794
2
Properties=species:S:1:pos:R:3:forces:R:3 energy=-0.9345801246047203 pbc="F F F"
Li       0.00000000       0.00000000       0.00000000       0.00000000       0.00000000       0.39666280
Li       0.00000000       0.00000000       4.27171717       0.00000000       0.00000000      -0.39666280
2
Properties=species:S:1:pos:R:3:forces:R:3 energy=-0.9113254154255082 pbc="F F F"
Li       0.00000000       0.00000000       0.00000000       0.00000000       0.00000000       0.38340637
Li       0.00000000       0.00000000       4.33131313       0.00000000       0.00000000      -0.38340637
2
Properties=species:S:1:pos:R:3:forces:R:3 energy=-0.888920795872734 pbc="F F F"
Li       0.00000000       0.00000000       0.00000000       0.00000000       0.00000000       0.36816794
Li       0.00000000       0.00000000       4.39090909       0.00000000       0.00000000      -0.36816794
2
Properties=species:S:1:pos:R:3:forces:R:3 energy=-0.8674742863253446 pbc="F F F"
Li       0.00000000       0.00000000       0.00000000       0.00000000       0.00000000       0.35133943
Li       0.00000000       0.00000000       4.45050505       0.00000000       0.00000000      -0.35133943
2
Properties=species:S:1:pos:R:3:forces:R:3 energy=-0.8470642786296575 pbc="F F F"
Li       0.00000000       0.00000000       0.00000000       0.00000000       0.00000000       0.33350039
Li       0.00000000       0.00000000       4.51010101       0.00000000       0.00000000      -0.33350039
2
Properties=species:S:1:pos:R:3:forces:R:3 energy=-0.8277315631641423 pbc="F F F"
Li       0.00000000       0.00000000       0.00000000       0.00000000       0.00000000       0.31525755
Li       0.00000000       0.00000000       4.56969697       0.00000000       0.00000000      -0.31525755
2
Properties=species:S:1:pos:R:3:forces:R:3 energy=-0.8094858151623757 pbc="F F F"
Li       0.00000000       0.00000000       0.00000000       0.00000000       0.00000000       0.29709363
Li       0.00000000       0.00000000       4.62929293       0.00000000       0.00000000      -0.29709363
2
Properties=species:S:1:pos:R:3:forces:R:3 energy=-0.792313796227337 pbc="F F F"
Li       0.00000000       0.00000000       0.00000000       0.00000000       0.00000000       0.27926806
Li       0.00000000       0.00000000       4.68888889       0.00000000       0.00000000      -0.27926806
2
Properties=species:S:1:pos:R:3:forces:R:3 energy=-0.7761919254958215 pbc="F F F"
Li       0.00000000       0.00000000       0.00000000       0.00000000       0.00000000       0.26182100
Li       0.00000000       0.00000000       4.74848485       0.00000000       0.00000000      -0.26182100
2
Properties=species:S:1:pos:R:3:forces:R:3 energy=-0.7611008335071502 pbc="F F F"
Li       0.00000000       0.00000000       0.00000000       0.00000000       0.00000000       0.24468529
Li       0.00000000       0.00000000       4.80808081       0.00000000       0.00000000      -0.24468529
2
Properties=species:S:1:pos:R:3:forces:R:3 energy=-0.7470219184771296 pbc="F F F"
Li       0.00000000       0.00000000       0.00000000       0.00000000       0.00000000       0.22784071
Li       0.00000000       0.00000000       4.86767677       0.00000000       0.00000000      -0.22784071
2
Properties=species:S:1:pos:R:3:forces:R:3 energy=-0.7339344029117266 pbc="F F F"
Li       0.00000000       0.00000000       0.00000000       0.00000000       0.00000000       0.21147010
Li       0.00000000       0.00000000       4.92727273       0.00000000       0.00000000      -0.21147010
2
Properties=species:S:1:pos:R:3:forces:R:3 energy=-0.7217985375205884 pbc="F F F"
Li       0.00000000       0.00000000       0.00000000       0.00000000       0.00000000       0.19599456
Li       0.00000000       0.00000000       4.98686869       0.00000000       0.00000000      -0.19599456
2
Properties=species:S:1:pos:R:3:forces:R:3 energy=-0.7105454840185997 pbc="F F F"
Li       0.00000000       0.00000000       0.00000000       0.00000000       0.00000000       0.18196318
Li       0.00000000       0.00000000       5.04646465       0.00000000       0.00000000      -0.18196318
2
Properties=species:S:1:pos:R:3:forces:R:3 energy=-0.7000741376567523 pbc="F F F"
Li       0.00000000       0.00000000       0.00000000       0.00000000       0.00000000       0.16975041
Li       0.00000000       0.00000000       5.10606061       0.00000000       0.00000000      -0.16975041
2
Properties=species:S:1:pos:R:3:forces:R:3 energy=-0.6902782330003937 pbc="F F F"
Li       0.00000000       0.00000000       0.00000000       0.00000000       0.00000000       0.15916640
Li       0.00000000       0.00000000       5.16565657       0.00000000       0.00000000      -0.15916640
2
Properties=species:S:1:pos:R:3:forces:R:3 energy=-0.681090969969183 pbc="F F F"
Li       0.00000000       0.00000000       0.00000000       0.00000000       0.00000000       0.14911284
Li       0.00000000       0.00000000       5.22525253       0.00000000       0.00000000      -0.14911284
2
Properties=species:S:1:pos:R:3:forces:R:3 energy=-0.6725310266229869 pbc="F F F"
Li       0.00000000       0.00000000       0.00000000       0.00000000       0.00000000       0.13781320
Li       0.00000000       0.00000000       5.28484848       0.00000000       0.00000000      -0.13781320
2
Properties=species:S:1:pos:R:3:forces:R:3 energy=-0.6647072365866306 pbc="F F F"
Li       0.00000000       0.00000000       0.00000000       0.00000000       0.00000000       0.12452066
Li       0.00000000       0.00000000       5.34444444       0.00000000       0.00000000      -0.12452066
2
Properties=species:S:1:pos:R:3:forces:R:3 energy=-0.6576670677072334 pbc="F F F"
Li       0.00000000       0.00000000       0.00000000       0.00000000       0.00000000       0.11242995
Li       0.00000000       0.00000000       5.40404040       0.00000000       0.00000000      -0.11242995
2
Properties=species:S:1:pos:R:3:forces:R:3 energy=-0.6511839239233095 pbc="F F F"
Li       0.00000000       0.00000000       0.00000000       0.00000000       0.00000000       0.10606515
Li       0.00000000       0.00000000       5.46363636       0.00000000       0.00000000      -0.10606515
2
Properties=species:S:1:pos:R:3:forces:R:3 energy=-0.6449960248419165 pbc="F F F"
Li       0.00000000       0.00000000       0.00000000       0.00000000       0.00000000       0.10110284
Li       0.00000000       0.00000000       5.52323232       0.00000000       0.00000000      -0.10110284
2
Properties=species:S:1:pos:R:3:forces:R:3 energy=-0.6392478242346561 pbc="F F F"
Li       0.00000000       0.00000000       0.00000000       0.00000000       0.00000000       0.09096042
Li       0.00000000       0.00000000       5.58282828       0.00000000       0.00000000      -0.09096042
2
Properties=species:S:1:pos:R:3:forces:R:3 energy=-0.6341728182928035 pbc="F F F"
Li       0.00000000       0.00000000       0.00000000       0.00000000       0.00000000       0.07999889
Li       0.00000000       0.00000000       5.64242424       0.00000000       0.00000000      -0.07999889
2
Properties=species:S:1:pos:R:3:forces:R:3 energy=-0.629561080664501 pbc="F F F"
Li       0.00000000       0.00000000       0.00000000       0.00000000       0.00000000       0.07620715
Li       0.00000000       0.00000000       5.70202020       0.00000000       0.00000000      -0.07620715
2
Properties=species:S:1:pos:R:3:forces:R:3 energy=-0.6249898021333714 pbc="F F F"
Li       0.00000000       0.00000000       0.00000000       0.00000000       0.00000000       0.07696568
Li       0.00000000       0.00000000       5.76161616       0.00000000       0.00000000      -0.07696568
2
Properties=species:S:1:pos:R:3:forces:R:3 energy=-0.620589729322663 pbc="F F F"
Li       0.00000000       0.00000000       0.00000000       0.00000000       0.00000000       0.06812159
Li       0.00000000       0.00000000       5.82121212       0.00000000       0.00000000      -0.06812159
2
Properties=species:S:1:pos:R:3:forces:R:3 energy=-0.6171234911181694 pbc="F F F"
Li       0.00000000       0.00000000       0.00000000       0.00000000       0.00000000       0.04735957
Li       0.00000000       0.00000000       5.88080808       0.00000000       0.00000000      -0.04735957
2
Properties=species:S:1:pos:R:3:forces:R:3 energy=-0.6149190795039995 pbc="F F F"
Li       0.00000000       0.00000000       0.00000000       0.00000000       0.00000000       0.02743973
Li       0.00000000       0.00000000       5.94040404       0.00000000       0.00000000      -0.02743973
2
Properties=species:S:1:pos:R:3:forces:R:3 energy=-0.613613650960351 pbc="F F F"
Li       0.00000000       0.00000000       0.00000000       0.00000000       0.00000000       0.01887134
Li       0.00000000       0.00000000       6.00000000       0.00000000       0.00000000      -0.01887134
