2
Properties=species:S:1:pos:R:3:forces:R:3 energy=4165.937875793947 pbc="F F F"
Mg       0.00000000       0.00000000       0.00000000       0.00000000       0.00000000  -84398.89843750
Mg       0.00000000       0.00000000       0.10000000       0.00000000       0.00000000   84398.89843750
2
Properties=species:S:1:pos:R:3:forces:R:3 energy=1493.6627293095712 pbc="F F F"
Mg       0.00000000       0.00000000       0.00000000       0.00000000       0.00000000  -22107.39453125
Mg       0.00000000       0.00000000       0.15959596       0.00000000       0.00000000   22107.39453125
2
Properties=species:S:1:pos:R:3:forces:R:3 energy=684.2454929814463 pbc="F F F"
Mg       0.00000000       0.00000000       0.00000000       0.00000000       0.00000000   -7940.72509766
Mg       0.00000000       0.00000000       0.21919192       0.00000000       0.00000000    7940.72509766
2
Properties=species:S:1:pos:R:3:forces:R:3 energy=368.3097324833994 pbc="F F F"
Mg       0.00000000       0.00000000       0.00000000       0.00000000       0.00000000   -3417.46337891
Mg       0.00000000       0.00000000       0.27878788       0.00000000       0.00000000    3417.46337891
2
Properties=species:S:1:pos:R:3:forces:R:3 energy=224.47193341113376 pbc="F F F"
Mg       0.00000000       0.00000000       0.00000000       0.00000000       0.00000000   -1659.68994141
Mg       0.00000000       0.00000000       0.33838384       0.00000000       0.00000000    1659.68994141
2
Properties=species:S:1:pos:R:3:forces:R:3 energy=151.73723798923476 pbc="F F F"
Mg       0.00000000       0.00000000       0.00000000       0.00000000       0.00000000    -878.53881836
Mg       0.00000000       0.00000000       0.39797980       0.00000000       0.00000000     878.53881836
2
Properties=species:S:1:pos:R:3:forces:R:3 energy=112.01469619915964 pbc="F F F"
Mg       0.00000000       0.00000000       0.00000000       0.00000000       0.00000000    -497.36685181
Mg       0.00000000       0.00000000       0.45757576       0.00000000       0.00000000     497.36685181
2
Properties=species:S:1:pos:R:3:forces:R:3 energy=88.88028920005213 pbc="F F F"
Mg       0.00000000       0.00000000       0.00000000       0.00000000       0.00000000    -299.82751465
Mg       0.00000000       0.00000000       0.51717172       0.00000000       0.00000000     299.82751465
2
Properties=species:S:1:pos:R:3:forces:R:3 energy=74.47045345431452 pbc="F F F"
Mg       0.00000000       0.00000000       0.00000000       0.00000000       0.00000000    -194.74319458
Mg       0.00000000       0.00000000       0.57676768       0.00000000       0.00000000     194.74319458
2
Properties=species:S:1:pos:R:3:forces:R:3 energy=64.68181832078552 pbc="F F F"
Mg       0.00000000       0.00000000       0.00000000       0.00000000       0.00000000    -139.96949768
Mg       0.00000000       0.00000000       0.63636364       0.00000000       0.00000000     139.96949768
2
Properties=species:S:1:pos:R:3:forces:R:3 energy=57.216661955679065 pbc="F F F"
Mg       0.00000000       0.00000000       0.00000000       0.00000000       0.00000000    -114.18781281
Mg       0.00000000       0.00000000       0.69595960       0.00000000       0.00000000     114.18781281
2
Properties=species:S:1:pos:R:3:forces:R:3 energy=50.74711497539019 pbc="F F F"
Mg       0.00000000       0.00000000       0.00000000       0.00000000       0.00000000    -104.81083679
Mg       0.00000000       0.00000000       0.75555556       0.00000000       0.00000000     104.81083679
2
Properties=species:S:1:pos:R:3:forces:R:3 energy=44.59713676851869 pbc="F F F"
Mg       0.00000000       0.00000000       0.00000000       0.00000000       0.00000000    -101.82427979
Mg       0.00000000       0.00000000       0.81515152       0.00000000       0.00000000     101.82427979
2
Properties=species:S:1:pos:R:3:forces:R:3 energy=38.63974374950724 pbc="F F F"
Mg       0.00000000       0.00000000       0.00000000       0.00000000       0.00000000     -97.94381714
Mg       0.00000000       0.00000000       0.87474747       0.00000000       0.00000000      97.94381714
2
Properties=species:S:1:pos:R:3:forces:R:3 energy=32.87326515064559 pbc="F F F"
Mg       0.00000000       0.00000000       0.00000000       0.00000000       0.00000000     -96.04548645
Mg       0.00000000       0.00000000       0.93434343       0.00000000       0.00000000      96.04548645
2
Properties=species:S:1:pos:R:3:forces:R:3 energy=27.234274070190267 pbc="F F F"
Mg       0.00000000       0.00000000       0.00000000       0.00000000       0.00000000     -92.05715942
Mg       0.00000000       0.00000000       0.99393939       0.00000000       0.00000000      92.05715942
2
Properties=species:S:1:pos:R:3:forces:R:3 energy=22.060960694582587 pbc="F F F"
Mg       0.00000000       0.00000000       0.00000000       0.00000000       0.00000000     -80.39940643
Mg       0.00000000       0.00000000       1.05353535       0.00000000       0.00000000      80.39940643
2
Properties=species:S:1:pos:R:3:forces:R:3 energy=17.729675540696178 pbc="F F F"
Mg       0.00000000       0.00000000       0.00000000       0.00000000       0.00000000     -64.72309113
Mg       0.00000000       0.00000000       1.11313131       0.00000000       0.00000000      64.72309113
2
Properties=species:S:1:pos:R:3:forces:R:3 energy=14.36358390387302 pbc="F F F"
Mg       0.00000000       0.00000000       0.00000000       0.00000000       0.00000000     -48.14479446
Mg       0.00000000       0.00000000       1.17272727       0.00000000       0.00000000      48.14479446
2
Properties=species:S:1:pos:R:3:forces:R:3 energy=11.94020401783362 pbc="F F F"
Mg       0.00000000       0.00000000       0.00000000       0.00000000       0.00000000     -34.33966446
Mg       0.00000000       0.00000000       1.23232323       0.00000000       0.00000000      34.33966446
2
Properties=species:S:1:pos:R:3:forces:R:3 energy=10.120971225248184 pbc="F F F"
Mg       0.00000000       0.00000000       0.00000000       0.00000000       0.00000000     -27.50777054
Mg       0.00000000       0.00000000       1.29191919       0.00000000       0.00000000      27.50777054
2
Properties=species:S:1:pos:R:3:forces:R:3 energy=8.635575358619045 pbc="F F F"
Mg       0.00000000       0.00000000       0.00000000       0.00000000       0.00000000     -22.20457268
Mg       0.00000000       0.00000000       1.35151515       0.00000000       0.00000000      22.20457268
2
Properties=species:S:1:pos:R:3:forces:R:3 energy=7.495459364335599 pbc="F F F"
Mg       0.00000000       0.00000000       0.00000000       0.00000000       0.00000000     -15.98580742
Mg       0.00000000       0.00000000       1.41111111       0.00000000       0.00000000      15.98580742
2
Properties=species:S:1:pos:R:3:forces:R:3 energy=6.7118912402353335 pbc="F F F"
Mg       0.00000000       0.00000000       0.00000000       0.00000000       0.00000000     -10.68467140
Mg       0.00000000       0.00000000       1.47070707       0.00000000       0.00000000      10.68467140
2
Properties=species:S:1:pos:R:3:forces:R:3 energy=6.163662190186399 pbc="F F F"
Mg       0.00000000       0.00000000       0.00000000       0.00000000       0.00000000      -8.22019863
Mg       0.00000000       0.00000000       1.53030303       0.00000000       0.00000000       8.22019863
2
Properties=species:S:1:pos:R:3:forces:R:3 energy=5.682932666387898 pbc="F F F"
Mg       0.00000000       0.00000000       0.00000000       0.00000000       0.00000000      -8.19227695
Mg       0.00000000       0.00000000       1.58989899       0.00000000       0.00000000       8.19227695
2
Properties=species:S:1:pos:R:3:forces:R:3 energy=5.170671225147383 pbc="F F F"
Mg       0.00000000       0.00000000       0.00000000       0.00000000       0.00000000      -9.01701069
Mg       0.00000000       0.00000000       1.64949495       0.00000000       0.00000000       9.01701069
2
Properties=species:S:1:pos:R:3:forces:R:3 energy=4.614800615621425 pbc="F F F"
Mg       0.00000000       0.00000000       0.00000000       0.00000000       0.00000000      -9.54063511
Mg       0.00000000       0.00000000       1.70909091       0.00000000       0.00000000       9.54063511
2
Properties=species:S:1:pos:R:3:forces:R:3 energy=4.0456392483945205 pbc="F F F"
Mg       0.00000000       0.00000000       0.00000000       0.00000000       0.00000000      -9.46793365
Mg       0.00000000       0.00000000       1.76868687       0.00000000       0.00000000       9.46793365
2
Properties=species:S:1:pos:R:3:forces:R:3 energy=3.4950627408259467 pbc="F F F"
Mg       0.00000000       0.00000000       0.00000000       0.00000000       0.00000000      -8.95450115
Mg       0.00000000       0.00000000       1.82828283       0.00000000       0.00000000       8.95450115
2
Properties=species:S:1:pos:R:3:forces:R:3 energy=2.9830160441720217 pbc="F F F"
Mg       0.00000000       0.00000000       0.00000000       0.00000000       0.00000000      -8.20222759
Mg       0.00000000       0.00000000       1.88787879       0.00000000       0.00000000       8.20222759
2
Properties=species:S:1:pos:R:3:forces:R:3 energy=2.519691711752513 pbc="F F F"
Mg       0.00000000       0.00000000       0.00000000       0.00000000       0.00000000      -7.33391619
Mg       0.00000000       0.00000000       1.94747475       0.00000000       0.00000000       7.33391619
2
Properties=species:S:1:pos:R:3:forces:R:3 energy=2.109778285947291 pbc="F F F"
Mg       0.00000000       0.00000000       0.00000000       0.00000000       0.00000000      -6.41983700
Mg       0.00000000       0.00000000       2.00707071       0.00000000       0.00000000       6.41983700
2
Properties=species:S:1:pos:R:3:forces:R:3 energy=1.754217415445826 pbc="F F F"
Mg       0.00000000       0.00000000       0.00000000       0.00000000       0.00000000      -5.51986742
Mg       0.00000000       0.00000000       2.06666667       0.00000000       0.00000000       5.51986742
2
Properties=species:S:1:pos:R:3:forces:R:3 energy=1.4504506104770787 pbc="F F F"
Mg       0.00000000       0.00000000       0.00000000       0.00000000       0.00000000      -4.68990850
Mg       0.00000000       0.00000000       2.12626263       0.00000000       0.00000000       4.68990850
2
Properties=species:S:1:pos:R:3:forces:R:3 energy=1.1930503816337747 pbc="F F F"
Mg       0.00000000       0.00000000       0.00000000       0.00000000       0.00000000      -3.96820474
Mg       0.00000000       0.00000000       2.18585859       0.00000000       0.00000000       3.96820474
2
Properties=species:S:1:pos:R:3:forces:R:3 energy=0.9750317321267941 pbc="F F F"
Mg       0.00000000       0.00000000       0.00000000       0.00000000       0.00000000      -3.36882854
Mg       0.00000000       0.00000000       2.24545455       0.00000000       0.00000000       3.36882854
2
Properties=species:S:1:pos:R:3:forces:R:3 energy=0.7891655006153326 pbc="F F F"
Mg       0.00000000       0.00000000       0.00000000       0.00000000       0.00000000      -2.88728881
Mg       0.00000000       0.00000000       2.30505051       0.00000000       0.00000000       2.88728881
2
Properties=species:S:1:pos:R:3:forces:R:3 energy=0.6288448632703209 pbc="F F F"
Mg       0.00000000       0.00000000       0.00000000       0.00000000       0.00000000      -2.50842452
Mg       0.00000000       0.00000000       2.36464646       0.00000000       0.00000000       2.50842452
2
Properties=species:S:1:pos:R:3:forces:R:3 energy=0.4885722645404202 pbc="F F F"
Mg       0.00000000       0.00000000       0.00000000       0.00000000       0.00000000      -2.21041274
Mg       0.00000000       0.00000000       2.42424242       0.00000000       0.00000000       2.21041274
2
Properties=species:S:1:pos:R:3:forces:R:3 energy=0.3642843800473816 pbc="F F F"
Mg       0.00000000       0.00000000       0.00000000       0.00000000       0.00000000      -1.96766388
Mg       0.00000000       0.00000000       2.48383838       0.00000000       0.00000000       1.96766388
2
Properties=species:S:1:pos:R:3:forces:R:3 energy=0.2534463764120075 pbc="F F F"
Mg       0.00000000       0.00000000       0.00000000       0.00000000       0.00000000      -1.75521207
Mg       0.00000000       0.00000000       2.54343434       0.00000000       0.00000000       1.75521207
2
Properties=species:S:1:pos:R:3:forces:R:3 energy=0.15486177562307987 pbc="F F F"
Mg       0.00000000       0.00000000       0.00000000       0.00000000       0.00000000      -1.55395317
Mg       0.00000000       0.00000000       2.60303030       0.00000000       0.00000000       1.55395317
2
Properties=species:S:1:pos:R:3:forces:R:3 energy=0.06820687494547625 pbc="F F F"
Mg       0.00000000       0.00000000       0.00000000       0.00000000       0.00000000      -1.35401821
Mg       0.00000000       0.00000000       2.66262626       0.00000000       0.00000000       1.35401821
2
Properties=species:S:1:pos:R:3:forces:R:3 energy=-0.00653622627366645 pbc="F F F"
Mg       0.00000000       0.00000000       0.00000000       0.00000000       0.00000000      -1.15477109
Mg       0.00000000       0.00000000       2.72222222       0.00000000       0.00000000       1.15477109
2
Properties=species:S:1:pos:R:3:forces:R:3 energy=-0.06955328769003834 pbc="F F F"
Mg       0.00000000       0.00000000       0.00000000       0.00000000       0.00000000      -0.96168178
Mg       0.00000000       0.00000000       2.78181818       0.00000000       0.00000000       0.96168178
2
Properties=species:S:1:pos:R:3:forces:R:3 energy=-0.12142757084768477 pbc="F F F"
Mg       0.00000000       0.00000000       0.00000000       0.00000000       0.00000000      -0.78194416
Mg       0.00000000       0.00000000       2.84141414       0.00000000       0.00000000       0.78194416
2
Properties=species:S:1:pos:R:3:forces:R:3 energy=-0.16312687499486136 pbc="F F F"
Mg       0.00000000       0.00000000       0.00000000       0.00000000       0.00000000      -0.62084258
Mg       0.00000000       0.00000000       2.90101010       0.00000000       0.00000000       0.62084258
2
Properties=species:S:1:pos:R:3:forces:R:3 energy=-0.1958372274451237 pbc="F F F"
Mg       0.00000000       0.00000000       0.00000000       0.00000000       0.00000000      -0.48029241
Mg       0.00000000       0.00000000       2.96060606       0.00000000       0.00000000       0.48029241
2
Properties=species:S:1:pos:R:3:forces:R:3 energy=-0.22076743052953332 pbc="F F F"
Mg       0.00000000       0.00000000       0.00000000       0.00000000       0.00000000      -0.35950747
Mg       0.00000000       0.00000000       3.02020202       0.00000000       0.00000000       0.35950747
2
Properties=species:S:1:pos:R:3:forces:R:3 energy=-0.23904523029295438 pbc="F F F"
Mg       0.00000000       0.00000000       0.00000000       0.00000000       0.00000000      -0.25675172
Mg       0.00000000       0.00000000       3.07979798       0.00000000       0.00000000       0.25675172
2
Properties=species:S:1:pos:R:3:forces:R:3 energy=-0.2517026569492622 pbc="F F F"
Mg       0.00000000       0.00000000       0.00000000       0.00000000       0.00000000      -0.17074743
Mg       0.00000000       0.00000000       3.13939394       0.00000000       0.00000000       0.17074743
2
Properties=species:S:1:pos:R:3:forces:R:3 energy=-0.25970967241929155 pbc="F F F"
Mg       0.00000000       0.00000000       0.00000000       0.00000000       0.00000000      -0.10043013
Mg       0.00000000       0.00000000       3.19898990       0.00000000       0.00000000       0.10043013
2
Properties=species:S:1:pos:R:3:forces:R:3 energy=-0.2639258301520235 pbc="F F F"
Mg       0.00000000       0.00000000       0.00000000       0.00000000       0.00000000      -0.04268150
Mg       0.00000000       0.00000000       3.25858586       0.00000000       0.00000000       0.04268150
2
Properties=species:S:1:pos:R:3:forces:R:3 energy=-0.26491644665432 pbc="F F F"
Mg       0.00000000       0.00000000       0.00000000       0.00000000       0.00000000       0.00904457
Mg       0.00000000       0.00000000       3.31818182       0.00000000       0.00000000      -0.00904457
2
Properties=species:S:1:pos:R:3:forces:R:3 energy=-0.26285615289927 pbc="F F F"
Mg       0.00000000       0.00000000       0.00000000       0.00000000       0.00000000       0.06003168
Mg       0.00000000       0.00000000       3.37777778       0.00000000       0.00000000      -0.06003168
2
Properties=species:S:1:pos:R:3:forces:R:3 energy=-0.25781680819087416 pbc="F F F"
Mg       0.00000000       0.00000000       0.00000000       0.00000000       0.00000000       0.10804167
Mg       0.00000000       0.00000000       3.43737374       0.00000000       0.00000000      -0.10804167
2
Properties=species:S:1:pos:R:3:forces:R:3 energy=-0.2501718630097166 pbc="F F F"
Mg       0.00000000       0.00000000       0.00000000       0.00000000       0.00000000       0.14645103
Mg       0.00000000       0.00000000       3.49696970       0.00000000       0.00000000      -0.14645103
2
Properties=species:S:1:pos:R:3:forces:R:3 energy=-0.24062896893190638 pbc="F F F"
Mg       0.00000000       0.00000000       0.00000000       0.00000000       0.00000000       0.17153721
Mg       0.00000000       0.00000000       3.55656566       0.00000000       0.00000000      -0.17153721
2
Properties=species:S:1:pos:R:3:forces:R:3 energy=-0.22997608370524444 pbc="F F F"
Mg       0.00000000       0.00000000       0.00000000       0.00000000       0.00000000       0.18411550
Mg       0.00000000       0.00000000       3.61616162       0.00000000       0.00000000      -0.18411550
2
Properties=species:S:1:pos:R:3:forces:R:3 energy=-0.21887013639749348 pbc="F F F"
Mg       0.00000000       0.00000000       0.00000000       0.00000000       0.00000000       0.18731919
Mg       0.00000000       0.00000000       3.67575758       0.00000000       0.00000000      -0.18731919
2
Properties=species:S:1:pos:R:3:forces:R:3 energy=-0.20776632050502553 pbc="F F F"
Mg       0.00000000       0.00000000       0.00000000       0.00000000       0.00000000       0.18459728
Mg       0.00000000       0.00000000       3.73535354       0.00000000       0.00000000      -0.18459728
2
Properties=species:S:1:pos:R:3:forces:R:3 energy=-0.19692806329127105 pbc="F F F"
Mg       0.00000000       0.00000000       0.00000000       0.00000000       0.00000000       0.17881306
Mg       0.00000000       0.00000000       3.79494949       0.00000000       0.00000000      -0.17881306
2
Properties=species:S:1:pos:R:3:forces:R:3 energy=-0.18647310222118785 pbc="F F F"
Mg       0.00000000       0.00000000       0.00000000       0.00000000       0.00000000       0.17199782
Mg       0.00000000       0.00000000       3.85454545       0.00000000       0.00000000      -0.17199782
2
Properties=species:S:1:pos:R:3:forces:R:3 energy=-0.17642278256024158 pbc="F F F"
Mg       0.00000000       0.00000000       0.00000000       0.00000000       0.00000000       0.16538921
Mg       0.00000000       0.00000000       3.91414141       0.00000000       0.00000000      -0.16538921
2
Properties=species:S:1:pos:R:3:forces:R:3 energy=-0.1667442458829969 pbc="F F F"
Mg       0.00000000       0.00000000       0.00000000       0.00000000       0.00000000       0.15955712
Mg       0.00000000       0.00000000       3.97373737       0.00000000       0.00000000      -0.15955712
2
Properties=species:S:1:pos:R:3:forces:R:3 energy=-0.15738824790715492 pbc="F F F"
Mg       0.00000000       0.00000000       0.00000000       0.00000000       0.00000000       0.15455079
Mg       0.00000000       0.00000000       4.03333333       0.00000000       0.00000000      -0.15455079
2
Properties=species:S:1:pos:R:3:forces:R:3 energy=-0.14831300746360193 pbc="F F F"
Mg       0.00000000       0.00000000       0.00000000       0.00000000       0.00000000       0.15003821
Mg       0.00000000       0.00000000       4.09292929       0.00000000       0.00000000      -0.15003821
2
Properties=species:S:1:pos:R:3:forces:R:3 energy=-0.1395063455504458 pbc="F F F"
Mg       0.00000000       0.00000000       0.00000000       0.00000000       0.00000000       0.14544702
Mg       0.00000000       0.00000000       4.15252525       0.00000000       0.00000000      -0.14544702
2
Properties=species:S:1:pos:R:3:forces:R:3 energy=-0.1309920292980969 pbc="F F F"
Mg       0.00000000       0.00000000       0.00000000       0.00000000       0.00000000       0.14010932
Mg       0.00000000       0.00000000       4.21212121       0.00000000       0.00000000      -0.14010932
2
Properties=species:S:1:pos:R:3:forces:R:3 energy=-0.12283364273144337 pbc="F F F"
Mg       0.00000000       0.00000000       0.00000000       0.00000000       0.00000000       0.13340461
Mg       0.00000000       0.00000000       4.27171717       0.00000000       0.00000000      -0.13340461
2
Properties=species:S:1:pos:R:3:forces:R:3 energy=-0.1151272369311398 pbc="F F F"
Mg       0.00000000       0.00000000       0.00000000       0.00000000       0.00000000       0.12489934
Mg       0.00000000       0.00000000       4.33131313       0.00000000       0.00000000      -0.12489934
2
Properties=species:S:1:pos:R:3:forces:R:3 energy=-0.10798571663401901 pbc="F F F"
Mg       0.00000000       0.00000000       0.00000000       0.00000000       0.00000000       0.11444313
Mg       0.00000000       0.00000000       4.39090909       0.00000000       0.00000000      -0.11444313
2
Properties=species:S:1:pos:R:3:forces:R:3 energy=-0.10152165693785539 pbc="F F F"
Mg       0.00000000       0.00000000       0.00000000       0.00000000       0.00000000       0.10222016
Mg       0.00000000       0.00000000       4.45050505       0.00000000       0.00000000      -0.10222016
2
Properties=species:S:1:pos:R:3:forces:R:3 energy=-0.09582751159497169 pbc="F F F"
Mg       0.00000000       0.00000000       0.00000000       0.00000000       0.00000000       0.08872181
Mg       0.00000000       0.00000000       4.51010101       0.00000000       0.00000000      -0.08872181
2
Properties=species:S:1:pos:R:3:forces:R:3 energy=-0.09095813660496013 pbc="F F F"
Mg       0.00000000       0.00000000       0.00000000       0.00000000       0.00000000       0.07465432
Mg       0.00000000       0.00000000       4.56969697       0.00000000       0.00000000      -0.07465432
2
Properties=species:S:1:pos:R:3:forces:R:3 energy=-0.08692454098250545 pbc="F F F"
Mg       0.00000000       0.00000000       0.00000000       0.00000000       0.00000000       0.06081340
Mg       0.00000000       0.00000000       4.62929293       0.00000000       0.00000000      -0.06081340
2
Properties=species:S:1:pos:R:3:forces:R:3 energy=-0.08369014937120534 pbc="F F F"
Mg       0.00000000       0.00000000       0.00000000       0.00000000       0.00000000       0.04795539
Mg       0.00000000       0.00000000       4.68888889       0.00000000       0.00000000      -0.04795539
2
Properties=species:S:1:pos:R:3:forces:R:3 energy=-0.08117656456320987 pbc="F F F"
Mg       0.00000000       0.00000000       0.00000000       0.00000000       0.00000000       0.03671545
Mg       0.00000000       0.00000000       4.74848485       0.00000000       0.00000000      -0.03671545
2
Properties=species:S:1:pos:R:3:forces:R:3 energy=-0.07927165936071004 pbc="F F F"
Mg       0.00000000       0.00000000       0.00000000       0.00000000       0.00000000       0.02760371
Mg       0.00000000       0.00000000       4.80808081       0.00000000       0.00000000      -0.02760371
2
Properties=species:S:1:pos:R:3:forces:R:3 energy=-0.077835399965637 pbc="F F F"
Mg       0.00000000       0.00000000       0.00000000       0.00000000       0.00000000       0.02105698
Mg       0.00000000       0.00000000       4.86767677       0.00000000       0.00000000      -0.02105698
2
Properties=species:S:1:pos:R:3:forces:R:3 energy=-0.07670220185854837 pbc="F F F"
Mg       0.00000000       0.00000000       0.00000000       0.00000000       0.00000000       0.01750716
Mg       0.00000000       0.00000000       4.92727273       0.00000000       0.00000000      -0.01750716
2
Properties=species:S:1:pos:R:3:forces:R:3 energy=-0.07568095701710459 pbc="F F F"
Mg       0.00000000       0.00000000       0.00000000       0.00000000       0.00000000       0.01736183
Mg       0.00000000       0.00000000       4.98686869       0.00000000       0.00000000      -0.01736183
2
Properties=species:S:1:pos:R:3:forces:R:3 energy=-0.074560975603616 pbc="F F F"
Mg       0.00000000       0.00000000       0.00000000       0.00000000       0.00000000       0.02081319
Mg       0.00000000       0.00000000       5.04646465       0.00000000       0.00000000      -0.02081319
2
Properties=species:S:1:pos:R:3:forces:R:3 energy=-0.07313621152785384 pbc="F F F"
Mg       0.00000000       0.00000000       0.00000000       0.00000000       0.00000000       0.02744527
Mg       0.00000000       0.00000000       5.10606061       0.00000000       0.00000000      -0.02744527
2
Properties=species:S:1:pos:R:3:forces:R:3 energy=-0.0712557515894835 pbc="F F F"
Mg       0.00000000       0.00000000       0.00000000       0.00000000       0.00000000       0.03573363
Mg       0.00000000       0.00000000       5.16565657       0.00000000       0.00000000      -0.03573363
2
Properties=species:S:1:pos:R:3:forces:R:3 energy=-0.06890096996543604 pbc="F F F"
Mg       0.00000000       0.00000000       0.00000000       0.00000000       0.00000000       0.04279061
Mg       0.00000000       0.00000000       5.22525253       0.00000000       0.00000000      -0.04279061
2
Properties=species:S:1:pos:R:3:forces:R:3 energy=-0.06624862561958034 pbc="F F F"
Mg       0.00000000       0.00000000       0.00000000       0.00000000       0.00000000       0.04525197
Mg       0.00000000       0.00000000       5.28484848       0.00000000       0.00000000      -0.04525197
2
Properties=species:S:1:pos:R:3:forces:R:3 energy=-0.06361221346467355 pbc="F F F"
Mg       0.00000000       0.00000000       0.00000000       0.00000000       0.00000000       0.04272211
Mg       0.00000000       0.00000000       5.34444444       0.00000000       0.00000000      -0.04272211
2
Properties=species:S:1:pos:R:3:forces:R:3 energy=-0.06111809777324087 pbc="F F F"
Mg       0.00000000       0.00000000       0.00000000       0.00000000       0.00000000       0.04224071
Mg       0.00000000       0.00000000       5.40404040       0.00000000       0.00000000      -0.04224071
2
Properties=species:S:1:pos:R:3:forces:R:3 energy=-0.05837086735019459 pbc="F F F"
Mg       0.00000000       0.00000000       0.00000000       0.00000000       0.00000000       0.05135991
Mg       0.00000000       0.00000000       5.46363636       0.00000000       0.00000000      -0.05135991
2
Properties=species:S:1:pos:R:3:forces:R:3 energy=-0.054999086216814846 pbc="F F F"
Mg       0.00000000       0.00000000       0.00000000       0.00000000       0.00000000       0.06025994
Mg       0.00000000       0.00000000       5.52323232       0.00000000       0.00000000      -0.06025994
2
Properties=species:S:1:pos:R:3:forces:R:3 energy=-0.05145156874887094 pbc="F F F"
Mg       0.00000000       0.00000000       0.00000000       0.00000000       0.00000000       0.05688227
Mg       0.00000000       0.00000000       5.58282828       0.00000000       0.00000000      -0.05688227
2
Properties=species:S:1:pos:R:3:forces:R:3 energy=-0.04829429076393933 pbc="F F F"
Mg       0.00000000       0.00000000       0.00000000       0.00000000       0.00000000       0.04993163
Mg       0.00000000       0.00000000       5.64242424       0.00000000       0.00000000      -0.04993163
2
Properties=species:S:1:pos:R:3:forces:R:3 energy=-0.04525795928822429 pbc="F F F"
Mg       0.00000000       0.00000000       0.00000000       0.00000000       0.00000000       0.05443510
Mg       0.00000000       0.00000000       5.70202020       0.00000000       0.00000000      -0.05443510
2
Properties=species:S:1:pos:R:3:forces:R:3 energy=-0.04163431772077368 pbc="F F F"
Mg       0.00000000       0.00000000       0.00000000       0.00000000       0.00000000       0.06677666
Mg       0.00000000       0.00000000       5.76161616       0.00000000       0.00000000      -0.06677666
2
Properties=species:S:1:pos:R:3:forces:R:3 energy=-0.03760725006459925 pbc="F F F"
Mg       0.00000000       0.00000000       0.00000000       0.00000000       0.00000000       0.06444464
Mg       0.00000000       0.00000000       5.82121212       0.00000000       0.00000000      -0.06444464
2
Properties=species:S:1:pos:R:3:forces:R:3 energy=-0.034349922897191396 pbc="F F F"
Mg       0.00000000       0.00000000       0.00000000       0.00000000       0.00000000       0.04329849
Mg       0.00000000       0.00000000       5.88080808       0.00000000       0.00000000      -0.04329849
2
Properties=species:S:1:pos:R:3:forces:R:3 energy=-0.032461668404945146 pbc="F F F"
Mg       0.00000000       0.00000000       0.00000000       0.00000000       0.00000000       0.02088865
Mg       0.00000000       0.00000000       5.94040404       0.00000000       0.00000000      -0.02088865
2
Properties=species:S:1:pos:R:3:forces:R:3 energy=-0.03158409072255088 pbc="F F F"
Mg       0.00000000       0.00000000       0.00000000       0.00000000       0.00000000       0.01149992
Mg       0.00000000       0.00000000       6.00000000       0.00000000       0.00000000      -0.01149992
