2
Properties=species:S:1:pos:R:3:forces:R:3 energy=91092.01907269997 pbc="F F F"
Pb       0.00000000       0.00000000       0.00000000       0.00000000       0.00000000 -2325888.00000000
Pb       0.00000000       0.00000000       0.10000000       0.00000000       0.00000000 2325888.00000000
2
Properties=species:S:1:pos:R:3:forces:R:3 energy=24701.534697699975 pbc="F F F"
Pb       0.00000000       0.00000000       0.00000000       0.00000000       0.00000000 -471945.96875000
Pb       0.00000000       0.00000000       0.15959596       0.00000000       0.00000000  471945.96875000
2
Properties=species:S:1:pos:R:3:forces:R:3 energy=8775.977080512477 pbc="F F F"
Pb       0.00000000       0.00000000       0.00000000       0.00000000       0.00000000 -139941.06250000
Pb       0.00000000       0.00000000       0.21919192       0.00000000       0.00000000  139941.06250000
2
Properties=species:S:1:pos:R:3:forces:R:3 energy=3600.5852348093517 pbc="F F F"
Pb       0.00000000       0.00000000       0.00000000       0.00000000       0.00000000  -50719.55859375
Pb       0.00000000       0.00000000       0.27878788       0.00000000       0.00000000   50719.55859375
2
Properties=species:S:1:pos:R:3:forces:R:3 energy=1619.6972953562267 pbc="F F F"
Pb       0.00000000       0.00000000       0.00000000       0.00000000       0.00000000  -20706.88476562
Pb       0.00000000       0.00000000       0.33838384       0.00000000       0.00000000   20706.88476562
2
Properties=species:S:1:pos:R:3:forces:R:3 energy=780.1047050241955 pbc="F F F"
Pb       0.00000000       0.00000000       0.00000000       0.00000000       0.00000000   -9182.92285156
Pb       0.00000000       0.00000000       0.39797980       0.00000000       0.00000000    9182.92285156
2
Properties=species:S:1:pos:R:3:forces:R:3 energy=396.51464765748426 pbc="F F F"
Pb       0.00000000       0.00000000       0.00000000       0.00000000       0.00000000   -4351.06152344
Pb       0.00000000       0.00000000       0.45757576       0.00000000       0.00000000    4351.06152344
2
Properties=species:S:1:pos:R:3:forces:R:3 energy=210.04312056737834 pbc="F F F"
Pb       0.00000000       0.00000000       0.00000000       0.00000000       0.00000000   -2181.50073242
Pb       0.00000000       0.00000000       0.51717172       0.00000000       0.00000000    2181.50073242
2
Properties=species:S:1:pos:R:3:forces:R:3 energy=114.51575394503386 pbc="F F F"
Pb       0.00000000       0.00000000       0.00000000       0.00000000       0.00000000   -1145.29248047
Pb       0.00000000       0.00000000       0.57676768       0.00000000       0.00000000    1145.29248047
2
Properties=species:S:1:pos:R:3:forces:R:3 energy=63.625380746731615 pbc="F F F"
Pb       0.00000000       0.00000000       0.00000000       0.00000000       0.00000000    -618.58795166
Pb       0.00000000       0.00000000       0.63636364       0.00000000       0.00000000     618.58795166
2
Properties=species:S:1:pos:R:3:forces:R:3 energy=36.079554832829174 pbc="F F F"
Pb       0.00000000       0.00000000       0.00000000       0.00000000       0.00000000    -333.30221558
Pb       0.00000000       0.00000000       0.69595960       0.00000000       0.00000000     333.30221558
2
Properties=species:S:1:pos:R:3:forces:R:3 energy=21.609372486865837 pbc="F F F"
Pb       0.00000000       0.00000000       0.00000000       0.00000000       0.00000000    -162.24948120
Pb       0.00000000       0.00000000       0.75555556       0.00000000       0.00000000     162.24948120
2
Properties=species:S:1:pos:R:3:forces:R:3 energy=16.756524538425452 pbc="F F F"
Pb       0.00000000       0.00000000       0.00000000       0.00000000       0.00000000      -7.59785414
Pb       0.00000000       0.00000000       0.81515152       0.00000000       0.00000000       7.59785414
2
Properties=species:S:1:pos:R:3:forces:R:3 energy=18.038390767257138 pbc="F F F"
Pb       0.00000000       0.00000000       0.00000000       0.00000000       0.00000000      33.15695953
Pb       0.00000000       0.00000000       0.87474747       0.00000000       0.00000000     -33.15695953
2
Properties=species:S:1:pos:R:3:forces:R:3 energy=19.800834528317335 pbc="F F F"
Pb       0.00000000       0.00000000       0.00000000       0.00000000       0.00000000      27.66000557
Pb       0.00000000       0.00000000       0.93434343       0.00000000       0.00000000     -27.66000557
2
Properties=species:S:1:pos:R:3:forces:R:3 energy=21.300726110388368 pbc="F F F"
Pb       0.00000000       0.00000000       0.00000000       0.00000000       0.00000000       1.32504106
Pb       0.00000000       0.00000000       0.99393939       0.00000000       0.00000000      -1.32504106
2
Properties=species:S:1:pos:R:3:forces:R:3 energy=21.25559102099055 pbc="F F F"
Pb       0.00000000       0.00000000       0.00000000       0.00000000       0.00000000       6.92060518
Pb       0.00000000       0.00000000       1.05353535       0.00000000       0.00000000      -6.92060518
2
Properties=species:S:1:pos:R:3:forces:R:3 energy=22.01300162163008 pbc="F F F"
Pb       0.00000000       0.00000000       0.00000000       0.00000000       0.00000000      16.77983475
Pb       0.00000000       0.00000000       1.11313131       0.00000000       0.00000000     -16.77983475
2
Properties=species:S:1:pos:R:3:forces:R:3 energy=23.055322595358373 pbc="F F F"
Pb       0.00000000       0.00000000       0.00000000       0.00000000       0.00000000      16.97184944
Pb       0.00000000       0.00000000       1.17272727       0.00000000       0.00000000     -16.97184944
2
Properties=species:S:1:pos:R:3:forces:R:3 energy=24.598275113728214 pbc="F F F"
Pb       0.00000000       0.00000000       0.00000000       0.00000000       0.00000000      46.83107376
Pb       0.00000000       0.00000000       1.23232323       0.00000000       0.00000000     -46.83107376
2
Properties=species:S:1:pos:R:3:forces:R:3 energy=26.639808837147942 pbc="F F F"
Pb       0.00000000       0.00000000       0.00000000       0.00000000       0.00000000      13.63577557
Pb       0.00000000       0.00000000       1.29191919       0.00000000       0.00000000     -13.63577557
2
Properties=species:S:1:pos:R:3:forces:R:3 energy=26.498876373559703 pbc="F F F"
Pb       0.00000000       0.00000000       0.00000000       0.00000000       0.00000000     -19.53276634
Pb       0.00000000       0.00000000       1.35151515       0.00000000       0.00000000      19.53276634
2
Properties=species:S:1:pos:R:3:forces:R:3 energy=24.409793674351427 pbc="F F F"
Pb       0.00000000       0.00000000       0.00000000       0.00000000       0.00000000     -47.15905762
Pb       0.00000000       0.00000000       1.41111111       0.00000000       0.00000000      47.15905762
2
Properties=species:S:1:pos:R:3:forces:R:3 energy=21.32639153137717 pbc="F F F"
Pb       0.00000000       0.00000000       0.00000000       0.00000000       0.00000000     -54.09978867
Pb       0.00000000       0.00000000       1.47070707       0.00000000       0.00000000      54.09978867
2
Properties=species:S:1:pos:R:3:forces:R:3 energy=18.074078975218466 pbc="F F F"
Pb       0.00000000       0.00000000       0.00000000       0.00000000       0.00000000     -54.03461838
Pb       0.00000000       0.00000000       1.53030303       0.00000000       0.00000000      54.03461838
2
Properties=species:S:1:pos:R:3:forces:R:3 energy=14.986156704096405 pbc="F F F"
Pb       0.00000000       0.00000000       0.00000000       0.00000000       0.00000000     -49.81359482
Pb       0.00000000       0.00000000       1.58989899       0.00000000       0.00000000      49.81359482
2
Properties=species:S:1:pos:R:3:forces:R:3 energy=12.054235359091164 pbc="F F F"
Pb       0.00000000       0.00000000       0.00000000       0.00000000       0.00000000     -48.78964996
Pb       0.00000000       0.00000000       1.64949495       0.00000000       0.00000000      48.78964996
2
Properties=species:S:1:pos:R:3:forces:R:3 energy=9.231287507535397 pbc="F F F"
Pb       0.00000000       0.00000000       0.00000000       0.00000000       0.00000000     -45.14020157
Pb       0.00000000       0.00000000       1.70909091       0.00000000       0.00000000      45.14020157
2
Properties=species:S:1:pos:R:3:forces:R:3 energy=6.745048328217482 pbc="F F F"
Pb       0.00000000       0.00000000       0.00000000       0.00000000       0.00000000     -38.02110291
Pb       0.00000000       0.00000000       1.76868687       0.00000000       0.00000000      38.02110291
2
Properties=species:S:1:pos:R:3:forces:R:3 energy=4.6998585518191485 pbc="F F F"
Pb       0.00000000       0.00000000       0.00000000       0.00000000       0.00000000     -30.79304886
Pb       0.00000000       0.00000000       1.82828283       0.00000000       0.00000000      30.79304886
2
Properties=species:S:1:pos:R:3:forces:R:3 energy=3.0459904770347745 pbc="F F F"
Pb       0.00000000       0.00000000       0.00000000       0.00000000       0.00000000     -24.95975685
Pb       0.00000000       0.00000000       1.88787879       0.00000000       0.00000000      24.95975685
2
Properties=species:S:1:pos:R:3:forces:R:3 energy=1.6989963266779136 pbc="F F F"
Pb       0.00000000       0.00000000       0.00000000       0.00000000       0.00000000     -20.42081833
Pb       0.00000000       0.00000000       1.94747475       0.00000000       0.00000000      20.42081833
2
Properties=species:S:1:pos:R:3:forces:R:3 energy=0.5953419910080165 pbc="F F F"
Pb       0.00000000       0.00000000       0.00000000       0.00000000       0.00000000     -16.72765160
Pb       0.00000000       0.00000000       2.00707071       0.00000000       0.00000000      16.72765160
2
Properties=species:S:1:pos:R:3:forces:R:3 energy=-0.306041254041863 pbc="F F F"
Pb       0.00000000       0.00000000       0.00000000       0.00000000       0.00000000     -13.60669899
Pb       0.00000000       0.00000000       2.06666667       0.00000000       0.00000000      13.60669899
2
Properties=species:S:1:pos:R:3:forces:R:3 energy=-1.0360712193630452 pbc="F F F"
Pb       0.00000000       0.00000000       0.00000000       0.00000000       0.00000000     -10.97093868
Pb       0.00000000       0.00000000       2.12626263       0.00000000       0.00000000      10.97093868
2
Properties=species:S:1:pos:R:3:forces:R:3 energy=-1.6228175770043696 pbc="F F F"
Pb       0.00000000       0.00000000       0.00000000       0.00000000       0.00000000      -8.79355907
Pb       0.00000000       0.00000000       2.18585859       0.00000000       0.00000000       8.79355907
2
Properties=species:S:1:pos:R:3:forces:R:3 energy=-2.0924007382291427 pbc="F F F"
Pb       0.00000000       0.00000000       0.00000000       0.00000000       0.00000000      -7.02842712
Pb       0.00000000       0.00000000       2.24545455       0.00000000       0.00000000       7.02842712
2
Properties=species:S:1:pos:R:3:forces:R:3 energy=-2.4672583442886906 pbc="F F F"
Pb       0.00000000       0.00000000       0.00000000       0.00000000       0.00000000      -5.60094738
Pb       0.00000000       0.00000000       2.30505051       0.00000000       0.00000000       5.60094738
2
Properties=species:S:1:pos:R:3:forces:R:3 energy=-2.7651005447191324 pbc="F F F"
Pb       0.00000000       0.00000000       0.00000000       0.00000000       0.00000000      -4.43145752
Pb       0.00000000       0.00000000       2.36464646       0.00000000       0.00000000       4.43145752
2
Properties=species:S:1:pos:R:3:forces:R:3 energy=-2.999298941823166 pbc="F F F"
Pb       0.00000000       0.00000000       0.00000000       0.00000000       0.00000000      -3.45625830
Pb       0.00000000       0.00000000       2.42424242       0.00000000       0.00000000       3.45625830
2
Properties=species:S:1:pos:R:3:forces:R:3 energy=-3.180063240210912 pbc="F F F"
Pb       0.00000000       0.00000000       0.00000000       0.00000000       0.00000000      -2.63278461
Pb       0.00000000       0.00000000       2.48383838       0.00000000       0.00000000       2.63278461
2
Properties=species:S:1:pos:R:3:forces:R:3 energy=-3.3155748502838893 pbc="F F F"
Pb       0.00000000       0.00000000       0.00000000       0.00000000       0.00000000      -1.93395686
Pb       0.00000000       0.00000000       2.54343434       0.00000000       0.00000000       1.93395686
2
Properties=species:S:1:pos:R:3:forces:R:3 energy=-3.4126729428640745 pbc="F F F"
Pb       0.00000000       0.00000000       0.00000000       0.00000000       0.00000000      -1.34085095
Pb       0.00000000       0.00000000       2.60303030       0.00000000       0.00000000       1.34085095
2
Properties=species:S:1:pos:R:3:forces:R:3 energy=-3.4771807483621093 pbc="F F F"
Pb       0.00000000       0.00000000       0.00000000       0.00000000       0.00000000      -0.83775133
Pb       0.00000000       0.00000000       2.66262626       0.00000000       0.00000000       0.83775133
2
Properties=species:S:1:pos:R:3:forces:R:3 energy=-3.514022381881058 pbc="F F F"
Pb       0.00000000       0.00000000       0.00000000       0.00000000       0.00000000      -0.41000175
Pb       0.00000000       0.00000000       2.72222222       0.00000000       0.00000000       0.41000175
2
Properties=species:S:1:pos:R:3:forces:R:3 energy=-3.527277266008889 pbc="F F F"
Pb       0.00000000       0.00000000       0.00000000       0.00000000       0.00000000      -0.04411148
Pb       0.00000000       0.00000000       2.78181818       0.00000000       0.00000000       0.04411148
2
Properties=species:S:1:pos:R:3:forces:R:3 energy=-3.520292718240784 pbc="F F F"
Pb       0.00000000       0.00000000       0.00000000       0.00000000       0.00000000       0.27062765
Pb       0.00000000       0.00000000       2.84141414       0.00000000       0.00000000      -0.27062765
2
Properties=species:S:1:pos:R:3:forces:R:3 energy=-3.495900498405408 pbc="F F F"
Pb       0.00000000       0.00000000       0.00000000       0.00000000       0.00000000       0.54094070
Pb       0.00000000       0.00000000       2.90101010       0.00000000       0.00000000      -0.54094070
2
Properties=species:S:1:pos:R:3:forces:R:3 energy=-3.456631622972759 pbc="F F F"
Pb       0.00000000       0.00000000       0.00000000       0.00000000       0.00000000       0.77025223
Pb       0.00000000       0.00000000       2.96060606       0.00000000       0.00000000      -0.77025223
2
Properties=species:S:1:pos:R:3:forces:R:3 energy=-3.4048576307342264 pbc="F F F"
Pb       0.00000000       0.00000000       0.00000000       0.00000000       0.00000000       0.96107680
Pb       0.00000000       0.00000000       3.02020202       0.00000000       0.00000000      -0.96107680
2
Properties=species:S:1:pos:R:3:forces:R:3 energy=-3.342769631822165 pbc="F F F"
Pb       0.00000000       0.00000000       0.00000000       0.00000000       0.00000000       1.11720455
Pb       0.00000000       0.00000000       3.07979798       0.00000000       0.00000000      -1.11720455
2
Properties=species:S:1:pos:R:3:forces:R:3 energy=-3.2722761563725355 pbc="F F F"
Pb       0.00000000       0.00000000       0.00000000       0.00000000       0.00000000       1.24408960
Pb       0.00000000       0.00000000       3.13939394       0.00000000       0.00000000      -1.24408960
2
Properties=species:S:1:pos:R:3:forces:R:3 energy=-3.1949538542606906 pbc="F F F"
Pb       0.00000000       0.00000000       0.00000000       0.00000000       0.00000000       1.34723866
Pb       0.00000000       0.00000000       3.19898990       0.00000000       0.00000000      -1.34723866
2
Properties=species:S:1:pos:R:3:forces:R:3 energy=-3.1121009564125757 pbc="F F F"
Pb       0.00000000       0.00000000       0.00000000       0.00000000       0.00000000       1.42998123
Pb       0.00000000       0.00000000       3.25858586       0.00000000       0.00000000      -1.42998123
2
Properties=species:S:1:pos:R:3:forces:R:3 energy=-3.02491305614149 pbc="F F F"
Pb       0.00000000       0.00000000       0.00000000       0.00000000       0.00000000       1.49242568
Pb       0.00000000       0.00000000       3.31818182       0.00000000       0.00000000      -1.49242568
2
Properties=species:S:1:pos:R:3:forces:R:3 energy=-2.9346607808719294 pbc="F F F"
Pb       0.00000000       0.00000000       0.00000000       0.00000000       0.00000000       1.53245246
Pb       0.00000000       0.00000000       3.37777778       0.00000000       0.00000000      -1.53245246
2
Properties=species:S:1:pos:R:3:forces:R:3 energy=-2.842742922006761 pbc="F F F"
Pb       0.00000000       0.00000000       0.00000000       0.00000000       0.00000000       1.54812348
Pb       0.00000000       0.00000000       3.43737374       0.00000000       0.00000000      -1.54812348
2
Properties=species:S:1:pos:R:3:forces:R:3 energy=-2.750622620210651 pbc="F F F"
Pb       0.00000000       0.00000000       0.00000000       0.00000000       0.00000000       1.53938091
Pb       0.00000000       0.00000000       3.49696970       0.00000000       0.00000000      -1.53938091
2
Properties=species:S:1:pos:R:3:forces:R:3 energy=-2.6597077277014365 pbc="F F F"
Pb       0.00000000       0.00000000       0.00000000       0.00000000       0.00000000       1.50817454
Pb       0.00000000       0.00000000       3.55656566       0.00000000       0.00000000      -1.50817454
2
Properties=species:S:1:pos:R:3:forces:R:3 energy=-2.5712343205153165 pbc="F F F"
Pb       0.00000000       0.00000000       0.00000000       0.00000000       0.00000000       1.45824277
Pb       0.00000000       0.00000000       3.61616162       0.00000000       0.00000000      -1.45824277
2
Properties=species:S:1:pos:R:3:forces:R:3 energy=-2.486162371169696 pbc="F F F"
Pb       0.00000000       0.00000000       0.00000000       0.00000000       0.00000000       1.39501250
Pb       0.00000000       0.00000000       3.67575758       0.00000000       0.00000000      -1.39501250
2
Properties=species:S:1:pos:R:3:forces:R:3 energy=-2.4051015486448204 pbc="F F F"
Pb       0.00000000       0.00000000       0.00000000       0.00000000       0.00000000       1.32463157
Pb       0.00000000       0.00000000       3.73535354       0.00000000       0.00000000      -1.32463157
2
Properties=species:S:1:pos:R:3:forces:R:3 energy=-2.3283090763549548 pbc="F F F"
Pb       0.00000000       0.00000000       0.00000000       0.00000000       0.00000000       1.25253570
Pb       0.00000000       0.00000000       3.79494949       0.00000000       0.00000000      -1.25253570
2
Properties=species:S:1:pos:R:3:forces:R:3 energy=-2.2557667423703753 pbc="F F F"
Pb       0.00000000       0.00000000       0.00000000       0.00000000       0.00000000       1.18248272
Pb       0.00000000       0.00000000       3.85454545       0.00000000       0.00000000      -1.18248272
2
Properties=species:S:1:pos:R:3:forces:R:3 energy=-2.1872876405439854 pbc="F F F"
Pb       0.00000000       0.00000000       0.00000000       0.00000000       0.00000000       1.11639917
Pb       0.00000000       0.00000000       3.91414141       0.00000000       0.00000000      -1.11639917
2
Properties=species:S:1:pos:R:3:forces:R:3 energy=-2.1226132573983114 pbc="F F F"
Pb       0.00000000       0.00000000       0.00000000       0.00000000       0.00000000       1.05471599
Pb       0.00000000       0.00000000       3.97373737       0.00000000       0.00000000      -1.05471599
2
Properties=species:S:1:pos:R:3:forces:R:3 energy=-2.061495666699043 pbc="F F F"
Pb       0.00000000       0.00000000       0.00000000       0.00000000       0.00000000       0.99694121
Pb       0.00000000       0.00000000       4.03333333       0.00000000       0.00000000      -0.99694121
2
Properties=species:S:1:pos:R:3:forces:R:3 energy=-2.003727038354246 pbc="F F F"
Pb       0.00000000       0.00000000       0.00000000       0.00000000       0.00000000       0.94215578
Pb       0.00000000       0.00000000       4.09292929       0.00000000       0.00000000      -0.94215578
2
Properties=species:S:1:pos:R:3:forces:R:3 energy=-1.949158016996022 pbc="F F F"
Pb       0.00000000       0.00000000       0.00000000       0.00000000       0.00000000       0.88940781
Pb       0.00000000       0.00000000       4.15252525       0.00000000       0.00000000      -0.88940781
2
Properties=species:S:1:pos:R:3:forces:R:3 energy=-1.897691850055203 pbc="F F F"
Pb       0.00000000       0.00000000       0.00000000       0.00000000       0.00000000       0.83796155
Pb       0.00000000       0.00000000       4.21212121       0.00000000       0.00000000      -0.83796155
2
Properties=species:S:1:pos:R:3:forces:R:3 energy=-1.8492618060245856 pbc="F F F"
Pb       0.00000000       0.00000000       0.00000000       0.00000000       0.00000000       0.78743136
Pb       0.00000000       0.00000000       4.27171717       0.00000000       0.00000000      -0.78743136
2
Properties=species:S:1:pos:R:3:forces:R:3 energy=-1.8038170364068429 pbc="F F F"
Pb       0.00000000       0.00000000       0.00000000       0.00000000       0.00000000       0.73785883
Pb       0.00000000       0.00000000       4.33131313       0.00000000       0.00000000      -0.73785883
2
Properties=species:S:1:pos:R:3:forces:R:3 energy=-1.761288045370323 pbc="F F F"
Pb       0.00000000       0.00000000       0.00000000       0.00000000       0.00000000       0.68966377
Pb       0.00000000       0.00000000       4.39090909       0.00000000       0.00000000      -0.68966377
2
Properties=species:S:1:pos:R:3:forces:R:3 energy=-1.7215734586858622 pbc="F F F"
Pb       0.00000000       0.00000000       0.00000000       0.00000000       0.00000000       0.64352053
Pb       0.00000000       0.00000000       4.45050505       0.00000000       0.00000000      -0.64352053
2
Properties=species:S:1:pos:R:3:forces:R:3 energy=-1.6845311970716648 pbc="F F F"
Pb       0.00000000       0.00000000       0.00000000       0.00000000       0.00000000       0.60010999
Pb       0.00000000       0.00000000       4.51010101       0.00000000       0.00000000      -0.60010999
2
Properties=species:S:1:pos:R:3:forces:R:3 energy=-1.6499820714789237 pbc="F F F"
Pb       0.00000000       0.00000000       0.00000000       0.00000000       0.00000000       0.55984193
Pb       0.00000000       0.00000000       4.56969697       0.00000000       0.00000000      -0.55984193
2
Properties=species:S:1:pos:R:3:forces:R:3 energy=-1.6177407343255448 pbc="F F F"
Pb       0.00000000       0.00000000       0.00000000       0.00000000       0.00000000       0.52262866
Pb       0.00000000       0.00000000       4.62929293       0.00000000       0.00000000      -0.52262866
2
Properties=species:S:1:pos:R:3:forces:R:3 energy=-1.5876413653462478 pbc="F F F"
Pb       0.00000000       0.00000000       0.00000000       0.00000000       0.00000000       0.48784339
Pb       0.00000000       0.00000000       4.68888889       0.00000000       0.00000000      -0.48784339
2
Properties=species:S:1:pos:R:3:forces:R:3 energy=-1.559565874676986 pbc="F F F"
Pb       0.00000000       0.00000000       0.00000000       0.00000000       0.00000000       0.45446768
Pb       0.00000000       0.00000000       4.74848485       0.00000000       0.00000000      -0.45446768
2
Properties=species:S:1:pos:R:3:forces:R:3 energy=-1.5334639035050637 pbc="F F F"
Pb       0.00000000       0.00000000       0.00000000       0.00000000       0.00000000       0.42152768
Pb       0.00000000       0.00000000       4.80808081       0.00000000       0.00000000      -0.42152768
2
Properties=species:S:1:pos:R:3:forces:R:3 energy=-1.509324377398441 pbc="F F F"
Pb       0.00000000       0.00000000       0.00000000       0.00000000       0.00000000       0.38856530
Pb       0.00000000       0.00000000       4.86767677       0.00000000       0.00000000      -0.38856530
2
Properties=species:S:1:pos:R:3:forces:R:3 energy=-1.4871414809730603 pbc="F F F"
Pb       0.00000000       0.00000000       0.00000000       0.00000000       0.00000000       0.35603309
Pb       0.00000000       0.00000000       4.92727273       0.00000000       0.00000000      -0.35603309
2
Properties=species:S:1:pos:R:3:forces:R:3 energy=-1.4668521847215232 pbc="F F F"
Pb       0.00000000       0.00000000       0.00000000       0.00000000       0.00000000       0.32532018
Pb       0.00000000       0.00000000       4.98686869       0.00000000       0.00000000      -0.32532018
2
Properties=species:S:1:pos:R:3:forces:R:3 energy=-1.4482928971812046 pbc="F F F"
Pb       0.00000000       0.00000000       0.00000000       0.00000000       0.00000000       0.29836693
Pb       0.00000000       0.00000000       5.04646465       0.00000000       0.00000000      -0.29836693
2
Properties=species:S:1:pos:R:3:forces:R:3 energy=-1.4311841479564402 pbc="F F F"
Pb       0.00000000       0.00000000       0.00000000       0.00000000       0.00000000       0.27672938
Pb       0.00000000       0.00000000       5.10606061       0.00000000       0.00000000      -0.27672938
2
Properties=species:S:1:pos:R:3:forces:R:3 energy=-1.4151988277012142 pbc="F F F"
Pb       0.00000000       0.00000000       0.00000000       0.00000000       0.00000000       0.26040232
Pb       0.00000000       0.00000000       5.16565657       0.00000000       0.00000000      -0.26040232
2
Properties=species:S:1:pos:R:3:forces:R:3 energy=-1.4000912953635243 pbc="F F F"
Pb       0.00000000       0.00000000       0.00000000       0.00000000       0.00000000       0.24667394
Pb       0.00000000       0.00000000       5.22525253       0.00000000       0.00000000      -0.24667394
2
Properties=species:S:1:pos:R:3:forces:R:3 energy=-1.3858470892139465 pbc="F F F"
Pb       0.00000000       0.00000000       0.00000000       0.00000000       0.00000000       0.23055856
Pb       0.00000000       0.00000000       5.28484848       0.00000000       0.00000000      -0.23055856
2
Properties=species:S:1:pos:R:3:forces:R:3 energy=-1.3727120761007767 pbc="F F F"
Pb       0.00000000       0.00000000       0.00000000       0.00000000       0.00000000       0.20975570
Pb       0.00000000       0.00000000       5.34444444       0.00000000       0.00000000      -0.20975570
2
Properties=species:S:1:pos:R:3:forces:R:3 energy=-1.3607672144911809 pbc="F F F"
Pb       0.00000000       0.00000000       0.00000000       0.00000000       0.00000000       0.19317196
Pb       0.00000000       0.00000000       5.40404040       0.00000000       0.00000000      -0.19317196
2
Properties=species:S:1:pos:R:3:forces:R:3 energy=-1.3493371239236016 pbc="F F F"
Pb       0.00000000       0.00000000       0.00000000       0.00000000       0.00000000       0.19296530
Pb       0.00000000       0.00000000       5.46363636       0.00000000       0.00000000      -0.19296530
2
Properties=species:S:1:pos:R:3:forces:R:3 energy=-1.337707852059698 pbc="F F F"
Pb       0.00000000       0.00000000       0.00000000       0.00000000       0.00000000       0.19554843
Pb       0.00000000       0.00000000       5.52323232       0.00000000       0.00000000      -0.19554843
2
Properties=species:S:1:pos:R:3:forces:R:3 energy=-1.3264183612008515 pbc="F F F"
Pb       0.00000000       0.00000000       0.00000000       0.00000000       0.00000000       0.18020158
Pb       0.00000000       0.00000000       5.58282828       0.00000000       0.00000000      -0.18020158
2
Properties=species:S:1:pos:R:3:forces:R:3 energy=-1.316365257020172 pbc="F F F"
Pb       0.00000000       0.00000000       0.00000000       0.00000000       0.00000000       0.15853636
Pb       0.00000000       0.00000000       5.64242424       0.00000000       0.00000000      -0.15853636
2
Properties=species:S:1:pos:R:3:forces:R:3 energy=-1.3071023123965673 pbc="F F F"
Pb       0.00000000       0.00000000       0.00000000       0.00000000       0.00000000       0.15668103
Pb       0.00000000       0.00000000       5.70202020       0.00000000       0.00000000      -0.15668103
2
Properties=species:S:1:pos:R:3:forces:R:3 energy=-1.2973655890869458 pbc="F F F"
Pb       0.00000000       0.00000000       0.00000000       0.00000000       0.00000000       0.16964331
Pb       0.00000000       0.00000000       5.76161616       0.00000000       0.00000000      -0.16964331
2
Properties=species:S:1:pos:R:3:forces:R:3 energy=-1.2874891933881207 pbc="F F F"
Pb       0.00000000       0.00000000       0.00000000       0.00000000       0.00000000       0.15350156
Pb       0.00000000       0.00000000       5.82121212       0.00000000       0.00000000      -0.15350156
2
Properties=species:S:1:pos:R:3:forces:R:3 energy=-1.279953473310074 pbc="F F F"
Pb       0.00000000       0.00000000       0.00000000       0.00000000       0.00000000       0.09579742
Pb       0.00000000       0.00000000       5.88080808       0.00000000       0.00000000      -0.09579742
2
Properties=species:S:1:pos:R:3:forces:R:3 energy=-1.2760935055395906 pbc="F F F"
Pb       0.00000000       0.00000000       0.00000000       0.00000000       0.00000000       0.03598633
Pb       0.00000000       0.00000000       5.94040404       0.00000000       0.00000000      -0.03598633
2
Properties=species:S:1:pos:R:3:forces:R:3 energy=-1.2749172066103633 pbc="F F F"
Pb       0.00000000       0.00000000       0.00000000       0.00000000       0.00000000       0.01160836
Pb       0.00000000       0.00000000       6.00000000       0.00000000       0.00000000      -0.01160836
