2
Properties=species:S:1:pos:R:3:forces:R:3 energy=59125.05828224543 pbc="F F F"
Sm       0.00000000       0.00000000       0.00000000       0.00000000       0.00000000 -1462646.25000000
Sm       0.00000000       0.00000000       0.10000000       0.00000000       0.00000000 1462646.25000000
2
Properties=species:S:1:pos:R:3:forces:R:3 energy=16700.57781349543 pbc="F F F"
Sm       0.00000000       0.00000000       0.00000000       0.00000000       0.00000000 -308722.09375000
Sm       0.00000000       0.00000000       0.15959596       0.00000000       0.00000000  308722.09375000
2
Properties=species:S:1:pos:R:3:forces:R:3 energy=6151.717461932929 pbc="F F F"
Sm       0.00000000       0.00000000       0.00000000       0.00000000       0.00000000  -94404.01562500
Sm       0.00000000       0.00000000       0.21919192       0.00000000       0.00000000   94404.01562500
2
Properties=species:S:1:pos:R:3:forces:R:3 energy=2614.4962705266794 pbc="F F F"
Sm       0.00000000       0.00000000       0.00000000       0.00000000       0.00000000  -35315.69531250
Sm       0.00000000       0.00000000       0.27878788       0.00000000       0.00000000   35315.69531250
2
Properties=species:S:1:pos:R:3:forces:R:3 energy=1215.8818906438667 pbc="F F F"
Sm       0.00000000       0.00000000       0.00000000       0.00000000       0.00000000  -14893.62109375
Sm       0.00000000       0.00000000       0.33838384       0.00000000       0.00000000   14893.62109375
2
Properties=species:S:1:pos:R:3:forces:R:3 energy=603.8261045110543 pbc="F F F"
Sm       0.00000000       0.00000000       0.00000000       0.00000000       0.00000000   -6808.16650391
Sm       0.00000000       0.00000000       0.39797980       0.00000000       0.00000000    6808.16650391
2
Properties=species:S:1:pos:R:3:forces:R:3 energy=316.04000222880364 pbc="F F F"
Sm       0.00000000       0.00000000       0.00000000       0.00000000       0.00000000   -3311.35742188
Sm       0.00000000       0.00000000       0.45757576       0.00000000       0.00000000    3311.35742188
2
Properties=species:S:1:pos:R:3:forces:R:3 energy=172.6796201613968 pbc="F F F"
Sm       0.00000000       0.00000000       0.00000000       0.00000000       0.00000000   -1697.83361816
Sm       0.00000000       0.00000000       0.51717172       0.00000000       0.00000000    1697.83361816
2
Properties=species:S:1:pos:R:3:forces:R:3 energy=97.57822553341906 pbc="F F F"
Sm       0.00000000       0.00000000       0.00000000       0.00000000       0.00000000    -912.67065430
Sm       0.00000000       0.00000000       0.57676768       0.00000000       0.00000000     912.67065430
2
Properties=species:S:1:pos:R:3:forces:R:3 energy=56.3996939373757 pbc="F F F"
Sm       0.00000000       0.00000000       0.00000000       0.00000000       0.00000000    -512.35546875
Sm       0.00000000       0.00000000       0.63636364       0.00000000       0.00000000     512.35546875
2
Properties=species:S:1:pos:R:3:forces:R:3 energy=32.84860757495089 pbc="F F F"
Sm       0.00000000       0.00000000       0.00000000       0.00000000       0.00000000    -299.55520630
Sm       0.00000000       0.00000000       0.69595960       0.00000000       0.00000000     299.55520630
2
Properties=species:S:1:pos:R:3:forces:R:3 energy=18.828138010793857 pbc="F F F"
Sm       0.00000000       0.00000000       0.00000000       0.00000000       0.00000000    -182.19769287
Sm       0.00000000       0.00000000       0.75555556       0.00000000       0.00000000     182.19769287
2
Properties=species:S:1:pos:R:3:forces:R:3 energy=10.141071143660257 pbc="F F F"
Sm       0.00000000       0.00000000       0.00000000       0.00000000       0.00000000    -115.41527557
Sm       0.00000000       0.00000000       0.81515152       0.00000000       0.00000000     115.41527557
2
Properties=species:S:1:pos:R:3:forces:R:3 energy=4.526500741396381 pbc="F F F"
Sm       0.00000000       0.00000000       0.00000000       0.00000000       0.00000000     -76.40543365
Sm       0.00000000       0.00000000       0.87474747       0.00000000       0.00000000      76.40543365
2
Properties=species:S:1:pos:R:3:forces:R:3 energy=0.7257798896605299 pbc="F F F"
Sm       0.00000000       0.00000000       0.00000000       0.00000000       0.00000000     -53.08866501
Sm       0.00000000       0.00000000       0.93434343       0.00000000       0.00000000      53.08866501
2
Properties=species:S:1:pos:R:3:forces:R:3 energy=-1.9788257230577484 pbc="F F F"
Sm       0.00000000       0.00000000       0.00000000       0.00000000       0.00000000     -38.80070496
Sm       0.00000000       0.00000000       0.99393939       0.00000000       0.00000000      38.80070496
2
Properties=species:S:1:pos:R:3:forces:R:3 energy=-4.0012288445482005 pbc="F F F"
Sm       0.00000000       0.00000000       0.00000000       0.00000000       0.00000000     -29.70931435
Sm       0.00000000       0.00000000       1.05353535       0.00000000       0.00000000      29.70931435
2
Properties=species:S:1:pos:R:3:forces:R:3 energy=-5.5762650361492065 pbc="F F F"
Sm       0.00000000       0.00000000       0.00000000       0.00000000       0.00000000     -23.47589111
Sm       0.00000000       0.00000000       1.11313131       0.00000000       0.00000000      23.47589111
2
Properties=species:S:1:pos:R:3:forces:R:3 energy=-6.824141092732645 pbc="F F F"
Sm       0.00000000       0.00000000       0.00000000       0.00000000       0.00000000     -18.51793861
Sm       0.00000000       0.00000000       1.17272727       0.00000000       0.00000000      18.51793861
2
Properties=species:S:1:pos:R:3:forces:R:3 energy=-7.797279010274736 pbc="F F F"
Sm       0.00000000       0.00000000       0.00000000       0.00000000       0.00000000     -14.33907413
Sm       0.00000000       0.00000000       1.23232323       0.00000000       0.00000000      14.33907413
2
Properties=species:S:1:pos:R:3:forces:R:3 energy=-8.570890689205712 pbc="F F F"
Sm       0.00000000       0.00000000       0.00000000       0.00000000       0.00000000     -11.97777462
Sm       0.00000000       0.00000000       1.29191919       0.00000000       0.00000000      11.97777462
2
Properties=species:S:1:pos:R:3:forces:R:3 energy=-9.254922793921809 pbc="F F F"
Sm       0.00000000       0.00000000       0.00000000       0.00000000       0.00000000     -11.09097481
Sm       0.00000000       0.00000000       1.35151515       0.00000000       0.00000000      11.09097481
2
Properties=species:S:1:pos:R:3:forces:R:3 energy=-9.89457700146459 pbc="F F F"
Sm       0.00000000       0.00000000       0.00000000       0.00000000       0.00000000     -10.33977413
Sm       0.00000000       0.00000000       1.41111111       0.00000000       0.00000000      10.33977413
2
Properties=species:S:1:pos:R:3:forces:R:3 energy=-10.48392133087312 pbc="F F F"
Sm       0.00000000       0.00000000       0.00000000       0.00000000       0.00000000      -9.43724442
Sm       0.00000000       0.00000000       1.47070707       0.00000000       0.00000000       9.43724442
2
Properties=species:S:1:pos:R:3:forces:R:3 energy=-11.023145436623475 pbc="F F F"
Sm       0.00000000       0.00000000       0.00000000       0.00000000       0.00000000      -8.71192741
Sm       0.00000000       0.00000000       1.53030303       0.00000000       0.00000000       8.71192741
2
Properties=species:S:1:pos:R:3:forces:R:3 energy=-11.527920871359122 pbc="F F F"
Sm       0.00000000       0.00000000       0.00000000       0.00000000       0.00000000      -8.24867535
Sm       0.00000000       0.00000000       1.58989899       0.00000000       0.00000000       8.24867535
2
Properties=species:S:1:pos:R:3:forces:R:3 energy=-12.00356995205575 pbc="F F F"
Sm       0.00000000       0.00000000       0.00000000       0.00000000       0.00000000      -7.65269327
Sm       0.00000000       0.00000000       1.64949495       0.00000000       0.00000000       7.65269327
2
Properties=species:S:1:pos:R:3:forces:R:3 energy=-12.433040753852818 pbc="F F F"
Sm       0.00000000       0.00000000       0.00000000       0.00000000       0.00000000      -6.73687077
Sm       0.00000000       0.00000000       1.70909091       0.00000000       0.00000000       6.73687077
2
Properties=species:S:1:pos:R:3:forces:R:3 energy=-12.809833770872114 pbc="F F F"
Sm       0.00000000       0.00000000       0.00000000       0.00000000       0.00000000      -5.96490145
Sm       0.00000000       0.00000000       1.76868687       0.00000000       0.00000000       5.96490145
2
Properties=species:S:1:pos:R:3:forces:R:3 energy=-13.149210387102025 pbc="F F F"
Sm       0.00000000       0.00000000       0.00000000       0.00000000       0.00000000      -5.44084358
Sm       0.00000000       0.00000000       1.82828283       0.00000000       0.00000000       5.44084358
2
Properties=species:S:1:pos:R:3:forces:R:3 energy=-13.457668647894906 pbc="F F F"
Sm       0.00000000       0.00000000       0.00000000       0.00000000       0.00000000      -4.89502001
Sm       0.00000000       0.00000000       1.88787879       0.00000000       0.00000000       4.89502001
2
Properties=species:S:1:pos:R:3:forces:R:3 energy=-13.731404983294714 pbc="F F F"
Sm       0.00000000       0.00000000       0.00000000       0.00000000       0.00000000      -4.29170275
Sm       0.00000000       0.00000000       1.94747475       0.00000000       0.00000000       4.29170275
2
Properties=species:S:1:pos:R:3:forces:R:3 energy=-13.970693684037206 pbc="F F F"
Sm       0.00000000       0.00000000       0.00000000       0.00000000       0.00000000      -3.76085329
Sm       0.00000000       0.00000000       2.00707071       0.00000000       0.00000000       3.76085329
2
Properties=species:S:1:pos:R:3:forces:R:3 energy=-14.182790852514682 pbc="F F F"
Sm       0.00000000       0.00000000       0.00000000       0.00000000       0.00000000      -3.38291359
Sm       0.00000000       0.00000000       2.06666667       0.00000000       0.00000000       3.38291359
2
Properties=species:S:1:pos:R:3:forces:R:3 energy=-14.376377329862997 pbc="F F F"
Sm       0.00000000       0.00000000       0.00000000       0.00000000       0.00000000      -3.12747574
Sm       0.00000000       0.00000000       2.12626263       0.00000000       0.00000000       3.12747574
2
Properties=species:S:1:pos:R:3:forces:R:3 energy=-14.556330640687737 pbc="F F F"
Sm       0.00000000       0.00000000       0.00000000       0.00000000       0.00000000      -2.91187119
Sm       0.00000000       0.00000000       2.18585859       0.00000000       0.00000000       2.91187119
2
Properties=species:S:1:pos:R:3:forces:R:3 energy=-14.723049842333356 pbc="F F F"
Sm       0.00000000       0.00000000       0.00000000       0.00000000       0.00000000      -2.67801976
Sm       0.00000000       0.00000000       2.24545455       0.00000000       0.00000000       2.67801976
2
Properties=species:S:1:pos:R:3:forces:R:3 energy=-14.87494550516687 pbc="F F F"
Sm       0.00000000       0.00000000       0.00000000       0.00000000       0.00000000      -2.41552043
Sm       0.00000000       0.00000000       2.30505051       0.00000000       0.00000000       2.41552043
2
Properties=species:S:1:pos:R:3:forces:R:3 energy=-15.010627428788402 pbc="F F F"
Sm       0.00000000       0.00000000       0.00000000       0.00000000       0.00000000      -2.13594699
Sm       0.00000000       0.00000000       2.36464646       0.00000000       0.00000000       2.13594699
2
Properties=species:S:1:pos:R:3:forces:R:3 energy=-15.12930715594915 pbc="F F F"
Sm       0.00000000       0.00000000       0.00000000       0.00000000       0.00000000      -1.84460640
Sm       0.00000000       0.00000000       2.42424242       0.00000000       0.00000000       1.84460640
2
Properties=species:S:1:pos:R:3:forces:R:3 energy=-15.230141717908815 pbc="F F F"
Sm       0.00000000       0.00000000       0.00000000       0.00000000       0.00000000      -1.53571033
Sm       0.00000000       0.00000000       2.48383838       0.00000000       0.00000000       1.53571033
2
Properties=species:S:1:pos:R:3:forces:R:3 energy=-15.311886750410197 pbc="F F F"
Sm       0.00000000       0.00000000       0.00000000       0.00000000       0.00000000      -1.20380104
Sm       0.00000000       0.00000000       2.54343434       0.00000000       0.00000000       1.20380104
2
Properties=species:S:1:pos:R:3:forces:R:3 energy=-15.373288035670722 pbc="F F F"
Sm       0.00000000       0.00000000       0.00000000       0.00000000       0.00000000      -0.85546446
Sm       0.00000000       0.00000000       2.60303030       0.00000000       0.00000000       0.85546446
2
Properties=species:S:1:pos:R:3:forces:R:3 energy=-15.41393159366572 pbc="F F F"
Sm       0.00000000       0.00000000       0.00000000       0.00000000       0.00000000      -0.51145971
Sm       0.00000000       0.00000000       2.66262626       0.00000000       0.00000000       0.51145971
2
Properties=species:S:1:pos:R:3:forces:R:3 energy=-15.434884437227462 pbc="F F F"
Sm       0.00000000       0.00000000       0.00000000       0.00000000       0.00000000      -0.19928022
Sm       0.00000000       0.00000000       2.72222222       0.00000000       0.00000000       0.19928022
2
Properties=species:S:1:pos:R:3:forces:R:3 energy=-15.438799412863508 pbc="F F F"
Sm       0.00000000       0.00000000       0.00000000       0.00000000       0.00000000       0.05709598
Sm       0.00000000       0.00000000       2.78181818       0.00000000       0.00000000      -0.05709598
2
Properties=species:S:1:pos:R:3:forces:R:3 energy=-15.429462129428698 pbc="F F F"
Sm       0.00000000       0.00000000       0.00000000       0.00000000       0.00000000       0.24433067
Sm       0.00000000       0.00000000       2.84141414       0.00000000       0.00000000      -0.24433067
2
Properties=species:S:1:pos:R:3:forces:R:3 energy=-15.411057836001602 pbc="F F F"
Sm       0.00000000       0.00000000       0.00000000       0.00000000       0.00000000       0.36250022
Sm       0.00000000       0.00000000       2.90101010       0.00000000       0.00000000      -0.36250022
2
Properties=species:S:1:pos:R:3:forces:R:3 energy=-15.387384425161569 pbc="F F F"
Sm       0.00000000       0.00000000       0.00000000       0.00000000       0.00000000       0.42409921
Sm       0.00000000       0.00000000       2.96060606       0.00000000       0.00000000      -0.42409921
2
Properties=species:S:1:pos:R:3:forces:R:3 energy=-15.361234426689137 pbc="F F F"
Sm       0.00000000       0.00000000       0.00000000       0.00000000       0.00000000       0.44915521
Sm       0.00000000       0.00000000       3.02020202       0.00000000       0.00000000      -0.44915521
2
Properties=species:S:1:pos:R:3:forces:R:3 energy=-15.334167269473724 pbc="F F F"
Sm       0.00000000       0.00000000       0.00000000       0.00000000       0.00000000       0.45794120
Sm       0.00000000       0.00000000       3.07979798       0.00000000       0.00000000      -0.45794120
2
Properties=species:S:1:pos:R:3:forces:R:3 energy=-15.306678832801339 pbc="F F F"
Sm       0.00000000       0.00000000       0.00000000       0.00000000       0.00000000       0.46516532
Sm       0.00000000       0.00000000       3.13939394       0.00000000       0.00000000      -0.46516532
2
Properties=species:S:1:pos:R:3:forces:R:3 energy=-15.278599280599988 pbc="F F F"
Sm       0.00000000       0.00000000       0.00000000       0.00000000       0.00000000       0.47847921
Sm       0.00000000       0.00000000       3.19898990       0.00000000       0.00000000      -0.47847921
2
Properties=species:S:1:pos:R:3:forces:R:3 energy=-15.249475294771214 pbc="F F F"
Sm       0.00000000       0.00000000       0.00000000       0.00000000       0.00000000       0.50034165
Sm       0.00000000       0.00000000       3.25858586       0.00000000       0.00000000      -0.50034165
2
Properties=species:S:1:pos:R:3:forces:R:3 energy=-15.218800176797428 pbc="F F F"
Sm       0.00000000       0.00000000       0.00000000       0.00000000       0.00000000       0.53035676
Sm       0.00000000       0.00000000       3.31818182       0.00000000       0.00000000      -0.53035676
2
Properties=species:S:1:pos:R:3:forces:R:3 energy=-15.18613942864073 pbc="F F F"
Sm       0.00000000       0.00000000       0.00000000       0.00000000       0.00000000       0.56654149
Sm       0.00000000       0.00000000       3.37777778       0.00000000       0.00000000      -0.56654149
2
Properties=species:S:1:pos:R:3:forces:R:3 energy=-15.15120915677749 pbc="F F F"
Sm       0.00000000       0.00000000       0.00000000       0.00000000       0.00000000       0.60592604
Sm       0.00000000       0.00000000       3.43737374       0.00000000       0.00000000      -0.60592604
2
Properties=species:S:1:pos:R:3:forces:R:3 energy=-15.113918008525673 pbc="F F F"
Sm       0.00000000       0.00000000       0.00000000       0.00000000       0.00000000       0.64524400
Sm       0.00000000       0.00000000       3.49696970       0.00000000       0.00000000      -0.64524400
2
Properties=species:S:1:pos:R:3:forces:R:3 energy=-15.074357571945248 pbc="F F F"
Sm       0.00000000       0.00000000       0.00000000       0.00000000       0.00000000       0.68170547
Sm       0.00000000       0.00000000       3.55656566       0.00000000       0.00000000      -0.68170547
2
Properties=species:S:1:pos:R:3:forces:R:3 energy=-15.032759549192964 pbc="F F F"
Sm       0.00000000       0.00000000       0.00000000       0.00000000       0.00000000       0.71345478
Sm       0.00000000       0.00000000       3.61616162       0.00000000       0.00000000      -0.71345478
2
Properties=species:S:1:pos:R:3:forces:R:3 energy=-14.989434746708678 pbc="F F F"
Sm       0.00000000       0.00000000       0.00000000       0.00000000       0.00000000       0.73949164
Sm       0.00000000       0.00000000       3.67575758       0.00000000       0.00000000      -0.73949164
2
Properties=species:S:1:pos:R:3:forces:R:3 energy=-14.944742456266917 pbc="F F F"
Sm       0.00000000       0.00000000       0.00000000       0.00000000       0.00000000       0.75927889
Sm       0.00000000       0.00000000       3.73535354       0.00000000       0.00000000      -0.75927889
2
Properties=species:S:1:pos:R:3:forces:R:3 energy=-14.899067756862621 pbc="F F F"
Sm       0.00000000       0.00000000       0.00000000       0.00000000       0.00000000       0.77232236
Sm       0.00000000       0.00000000       3.79494949       0.00000000       0.00000000      -0.77232236
2
Properties=species:S:1:pos:R:3:forces:R:3 energy=-14.852836608773448 pbc="F F F"
Sm       0.00000000       0.00000000       0.00000000       0.00000000       0.00000000       0.77785105
Sm       0.00000000       0.00000000       3.85454545       0.00000000       0.00000000      -0.77785105
2
Properties=species:S:1:pos:R:3:forces:R:3 energy=-14.80652463936924 pbc="F F F"
Sm       0.00000000       0.00000000       0.00000000       0.00000000       0.00000000       0.77481318
Sm       0.00000000       0.00000000       3.91414141       0.00000000       0.00000000      -0.77481318
2
Properties=species:S:1:pos:R:3:forces:R:3 energy=-14.760675060183416 pbc="F F F"
Sm       0.00000000       0.00000000       0.00000000       0.00000000       0.00000000       0.76223797
Sm       0.00000000       0.00000000       3.97373737       0.00000000       0.00000000      -0.76223797
2
Properties=species:S:1:pos:R:3:forces:R:3 energy=-14.715868402760625 pbc="F F F"
Sm       0.00000000       0.00000000       0.00000000       0.00000000       0.00000000       0.73984104
Sm       0.00000000       0.00000000       4.03333333       0.00000000       0.00000000      -0.73984104
2
Properties=species:S:1:pos:R:3:forces:R:3 energy=-14.67267372921114 pbc="F F F"
Sm       0.00000000       0.00000000       0.00000000       0.00000000       0.00000000       0.70833254
Sm       0.00000000       0.00000000       4.09292929       0.00000000       0.00000000      -0.70833254
2
Properties=species:S:1:pos:R:3:forces:R:3 energy=-14.631591614492494 pbc="F F F"
Sm       0.00000000       0.00000000       0.00000000       0.00000000       0.00000000       0.66918755
Sm       0.00000000       0.00000000       4.15252525       0.00000000       0.00000000      -0.66918755
2
Properties=species:S:1:pos:R:3:forces:R:3 energy=-14.593030215852545 pbc="F F F"
Sm       0.00000000       0.00000000       0.00000000       0.00000000       0.00000000       0.62406600
Sm       0.00000000       0.00000000       4.21212121       0.00000000       0.00000000      -0.62406600
2
Properties=species:S:1:pos:R:3:forces:R:3 energy=-14.557298736493445 pbc="F F F"
Sm       0.00000000       0.00000000       0.00000000       0.00000000       0.00000000       0.57439160
Sm       0.00000000       0.00000000       4.27171717       0.00000000       0.00000000      -0.57439160
2
Properties=species:S:1:pos:R:3:forces:R:3 energy=-14.524632208432568 pbc="F F F"
Sm       0.00000000       0.00000000       0.00000000       0.00000000       0.00000000       0.52149171
Sm       0.00000000       0.00000000       4.33131313       0.00000000       0.00000000      -0.52149171
2
Properties=species:S:1:pos:R:3:forces:R:3 energy=-14.495170600366576 pbc="F F F"
Sm       0.00000000       0.00000000       0.00000000       0.00000000       0.00000000       0.46716005
Sm       0.00000000       0.00000000       4.39090909       0.00000000       0.00000000      -0.46716005
2
Properties=species:S:1:pos:R:3:forces:R:3 energy=-14.468920683370046 pbc="F F F"
Sm       0.00000000       0.00000000       0.00000000       0.00000000       0.00000000       0.41430017
Sm       0.00000000       0.00000000       4.45050505       0.00000000       0.00000000      -0.41430017
2
Properties=species:S:1:pos:R:3:forces:R:3 energy=-14.445677968985706 pbc="F F F"
Sm       0.00000000       0.00000000       0.00000000       0.00000000       0.00000000       0.36705726
Sm       0.00000000       0.00000000       4.51010101       0.00000000       0.00000000      -0.36705726
2
Properties=species:S:1:pos:R:3:forces:R:3 energy=-14.424964593680976 pbc="F F F"
Sm       0.00000000       0.00000000       0.00000000       0.00000000       0.00000000       0.33016694
Sm       0.00000000       0.00000000       4.56969697       0.00000000       0.00000000      -0.33016694
2
Properties=species:S:1:pos:R:3:forces:R:3 energy=-14.406039172373353 pbc="F F F"
Sm       0.00000000       0.00000000       0.00000000       0.00000000       0.00000000       0.30756426
Sm       0.00000000       0.00000000       4.62929293       0.00000000       0.00000000      -0.30756426
2
Properties=species:S:1:pos:R:3:forces:R:3 energy=-14.387991009447108 pbc="F F F"
Sm       0.00000000       0.00000000       0.00000000       0.00000000       0.00000000       0.30070207
Sm       0.00000000       0.00000000       4.68888889       0.00000000       0.00000000      -0.30070207
2
Properties=species:S:1:pos:R:3:forces:R:3 energy=-14.369926305999481 pbc="F F F"
Sm       0.00000000       0.00000000       0.00000000       0.00000000       0.00000000       0.30736852
Sm       0.00000000       0.00000000       4.74848485       0.00000000       0.00000000      -0.30736852
2
Properties=species:S:1:pos:R:3:forces:R:3 energy=-14.351200678975836 pbc="F F F"
Sm       0.00000000       0.00000000       0.00000000       0.00000000       0.00000000       0.32174534
Sm       0.00000000       0.00000000       4.80808081       0.00000000       0.00000000      -0.32174534
2
Properties=species:S:1:pos:R:3:forces:R:3 energy=-14.331578678206274 pbc="F F F"
Sm       0.00000000       0.00000000       0.00000000       0.00000000       0.00000000       0.33605638
Sm       0.00000000       0.00000000       4.86767677       0.00000000       0.00000000      -0.33605638
2
Properties=species:S:1:pos:R:3:forces:R:3 energy=-14.311286156129658 pbc="F F F"
Sm       0.00000000       0.00000000       0.00000000       0.00000000       0.00000000       0.34339273
Sm       0.00000000       0.00000000       4.92727273       0.00000000       0.00000000      -0.34339273
2
Properties=species:S:1:pos:R:3:forces:R:3 energy=-14.29085572820485 pbc="F F F"
Sm       0.00000000       0.00000000       0.00000000       0.00000000       0.00000000       0.34049356
Sm       0.00000000       0.00000000       4.98686869       0.00000000       0.00000000      -0.34049356
2
Properties=species:S:1:pos:R:3:forces:R:3 energy=-14.270878963308261 pbc="F F F"
Sm       0.00000000       0.00000000       0.00000000       0.00000000       0.00000000       0.32886150
Sm       0.00000000       0.00000000       5.04646465       0.00000000       0.00000000      -0.32886150
2
Properties=species:S:1:pos:R:3:forces:R:3 energy=-14.25174387620671 pbc="F F F"
Sm       0.00000000       0.00000000       0.00000000       0.00000000       0.00000000       0.31296021
Sm       0.00000000       0.00000000       5.10606061       0.00000000       0.00000000      -0.31296021
2
Properties=species:S:1:pos:R:3:forces:R:3 energy=-14.233594141309371 pbc="F F F"
Sm       0.00000000       0.00000000       0.00000000       0.00000000       0.00000000       0.29581583
Sm       0.00000000       0.00000000       5.16565657       0.00000000       0.00000000      -0.29581583
2
Properties=species:S:1:pos:R:3:forces:R:3 energy=-14.216560645457333 pbc="F F F"
Sm       0.00000000       0.00000000       0.00000000       0.00000000       0.00000000       0.27458650
Sm       0.00000000       0.00000000       5.22525253       0.00000000       0.00000000      -0.27458650
2
Properties=species:S:1:pos:R:3:forces:R:3 energy=-14.201098993596938 pbc="F F F"
Sm       0.00000000       0.00000000       0.00000000       0.00000000       0.00000000       0.24200642
Sm       0.00000000       0.00000000       5.28484848       0.00000000       0.00000000      -0.24200642
2
Properties=species:S:1:pos:R:3:forces:R:3 energy=-14.187898985747458 pbc="F F F"
Sm       0.00000000       0.00000000       0.00000000       0.00000000       0.00000000       0.20137300
Sm       0.00000000       0.00000000       5.34444444       0.00000000       0.00000000      -0.20137300
2
Properties=species:S:1:pos:R:3:forces:R:3 energy=-14.176619804103058 pbc="F F F"
Sm       0.00000000       0.00000000       0.00000000       0.00000000       0.00000000       0.18483470
Sm       0.00000000       0.00000000       5.40404040       0.00000000       0.00000000      -0.18483470
2
Properties=species:S:1:pos:R:3:forces:R:3 energy=-14.164840061959938 pbc="F F F"
Sm       0.00000000       0.00000000       0.00000000       0.00000000       0.00000000       0.21639527
Sm       0.00000000       0.00000000       5.46363636       0.00000000       0.00000000      -0.21639527
2
Properties=species:S:1:pos:R:3:forces:R:3 energy=-14.150903377807165 pbc="F F F"
Sm       0.00000000       0.00000000       0.00000000       0.00000000       0.00000000       0.24482194
Sm       0.00000000       0.00000000       5.52323232       0.00000000       0.00000000      -0.24482194
2
Properties=species:S:1:pos:R:3:forces:R:3 energy=-14.136624877694056 pbc="F F F"
Sm       0.00000000       0.00000000       0.00000000       0.00000000       0.00000000       0.22848418
Sm       0.00000000       0.00000000       5.58282828       0.00000000       0.00000000      -0.22848418
2
Properties=species:S:1:pos:R:3:forces:R:3 energy=-14.123715654806057 pbc="F F F"
Sm       0.00000000       0.00000000       0.00000000       0.00000000       0.00000000       0.21032698
Sm       0.00000000       0.00000000       5.64242424       0.00000000       0.00000000      -0.21032698
2
Properties=species:S:1:pos:R:3:forces:R:3 energy=-14.110427774897866 pbc="F F F"
Sm       0.00000000       0.00000000       0.00000000       0.00000000       0.00000000       0.24503094
Sm       0.00000000       0.00000000       5.70202020       0.00000000       0.00000000      -0.24503094
2
Properties=species:S:1:pos:R:3:forces:R:3 energy=-14.094187219025546 pbc="F F F"
Sm       0.00000000       0.00000000       0.00000000       0.00000000       0.00000000       0.29337743
Sm       0.00000000       0.00000000       5.76161616       0.00000000       0.00000000      -0.29337743
2
Properties=species:S:1:pos:R:3:forces:R:3 energy=-14.077229012033651 pbc="F F F"
Sm       0.00000000       0.00000000       0.00000000       0.00000000       0.00000000       0.25849020
Sm       0.00000000       0.00000000       5.82121212       0.00000000       0.00000000      -0.25849020
2
Properties=species:S:1:pos:R:3:forces:R:3 energy=-14.064730900924955 pbc="F F F"
Sm       0.00000000       0.00000000       0.00000000       0.00000000       0.00000000       0.15864070
Sm       0.00000000       0.00000000       5.88080808       0.00000000       0.00000000      -0.15864070
2
Properties=species:S:1:pos:R:3:forces:R:3 energy=-14.057976305295016 pbc="F F F"
Sm       0.00000000       0.00000000       0.00000000       0.00000000       0.00000000       0.07310615
Sm       0.00000000       0.00000000       5.94040404       0.00000000       0.00000000      -0.07310615
2
Properties=species:S:1:pos:R:3:forces:R:3 energy=-14.054912235814218 pbc="F F F"
Sm       0.00000000       0.00000000       0.00000000       0.00000000       0.00000000       0.04060670
Sm       0.00000000       0.00000000       6.00000000       0.00000000       0.00000000      -0.04060670
