2
Properties=species:S:1:pos:R:3:forces:R:3 energy=76329.13864873588 pbc="F F F"
Ta       0.00000000       0.00000000       0.00000000       0.00000000       0.00000000 -1919476.25000000
Ta       0.00000000       0.00000000       0.10000000       0.00000000       0.00000000 1919476.25000000
2
Properties=species:S:1:pos:R:3:forces:R:3 energy=21172.662086235887 pbc="F F F"
Ta       0.00000000       0.00000000       0.00000000       0.00000000       0.00000000 -395940.43750000
Ta       0.00000000       0.00000000       0.15959596       0.00000000       0.00000000  395940.43750000
2
Properties=species:S:1:pos:R:3:forces:R:3 energy=7741.171363579638 pbc="F F F"
Ta       0.00000000       0.00000000       0.00000000       0.00000000       0.00000000 -118947.46875000
Ta       0.00000000       0.00000000       0.21919192       0.00000000       0.00000000  118947.46875000
2
Properties=species:S:1:pos:R:3:forces:R:3 energy=3317.524635064013 pbc="F F F"
Ta       0.00000000       0.00000000       0.00000000       0.00000000       0.00000000  -43699.23437500
Ta       0.00000000       0.00000000       0.27878788       0.00000000       0.00000000   43699.23437500
2
Properties=species:S:1:pos:R:3:forces:R:3 energy=1600.6971204187435 pbc="F F F"
Ta       0.00000000       0.00000000       0.00000000       0.00000000       0.00000000  -18088.17773438
Ta       0.00000000       0.00000000       0.33838384       0.00000000       0.00000000   18088.17773438
2
Properties=species:S:1:pos:R:3:forces:R:3 energy=863.1414563562435 pbc="F F F"
Ta       0.00000000       0.00000000       0.00000000       0.00000000       0.00000000   -8124.13769531
Ta       0.00000000       0.00000000       0.39797980       0.00000000       0.00000000    8124.13769531
2
Properties=species:S:1:pos:R:3:forces:R:3 energy=522.0780408352352 pbc="F F F"
Ta       0.00000000       0.00000000       0.00000000       0.00000000       0.00000000   -3892.64721680
Ta       0.00000000       0.00000000       0.45757576       0.00000000       0.00000000    3892.64721680
2
Properties=species:S:1:pos:R:3:forces:R:3 energy=354.39844489747315 pbc="F F F"
Ta       0.00000000       0.00000000       0.00000000       0.00000000       0.00000000   -1976.12109375
Ta       0.00000000       0.00000000       0.51717172       0.00000000       0.00000000    1976.12109375
2
Properties=species:S:1:pos:R:3:forces:R:3 energy=266.9699781132694 pbc="F F F"
Ta       0.00000000       0.00000000       0.00000000       0.00000000       0.00000000   -1067.32836914
Ta       0.00000000       0.00000000       0.57676768       0.00000000       0.00000000    1067.32836914
2
Properties=species:S:1:pos:R:3:forces:R:3 energy=218.1903760941664 pbc="F F F"
Ta       0.00000000       0.00000000       0.00000000       0.00000000       0.00000000    -620.10614014
Ta       0.00000000       0.00000000       0.63636364       0.00000000       0.00000000     620.10614014
2
Properties=species:S:1:pos:R:3:forces:R:3 energy=188.8104017669459 pbc="F F F"
Ta       0.00000000       0.00000000       0.00000000       0.00000000       0.00000000    -391.26062012
Ta       0.00000000       0.00000000       0.69595960       0.00000000       0.00000000     391.26062012
2
Properties=species:S:1:pos:R:3:forces:R:3 energy=169.28716269772795 pbc="F F F"
Ta       0.00000000       0.00000000       0.00000000       0.00000000       0.00000000    -278.16882324
Ta       0.00000000       0.00000000       0.75555556       0.00000000       0.00000000     278.16882324
2
Properties=species:S:1:pos:R:3:forces:R:3 energy=154.26688386209855 pbc="F F F"
Ta       0.00000000       0.00000000       0.00000000       0.00000000       0.00000000    -236.37768555
Ta       0.00000000       0.00000000       0.81515152       0.00000000       0.00000000     236.37768555
2
Properties=species:S:1:pos:R:3:forces:R:3 energy=139.92588058034616 pbc="F F F"
Ta       0.00000000       0.00000000       0.00000000       0.00000000       0.00000000    -258.79385376
Ta       0.00000000       0.00000000       0.87474747       0.00000000       0.00000000     258.79385376
2
Properties=species:S:1:pos:R:3:forces:R:3 energy=123.36077152382146 pbc="F F F"
Ta       0.00000000       0.00000000       0.00000000       0.00000000       0.00000000    -295.53939819
Ta       0.00000000       0.00000000       0.93434343       0.00000000       0.00000000     295.53939819
2
Properties=species:S:1:pos:R:3:forces:R:3 energy=105.72954621031666 pbc="F F F"
Ta       0.00000000       0.00000000       0.00000000       0.00000000       0.00000000    -292.17446899
Ta       0.00000000       0.00000000       0.99393939       0.00000000       0.00000000     292.17446899
2
Properties=species:S:1:pos:R:3:forces:R:3 energy=88.84220221743246 pbc="F F F"
Ta       0.00000000       0.00000000       0.00000000       0.00000000       0.00000000    -273.48901367
Ta       0.00000000       0.00000000       1.05353535       0.00000000       0.00000000     273.48901367
2
Properties=species:S:1:pos:R:3:forces:R:3 energy=72.95983271332771 pbc="F F F"
Ta       0.00000000       0.00000000       0.00000000       0.00000000       0.00000000    -262.04992676
Ta       0.00000000       0.00000000       1.11313131       0.00000000       0.00000000     262.04992676
2
Properties=species:S:1:pos:R:3:forces:R:3 energy=57.479208206975535 pbc="F F F"
Ta       0.00000000       0.00000000       0.00000000       0.00000000       0.00000000    -256.68344116
Ta       0.00000000       0.00000000       1.17272727       0.00000000       0.00000000     256.68344116
2
Properties=species:S:1:pos:R:3:forces:R:3 energy=42.58569250592107 pbc="F F F"
Ta       0.00000000       0.00000000       0.00000000       0.00000000       0.00000000    -241.17652893
Ta       0.00000000       0.00000000       1.23232323       0.00000000       0.00000000     241.17652893
2
Properties=species:S:1:pos:R:3:forces:R:3 energy=28.839905011929666 pbc="F F F"
Ta       0.00000000       0.00000000       0.00000000       0.00000000       0.00000000    -220.05148315
Ta       0.00000000       0.00000000       1.29191919       0.00000000       0.00000000     220.05148315
2
Properties=species:S:1:pos:R:3:forces:R:3 energy=16.605449367605445 pbc="F F F"
Ta       0.00000000       0.00000000       0.00000000       0.00000000       0.00000000    -185.35046387
Ta       0.00000000       0.00000000       1.35151515       0.00000000       0.00000000     185.35046387
2
Properties=species:S:1:pos:R:3:forces:R:3 energy=7.327462657062803 pbc="F F F"
Ta       0.00000000       0.00000000       0.00000000       0.00000000       0.00000000    -124.35534668
Ta       0.00000000       0.00000000       1.41111111       0.00000000       0.00000000     124.35534668
2
Properties=species:S:1:pos:R:3:forces:R:3 energy=1.5193087913574495 pbc="F F F"
Ta       0.00000000       0.00000000       0.00000000       0.00000000       0.00000000     -74.72438049
Ta       0.00000000       0.00000000       1.47070707       0.00000000       0.00000000      74.72438049
2
Properties=species:S:1:pos:R:3:forces:R:3 energy=-1.9886340915747291 pbc="F F F"
Ta       0.00000000       0.00000000       0.00000000       0.00000000       0.00000000     -45.45907211
Ta       0.00000000       0.00000000       1.53030303       0.00000000       0.00000000      45.45907211
2
Properties=species:S:1:pos:R:3:forces:R:3 energy=-4.166788164612887 pbc="F F F"
Ta       0.00000000       0.00000000       0.00000000       0.00000000       0.00000000     -29.92506599
Ta       0.00000000       0.00000000       1.58989899       0.00000000       0.00000000      29.92506599
2
Properties=species:S:1:pos:R:3:forces:R:3 energy=-5.787868882257908 pbc="F F F"
Ta       0.00000000       0.00000000       0.00000000       0.00000000       0.00000000     -25.72730255
Ta       0.00000000       0.00000000       1.64949495       0.00000000       0.00000000      25.72730255
2
Properties=species:S:1:pos:R:3:forces:R:3 energy=-7.2865122464960255 pbc="F F F"
Ta       0.00000000       0.00000000       0.00000000       0.00000000       0.00000000     -24.42275810
Ta       0.00000000       0.00000000       1.70909091       0.00000000       0.00000000      24.42275810
2
Properties=species:S:1:pos:R:3:forces:R:3 energy=-8.660450757255811 pbc="F F F"
Ta       0.00000000       0.00000000       0.00000000       0.00000000       0.00000000     -21.38163757
Ta       0.00000000       0.00000000       1.76868687       0.00000000       0.00000000      21.38163757
2
Properties=species:S:1:pos:R:3:forces:R:3 energy=-9.814327810767102 pbc="F F F"
Ta       0.00000000       0.00000000       0.00000000       0.00000000       0.00000000     -17.28778076
Ta       0.00000000       0.00000000       1.82828283       0.00000000       0.00000000      17.28778076
2
Properties=species:S:1:pos:R:3:forces:R:3 energy=-10.722602909442404 pbc="F F F"
Ta       0.00000000       0.00000000       0.00000000       0.00000000       0.00000000     -13.24400425
Ta       0.00000000       0.00000000       1.88787879       0.00000000       0.00000000      13.24400425
2
Properties=species:S:1:pos:R:3:forces:R:3 energy=-11.40083415035975 pbc="F F F"
Ta       0.00000000       0.00000000       0.00000000       0.00000000       0.00000000      -9.59576225
Ta       0.00000000       0.00000000       1.94747475       0.00000000       0.00000000       9.59576225
2
Properties=species:S:1:pos:R:3:forces:R:3 energy=-11.876985070454495 pbc="F F F"
Ta       0.00000000       0.00000000       0.00000000       0.00000000       0.00000000      -6.48067188
Ta       0.00000000       0.00000000       2.00707071       0.00000000       0.00000000       6.48067188
2
Properties=species:S:1:pos:R:3:forces:R:3 energy=-12.185035101459306 pbc="F F F"
Ta       0.00000000       0.00000000       0.00000000       0.00000000       0.00000000      -3.95276332
Ta       0.00000000       0.00000000       2.06666667       0.00000000       0.00000000       3.95276332
2
Properties=species:S:1:pos:R:3:forces:R:3 energy=-12.358518486599126 pbc="F F F"
Ta       0.00000000       0.00000000       0.00000000       0.00000000       0.00000000      -1.94652593
Ta       0.00000000       0.00000000       2.12626263       0.00000000       0.00000000       1.94652593
2
Properties=species:S:1:pos:R:3:forces:R:3 energy=-12.42504562438404 pbc="F F F"
Ta       0.00000000       0.00000000       0.00000000       0.00000000       0.00000000      -0.34406710
Ta       0.00000000       0.00000000       2.18585859       0.00000000       0.00000000       0.34406710
2
Properties=species:S:1:pos:R:3:forces:R:3 energy=-12.405562304419915 pbc="F F F"
Ta       0.00000000       0.00000000       0.00000000       0.00000000       0.00000000       0.95323163
Ta       0.00000000       0.00000000       2.24545455       0.00000000       0.00000000      -0.95323163
2
Properties=species:S:1:pos:R:3:forces:R:3 energy=-12.31619351149026 pbc="F F F"
Ta       0.00000000       0.00000000       0.00000000       0.00000000       0.00000000       2.01009917
Ta       0.00000000       0.00000000       2.30505051       0.00000000       0.00000000      -2.01009917
2
Properties=species:S:1:pos:R:3:forces:R:3 energy=-12.169837648903385 pbc="F F F"
Ta       0.00000000       0.00000000       0.00000000       0.00000000       0.00000000       2.87197232
Ta       0.00000000       0.00000000       2.36464646       0.00000000       0.00000000      -2.87197232
2
Properties=species:S:1:pos:R:3:forces:R:3 energy=-11.977244063597196 pbc="F F F"
Ta       0.00000000       0.00000000       0.00000000       0.00000000       0.00000000       3.56319809
Ta       0.00000000       0.00000000       2.42424242       0.00000000       0.00000000      -3.56319809
2
Properties=species:S:1:pos:R:3:forces:R:3 energy=-11.74866878615155 pbc="F F F"
Ta       0.00000000       0.00000000       0.00000000       0.00000000       0.00000000       4.07584620
Ta       0.00000000       0.00000000       2.48383838       0.00000000       0.00000000      -4.07584620
2
Properties=species:S:1:pos:R:3:forces:R:3 energy=-11.495478426935081 pbc="F F F"
Ta       0.00000000       0.00000000       0.00000000       0.00000000       0.00000000       4.38595486
Ta       0.00000000       0.00000000       2.54343434       0.00000000       0.00000000      -4.38595486
2
Properties=species:S:1:pos:R:3:forces:R:3 energy=-11.229948152053698 pbc="F F F"
Ta       0.00000000       0.00000000       0.00000000       0.00000000       0.00000000       4.49373102
Ta       0.00000000       0.00000000       2.60303030       0.00000000       0.00000000      -4.49373102
2
Properties=species:S:1:pos:R:3:forces:R:3 energy=-10.963074156729816 pbc="F F F"
Ta       0.00000000       0.00000000       0.00000000       0.00000000       0.00000000       4.44043446
Ta       0.00000000       0.00000000       2.66262626       0.00000000       0.00000000      -4.44043446
2
Properties=species:S:1:pos:R:3:forces:R:3 energy=-10.702723365426735 pbc="F F F"
Ta       0.00000000       0.00000000       0.00000000       0.00000000       0.00000000       4.28398609
Ta       0.00000000       0.00000000       2.72222222       0.00000000       0.00000000      -4.28398609
2
Properties=species:S:1:pos:R:3:forces:R:3 energy=-10.453574879945256 pbc="F F F"
Ta       0.00000000       0.00000000       0.00000000       0.00000000       0.00000000       4.07086325
Ta       0.00000000       0.00000000       2.78181818       0.00000000       0.00000000      -4.07086325
2
Properties=species:S:1:pos:R:3:forces:R:3 energy=-10.21797940106214 pbc="F F F"
Ta       0.00000000       0.00000000       0.00000000       0.00000000       0.00000000       3.83396506
Ta       0.00000000       0.00000000       2.84141414       0.00000000       0.00000000      -3.83396506
2
Properties=species:S:1:pos:R:3:forces:R:3 energy=-9.99650421436363 pbc="F F F"
Ta       0.00000000       0.00000000       0.00000000       0.00000000       0.00000000       3.60156703
Ta       0.00000000       0.00000000       2.90101010       0.00000000       0.00000000      -3.60156703
2
Properties=species:S:1:pos:R:3:forces:R:3 energy=-9.788157000427313 pbc="F F F"
Ta       0.00000000       0.00000000       0.00000000       0.00000000       0.00000000       3.39605403
Ta       0.00000000       0.00000000       2.96060606       0.00000000       0.00000000      -3.39605403
2
Properties=species:S:1:pos:R:3:forces:R:3 energy=-9.591029281727568 pbc="F F F"
Ta       0.00000000       0.00000000       0.00000000       0.00000000       0.00000000       3.22469831
Ta       0.00000000       0.00000000       3.02020202       0.00000000       0.00000000      -3.22469831
2
Properties=species:S:1:pos:R:3:forces:R:3 energy=-9.40330764735921 pbc="F F F"
Ta       0.00000000       0.00000000       0.00000000       0.00000000       0.00000000       3.07790041
Ta       0.00000000       0.00000000       3.07979798       0.00000000       0.00000000      -3.07790041
2
Properties=species:S:1:pos:R:3:forces:R:3 energy=-9.223996481624102 pbc="F F F"
Ta       0.00000000       0.00000000       0.00000000       0.00000000       0.00000000       2.93997669
Ta       0.00000000       0.00000000       3.13939394       0.00000000       0.00000000      -2.93997669
2
Properties=species:S:1:pos:R:3:forces:R:3 energy=-9.052921369816778 pbc="F F F"
Ta       0.00000000       0.00000000       0.00000000       0.00000000       0.00000000       2.80038023
Ta       0.00000000       0.00000000       3.19898990       0.00000000       0.00000000      -2.80038023
2
Properties=species:S:1:pos:R:3:forces:R:3 energy=-8.890333803407849 pbc="F F F"
Ta       0.00000000       0.00000000       0.00000000       0.00000000       0.00000000       2.65477777
Ta       0.00000000       0.00000000       3.25858586       0.00000000       0.00000000      -2.65477777
2
Properties=species:S:1:pos:R:3:forces:R:3 energy=-8.736696594443544 pbc="F F F"
Ta       0.00000000       0.00000000       0.00000000       0.00000000       0.00000000       2.49886203
Ta       0.00000000       0.00000000       3.31818182       0.00000000       0.00000000      -2.49886203
2
Properties=species:S:1:pos:R:3:forces:R:3 energy=-8.592847846570661 pbc="F F F"
Ta       0.00000000       0.00000000       0.00000000       0.00000000       0.00000000       2.32501769
Ta       0.00000000       0.00000000       3.37777778       0.00000000       0.00000000      -2.32501769
2
Properties=species:S:1:pos:R:3:forces:R:3 energy=-8.460010340205052 pbc="F F F"
Ta       0.00000000       0.00000000       0.00000000       0.00000000       0.00000000       2.12975645
Ta       0.00000000       0.00000000       3.43737374       0.00000000       0.00000000      -2.12975645
2
Properties=species:S:1:pos:R:3:forces:R:3 energy=-8.339207748491228 pbc="F F F"
Ta       0.00000000       0.00000000       0.00000000       0.00000000       0.00000000       1.92438126
Ta       0.00000000       0.00000000       3.49696970       0.00000000       0.00000000      -1.92438126
2
Properties=species:S:1:pos:R:3:forces:R:3 energy=-8.230345361887103 pbc="F F F"
Ta       0.00000000       0.00000000       0.00000000       0.00000000       0.00000000       1.73369658
Ta       0.00000000       0.00000000       3.55656566       0.00000000       0.00000000      -1.73369658
2
Properties=species:S:1:pos:R:3:forces:R:3 energy=-8.131788003513128 pbc="F F F"
Ta       0.00000000       0.00000000       0.00000000       0.00000000       0.00000000       1.58160770
Ta       0.00000000       0.00000000       3.61616162       0.00000000       0.00000000      -1.58160770
2
Properties=species:S:1:pos:R:3:forces:R:3 energy=-8.040887975052279 pbc="F F F"
Ta       0.00000000       0.00000000       0.00000000       0.00000000       0.00000000       1.47633648
Ta       0.00000000       0.00000000       3.67575758       0.00000000       0.00000000      -1.47633648
2
Properties=species:S:1:pos:R:3:forces:R:3 energy=-7.955111256139911 pbc="F F F"
Ta       0.00000000       0.00000000       0.00000000       0.00000000       0.00000000       1.40635049
Ta       0.00000000       0.00000000       3.73535354       0.00000000       0.00000000      -1.40635049
2
Properties=species:S:1:pos:R:3:forces:R:3 energy=-7.87303463223447 pbc="F F F"
Ta       0.00000000       0.00000000       0.00000000       0.00000000       0.00000000       1.34782171
Ta       0.00000000       0.00000000       3.79494949       0.00000000       0.00000000      -1.34782171
2
Properties=species:S:1:pos:R:3:forces:R:3 energy=-7.794716581899883 pbc="F F F"
Ta       0.00000000       0.00000000       0.00000000       0.00000000       0.00000000       1.27680850
Ta       0.00000000       0.00000000       3.85454545       0.00000000       0.00000000      -1.27680850
2
Properties=species:S:1:pos:R:3:forces:R:3 energy=-7.721393860989285 pbc="F F F"
Ta       0.00000000       0.00000000       0.00000000       0.00000000       0.00000000       1.17887485
Ta       0.00000000       0.00000000       3.91414141       0.00000000       0.00000000      -1.17887485
2
Properties=species:S:1:pos:R:3:forces:R:3 energy=-7.654772458462061 pbc="F F F"
Ta       0.00000000       0.00000000       0.00000000       0.00000000       0.00000000       1.05270779
Ta       0.00000000       0.00000000       3.97373737       0.00000000       0.00000000      -1.05270779
2
Properties=species:S:1:pos:R:3:forces:R:3 energy=-7.5962858468419405 pbc="F F F"
Ta       0.00000000       0.00000000       0.00000000       0.00000000       0.00000000       0.90828681
Ta       0.00000000       0.00000000       4.03333333       0.00000000       0.00000000      -0.90828681
2
Properties=species:S:1:pos:R:3:forces:R:3 energy=-7.546554141173647 pbc="F F F"
Ta       0.00000000       0.00000000       0.00000000       0.00000000       0.00000000       0.76176059
Ta       0.00000000       0.00000000       4.09292929       0.00000000       0.00000000      -0.76176059
2
Properties=species:S:1:pos:R:3:forces:R:3 energy=-7.505202130962147 pbc="F F F"
Ta       0.00000000       0.00000000       0.00000000       0.00000000       0.00000000       0.62954742
Ta       0.00000000       0.00000000       4.15252525       0.00000000       0.00000000      -0.62954742
2
Properties=species:S:1:pos:R:3:forces:R:3 energy=-7.470990836543154 pbc="F F F"
Ta       0.00000000       0.00000000       0.00000000       0.00000000       0.00000000       0.52361989
Ta       0.00000000       0.00000000       4.21212121       0.00000000       0.00000000      -0.52361989
2
Properties=species:S:1:pos:R:3:forces:R:3 energy=-7.442163260372347 pbc="F F F"
Ta       0.00000000       0.00000000       0.00000000       0.00000000       0.00000000       0.44906202
Ta       0.00000000       0.00000000       4.27171717       0.00000000       0.00000000      -0.44906202
2
Properties=species:S:1:pos:R:3:forces:R:3 energy=-7.416875511172818 pbc="F F F"
Ta       0.00000000       0.00000000       0.00000000       0.00000000       0.00000000       0.40403605
Ta       0.00000000       0.00000000       4.33131313       0.00000000       0.00000000      -0.40403605
2
Properties=species:S:1:pos:R:3:forces:R:3 energy=-7.393557801342062 pbc="F F F"
Ta       0.00000000       0.00000000       0.00000000       0.00000000       0.00000000       0.38145226
Ta       0.00000000       0.00000000       4.39090909       0.00000000       0.00000000      -0.38145226
2
Properties=species:S:1:pos:R:3:forces:R:3 energy=-7.371157659245234 pbc="F F F"
Ta       0.00000000       0.00000000       0.00000000       0.00000000       0.00000000       0.37153694
Ta       0.00000000       0.00000000       4.45050505       0.00000000       0.00000000      -0.37153694
2
Properties=species:S:1:pos:R:3:forces:R:3 energy=-7.349219542013632 pbc="F F F"
Ta       0.00000000       0.00000000       0.00000000       0.00000000       0.00000000       0.36442924
Ta       0.00000000       0.00000000       4.51010101       0.00000000       0.00000000      -0.36442924
2
Properties=species:S:1:pos:R:3:forces:R:3 energy=-7.327822420562134 pbc="F F F"
Ta       0.00000000       0.00000000       0.00000000       0.00000000       0.00000000       0.35229722
Ta       0.00000000       0.00000000       4.56969697       0.00000000       0.00000000      -0.35229722
2
Properties=species:S:1:pos:R:3:forces:R:3 energy=-7.307418621301011 pbc="F F F"
Ta       0.00000000       0.00000000       0.00000000       0.00000000       0.00000000       0.33070534
Ta       0.00000000       0.00000000       4.62929293       0.00000000       0.00000000      -0.33070534
2
Properties=species:S:1:pos:R:3:forces:R:3 energy=-7.288607274632802 pbc="F F F"
Ta       0.00000000       0.00000000       0.00000000       0.00000000       0.00000000       0.29909405
Ta       0.00000000       0.00000000       4.68888889       0.00000000       0.00000000      -0.29909405
2
Properties=species:S:1:pos:R:3:forces:R:3 energy=-7.271912680708416 pbc="F F F"
Ta       0.00000000       0.00000000       0.00000000       0.00000000       0.00000000       0.26032403
Ta       0.00000000       0.00000000       4.74848485       0.00000000       0.00000000      -0.26032403
2
Properties=species:S:1:pos:R:3:forces:R:3 energy=-7.25762148937646 pbc="F F F"
Ta       0.00000000       0.00000000       0.00000000       0.00000000       0.00000000       0.21939506
Ta       0.00000000       0.00000000       4.80808081       0.00000000       0.00000000      -0.21939506
2
Properties=species:S:1:pos:R:3:forces:R:3 energy=-7.245698916227559 pbc="F F F"
Ta       0.00000000       0.00000000       0.00000000       0.00000000       0.00000000       0.18162237
Ta       0.00000000       0.00000000       4.86767677       0.00000000       0.00000000      -0.18162237
2
Properties=species:S:1:pos:R:3:forces:R:3 energy=-7.235832516578259 pbc="F F F"
Ta       0.00000000       0.00000000       0.00000000       0.00000000       0.00000000       0.15083767
Ta       0.00000000       0.00000000       4.92727273       0.00000000       0.00000000      -0.15083767
2
Properties=species:S:1:pos:R:3:forces:R:3 energy=-7.22755652275989 pbc="F F F"
Ta       0.00000000       0.00000000       0.00000000       0.00000000       0.00000000       0.12820812
Ta       0.00000000       0.00000000       4.98686869       0.00000000       0.00000000      -0.12820812
2
Properties=species:S:1:pos:R:3:forces:R:3 energy=-7.220418778305631 pbc="F F F"
Ta       0.00000000       0.00000000       0.00000000       0.00000000       0.00000000       0.11223574
Ta       0.00000000       0.00000000       5.04646465       0.00000000       0.00000000      -0.11223574
2
Properties=species:S:1:pos:R:3:forces:R:3 energy=-7.214104999211642 pbc="F F F"
Ta       0.00000000       0.00000000       0.00000000       0.00000000       0.00000000       0.10003639
Ta       0.00000000       0.00000000       5.10606061       0.00000000       0.00000000      -0.10003639
2
Properties=species:S:1:pos:R:3:forces:R:3 energy=-7.208465044330285 pbc="F F F"
Ta       0.00000000       0.00000000       0.00000000       0.00000000       0.00000000       0.08937750
Ta       0.00000000       0.00000000       5.16565657       0.00000000       0.00000000      -0.08937750
2
Properties=species:S:1:pos:R:3:forces:R:3 energy=-7.203424589622071 pbc="F F F"
Ta       0.00000000       0.00000000       0.00000000       0.00000000       0.00000000       0.08013962
Ta       0.00000000       0.00000000       5.22525253       0.00000000       0.00000000      -0.08013962
2
Properties=species:S:1:pos:R:3:forces:R:3 energy=-7.198853877559923 pbc="F F F"
Ta       0.00000000       0.00000000       0.00000000       0.00000000       0.00000000       0.07387028
Ta       0.00000000       0.00000000       5.28484848       0.00000000       0.00000000      -0.07387028
2
Properties=species:S:1:pos:R:3:forces:R:3 energy=-7.19454437428317 pbc="F F F"
Ta       0.00000000       0.00000000       0.00000000       0.00000000       0.00000000       0.07125475
Ta       0.00000000       0.00000000       5.34444444       0.00000000       0.00000000      -0.07125475
2
Properties=species:S:1:pos:R:3:forces:R:3 energy=-7.190345015144093 pbc="F F F"
Ta       0.00000000       0.00000000       0.00000000       0.00000000       0.00000000       0.06936292
Ta       0.00000000       0.00000000       5.40404040       0.00000000       0.00000000      -0.06936292
2
Properties=species:S:1:pos:R:3:forces:R:3 energy=-7.1863357449231025 pbc="F F F"
Ta       0.00000000       0.00000000       0.00000000       0.00000000       0.00000000       0.06486019
Ta       0.00000000       0.00000000       5.46363636       0.00000000       0.00000000      -0.06486019
2
Properties=species:S:1:pos:R:3:forces:R:3 energy=-7.18258143500907 pbc="F F F"
Ta       0.00000000       0.00000000       0.00000000       0.00000000       0.00000000       0.06181555
Ta       0.00000000       0.00000000       5.52323232       0.00000000       0.00000000      -0.06181555
2
Properties=species:S:1:pos:R:3:forces:R:3 energy=-7.178932536956799 pbc="F F F"
Ta       0.00000000       0.00000000       0.00000000       0.00000000       0.00000000       0.06040702
Ta       0.00000000       0.00000000       5.58282828       0.00000000       0.00000000      -0.06040702
2
Properties=species:S:1:pos:R:3:forces:R:3 energy=-7.175423632820077 pbc="F F F"
Ta       0.00000000       0.00000000       0.00000000       0.00000000       0.00000000       0.05733921
Ta       0.00000000       0.00000000       5.64242424       0.00000000       0.00000000      -0.05733921
2
Properties=species:S:1:pos:R:3:forces:R:3 energy=-7.171990257236156 pbc="F F F"
Ta       0.00000000       0.00000000       0.00000000       0.00000000       0.00000000       0.05979065
Ta       0.00000000       0.00000000       5.70202020       0.00000000       0.00000000      -0.05979065
2
Properties=species:S:1:pos:R:3:forces:R:3 energy=-7.16798724437863 pbc="F F F"
Ta       0.00000000       0.00000000       0.00000000       0.00000000       0.00000000       0.07698749
Ta       0.00000000       0.00000000       5.76161616       0.00000000       0.00000000      -0.07698749
2
Properties=species:S:1:pos:R:3:forces:R:3 energy=-7.162834351214442 pbc="F F F"
Ta       0.00000000       0.00000000       0.00000000       0.00000000       0.00000000       0.09209423
Ta       0.00000000       0.00000000       5.82121212       0.00000000       0.00000000      -0.09209423
2
Properties=species:S:1:pos:R:3:forces:R:3 energy=-7.1577534227885495 pbc="F F F"
Ta       0.00000000       0.00000000       0.00000000       0.00000000       0.00000000       0.07273794
Ta       0.00000000       0.00000000       5.88080808       0.00000000       0.00000000      -0.07273794
2
Properties=species:S:1:pos:R:3:forces:R:3 energy=-7.154534313899835 pbc="F F F"
Ta       0.00000000       0.00000000       0.00000000       0.00000000       0.00000000       0.03498441
Ta       0.00000000       0.00000000       5.94040404       0.00000000       0.00000000      -0.03498441
2
Properties=species:S:1:pos:R:3:forces:R:3 energy=-7.153148852982247 pbc="F F F"
Ta       0.00000000       0.00000000       0.00000000       0.00000000       0.00000000       0.01725321
Ta       0.00000000       0.00000000       6.00000000       0.00000000       0.00000000      -0.01725321
