2
Properties=species:S:1:pos:R:3:forces:R:3 energy=1251.8218005250408 pbc="F F F"
Al       0.00000000       0.00000000       0.00000000       0.00000000       0.00000000  -16209.39843750
Al       0.00000000       0.00000000       0.18000000       0.00000000       0.00000000   16209.39843750
2
Properties=species:S:1:pos:R:3:forces:R:3 energy=712.5725939820719 pbc="F F F"
Al       0.00000000       0.00000000       0.00000000       0.00000000       0.00000000   -4002.84277344
Al       0.00000000       0.00000000       0.23878788       0.00000000       0.00000000    4002.84277344
2
Properties=species:S:1:pos:R:3:forces:R:3 energy=659.6870959351969 pbc="F F F"
Al       0.00000000       0.00000000       0.00000000       0.00000000       0.00000000    1555.61743164
Al       0.00000000       0.00000000       0.29757576       0.00000000       0.00000000   -1555.61743164
2
Properties=species:S:1:pos:R:3:forces:R:3 energy=797.5735095109995 pbc="F F F"
Al       0.00000000       0.00000000       0.00000000       0.00000000       0.00000000   -1536.26489258
Al       0.00000000       0.00000000       0.35636364       0.00000000       0.00000000    1536.26489258
2
Properties=species:S:1:pos:R:3:forces:R:3 energy=658.1798937883433 pbc="F F F"
Al       0.00000000       0.00000000       0.00000000       0.00000000       0.00000000   -3691.06420898
Al       0.00000000       0.00000000       0.41515152       0.00000000       0.00000000    3691.06420898
2
Properties=species:S:1:pos:R:3:forces:R:3 energy=298.69878417237055 pbc="F F F"
Al       0.00000000       0.00000000       0.00000000       0.00000000       0.00000000   -7194.97167969
Al       0.00000000       0.00000000       0.47393939       0.00000000       0.00000000    7194.97167969
2
Properties=species:S:1:pos:R:3:forces:R:3 energy=425.8491137637982 pbc="F F F"
Al       0.00000000       0.00000000       0.00000000       0.00000000       0.00000000   18514.49023438
Al       0.00000000       0.00000000       0.53272727       0.00000000       0.00000000  -18514.49023438
2
Properties=species:S:1:pos:R:3:forces:R:3 energy=547.399193115837 pbc="F F F"
Al       0.00000000       0.00000000       0.00000000       0.00000000       0.00000000   -8278.58984375
Al       0.00000000       0.00000000       0.59151515       0.00000000       0.00000000    8278.58984375
2
Properties=species:S:1:pos:R:3:forces:R:3 energy=57.77670700925458 pbc="F F F"
Al       0.00000000       0.00000000       0.00000000       0.00000000       0.00000000     458.61639404
Al       0.00000000       0.00000000       0.65030303       0.00000000       0.00000000    -458.61639404
2
Properties=species:S:1:pos:R:3:forces:R:3 energy=75.28227266682032 pbc="F F F"
Al       0.00000000       0.00000000       0.00000000       0.00000000       0.00000000     552.71337891
Al       0.00000000       0.00000000       0.70909091       0.00000000       0.00000000    -552.71337891
2
Properties=species:S:1:pos:R:3:forces:R:3 energy=98.48899876321383 pbc="F F F"
Al       0.00000000       0.00000000       0.00000000       0.00000000       0.00000000    -128.53254700
Al       0.00000000       0.00000000       0.76787879       0.00000000       0.00000000     128.53254700
2
Properties=species:S:1:pos:R:3:forces:R:3 energy=66.80889930758737 pbc="F F F"
Al       0.00000000       0.00000000       0.00000000       0.00000000       0.00000000    -677.11633301
Al       0.00000000       0.00000000       0.82666667       0.00000000       0.00000000     677.11633301
2
Properties=species:S:1:pos:R:3:forces:R:3 energy=37.269463013188755 pbc="F F F"
Al       0.00000000       0.00000000       0.00000000       0.00000000       0.00000000    -280.08483887
Al       0.00000000       0.00000000       0.88545455       0.00000000       0.00000000     280.08483887
2
Properties=species:S:1:pos:R:3:forces:R:3 energy=25.18345309888106 pbc="F F F"
Al       0.00000000       0.00000000       0.00000000       0.00000000       0.00000000    -184.06649780
Al       0.00000000       0.00000000       0.94424242       0.00000000       0.00000000     184.06649780
2
Properties=species:S:1:pos:R:3:forces:R:3 energy=15.902682884177322 pbc="F F F"
Al       0.00000000       0.00000000       0.00000000       0.00000000       0.00000000    -128.98594666
Al       0.00000000       0.00000000       1.00303030       0.00000000       0.00000000     128.98594666
2
Properties=species:S:1:pos:R:3:forces:R:3 energy=10.20463154716611 pbc="F F F"
Al       0.00000000       0.00000000       0.00000000       0.00000000       0.00000000     -71.63301086
Al       0.00000000       0.00000000       1.06181818       0.00000000       0.00000000      71.63301086
2
Properties=species:S:1:pos:R:3:forces:R:3 energy=7.279928105950847 pbc="F F F"
Al       0.00000000       0.00000000       0.00000000       0.00000000       0.00000000     -17.76868629
Al       0.00000000       0.00000000       1.12060606       0.00000000       0.00000000      17.76868629
2
Properties=species:S:1:pos:R:3:forces:R:3 energy=7.5513707220215425 pbc="F F F"
Al       0.00000000       0.00000000       0.00000000       0.00000000       0.00000000       9.80885506
Al       0.00000000       0.00000000       1.17939394       0.00000000       0.00000000      -9.80885506
2
Properties=species:S:1:pos:R:3:forces:R:3 energy=7.398239496797607 pbc="F F F"
Al       0.00000000       0.00000000       0.00000000       0.00000000       0.00000000     -15.97341824
Al       0.00000000       0.00000000       1.23818182       0.00000000       0.00000000      15.97341824
2
Properties=species:S:1:pos:R:3:forces:R:3 energy=5.905051925061023 pbc="F F F"
Al       0.00000000       0.00000000       0.00000000       0.00000000       0.00000000     -31.61164093
Al       0.00000000       0.00000000       1.29696970       0.00000000       0.00000000      31.61164093
2
Properties=species:S:1:pos:R:3:forces:R:3 energy=3.982139745557296 pbc="F F F"
Al       0.00000000       0.00000000       0.00000000       0.00000000       0.00000000     -32.32392502
Al       0.00000000       0.00000000       1.35575758       0.00000000       0.00000000      32.32392502
2
Properties=species:S:1:pos:R:3:forces:R:3 energy=2.2035710467513683 pbc="F F F"
Al       0.00000000       0.00000000       0.00000000       0.00000000       0.00000000     -27.72562790
Al       0.00000000       0.00000000       1.41454545       0.00000000       0.00000000      27.72562790
2
Properties=species:S:1:pos:R:3:forces:R:3 energy=0.732792749295021 pbc="F F F"
Al       0.00000000       0.00000000       0.00000000       0.00000000       0.00000000     -22.54803658
Al       0.00000000       0.00000000       1.47333333       0.00000000       0.00000000      22.54803658
2
Properties=species:S:1:pos:R:3:forces:R:3 energy=-0.4908659757142124 pbc="F F F"
Al       0.00000000       0.00000000       0.00000000       0.00000000       0.00000000     -19.46082878
Al       0.00000000       0.00000000       1.53212121       0.00000000       0.00000000      19.46082878
2
Properties=species:S:1:pos:R:3:forces:R:3 energy=-1.589496871521963 pbc="F F F"
Al       0.00000000       0.00000000       0.00000000       0.00000000       0.00000000     -18.09583092
Al       0.00000000       0.00000000       1.59090909       0.00000000       0.00000000      18.09583092
2
Properties=species:S:1:pos:R:3:forces:R:3 energy=-2.6278269902365077 pbc="F F F"
Al       0.00000000       0.00000000       0.00000000       0.00000000       0.00000000     -17.22917557
Al       0.00000000       0.00000000       1.64969697       0.00000000       0.00000000      17.22917557
2
Properties=species:S:1:pos:R:3:forces:R:3 energy=-3.6104663333147338 pbc="F F F"
Al       0.00000000       0.00000000       0.00000000       0.00000000       0.00000000     -16.14060974
Al       0.00000000       0.00000000       1.70848485       0.00000000       0.00000000      16.14060974
2
Properties=species:S:1:pos:R:3:forces:R:3 energy=-4.51850687375459 pbc="F F F"
Al       0.00000000       0.00000000       0.00000000       0.00000000       0.00000000     -14.69688511
Al       0.00000000       0.00000000       1.76727273       0.00000000       0.00000000      14.69688511
2
Properties=species:S:1:pos:R:3:forces:R:3 energy=-5.332816436243627 pbc="F F F"
Al       0.00000000       0.00000000       0.00000000       0.00000000       0.00000000     -12.96471691
Al       0.00000000       0.00000000       1.82606061       0.00000000       0.00000000      12.96471691
2
Properties=species:S:1:pos:R:3:forces:R:3 energy=-6.038712459330722 pbc="F F F"
Al       0.00000000       0.00000000       0.00000000       0.00000000       0.00000000     -11.02304745
Al       0.00000000       0.00000000       1.88484848       0.00000000       0.00000000      11.02304745
2
Properties=species:S:1:pos:R:3:forces:R:3 energy=-6.626914733491195 pbc="F F F"
Al       0.00000000       0.00000000       0.00000000       0.00000000       0.00000000      -8.98398113
Al       0.00000000       0.00000000       1.94363636       0.00000000       0.00000000       8.98398113
2
Properties=species:S:1:pos:R:3:forces:R:3 energy=-7.096238809479266 pbc="F F F"
Al       0.00000000       0.00000000       0.00000000       0.00000000       0.00000000      -7.00730896
Al       0.00000000       0.00000000       2.00242424       0.00000000       0.00000000       7.00730896
2
Properties=species:S:1:pos:R:3:forces:R:3 energy=-7.45512859730404 pbc="F F F"
Al       0.00000000       0.00000000       0.00000000       0.00000000       0.00000000      -5.24894857
Al       0.00000000       0.00000000       2.06121212       0.00000000       0.00000000       5.24894857
2
Properties=species:S:1:pos:R:3:forces:R:3 energy=-7.719462893127012 pbc="F F F"
Al       0.00000000       0.00000000       0.00000000       0.00000000       0.00000000      -3.79758024
Al       0.00000000       0.00000000       2.12000000       0.00000000       0.00000000       3.79758024
2
Properties=species:S:1:pos:R:3:forces:R:3 energy=-7.907747577499635 pbc="F F F"
Al       0.00000000       0.00000000       0.00000000       0.00000000       0.00000000      -2.65641427
Al       0.00000000       0.00000000       2.17878788       0.00000000       0.00000000       2.65641427
2
Properties=species:S:1:pos:R:3:forces:R:3 energy=-8.036908864502902 pbc="F F F"
Al       0.00000000       0.00000000       0.00000000       0.00000000       0.00000000      -1.77634513
Al       0.00000000       0.00000000       2.23757576       0.00000000       0.00000000       1.77634513
2
Properties=species:S:1:pos:R:3:forces:R:3 energy=-8.120645106942444 pbc="F F F"
Al       0.00000000       0.00000000       0.00000000       0.00000000       0.00000000      -1.10332942
Al       0.00000000       0.00000000       2.29636364       0.00000000       0.00000000       1.10332942
2
Properties=species:S:1:pos:R:3:forces:R:3 energy=-8.169972185599848 pbc="F F F"
Al       0.00000000       0.00000000       0.00000000       0.00000000       0.00000000      -0.60093051
Al       0.00000000       0.00000000       2.35515152       0.00000000       0.00000000       0.60093051
2
Properties=species:S:1:pos:R:3:forces:R:3 energy=-8.194106754201627 pbc="F F F"
Al       0.00000000       0.00000000       0.00000000       0.00000000       0.00000000      -0.24146110
Al       0.00000000       0.00000000       2.41393939       0.00000000       0.00000000       0.24146110
2
Properties=species:S:1:pos:R:3:forces:R:3 energy=-8.200492893198843 pbc="F F F"
Al       0.00000000       0.00000000       0.00000000       0.00000000       0.00000000       0.00959685
Al       0.00000000       0.00000000       2.47272727       0.00000000       0.00000000      -0.00959685
2
Properties=species:S:1:pos:R:3:forces:R:3 energy=-8.1942630921251 pbc="F F F"
Al       0.00000000       0.00000000       0.00000000       0.00000000       0.00000000       0.19503485
Al       0.00000000       0.00000000       2.53151515       0.00000000       0.00000000      -0.19503485
2
Properties=species:S:1:pos:R:3:forces:R:3 energy=-8.178025678426469 pbc="F F F"
Al       0.00000000       0.00000000       0.00000000       0.00000000       0.00000000       0.35636085
Al       0.00000000       0.00000000       2.59030303       0.00000000       0.00000000      -0.35636085
2
Properties=species:S:1:pos:R:3:forces:R:3 energy=-8.152234296487084 pbc="F F F"
Al       0.00000000       0.00000000       0.00000000       0.00000000       0.00000000       0.52366531
Al       0.00000000       0.00000000       2.64909091       0.00000000       0.00000000      -0.52366531
2
Properties=species:S:1:pos:R:3:forces:R:3 energy=-8.116111859330928 pbc="F F F"
Al       0.00000000       0.00000000       0.00000000       0.00000000       0.00000000       0.70769948
Al       0.00000000       0.00000000       2.70787879       0.00000000       0.00000000      -0.70769948
2
Properties=species:S:1:pos:R:3:forces:R:3 energy=-8.068911205642339 pbc="F F F"
Al       0.00000000       0.00000000       0.00000000       0.00000000       0.00000000       0.89702672
Al       0.00000000       0.00000000       2.76666667       0.00000000       0.00000000      -0.89702672
2
Properties=species:S:1:pos:R:3:forces:R:3 energy=-8.011056917972272 pbc="F F F"
Al       0.00000000       0.00000000       0.00000000       0.00000000       0.00000000       1.06521869
Al       0.00000000       0.00000000       2.82545455       0.00000000       0.00000000      -1.06521869
2
Properties=species:S:1:pos:R:3:forces:R:3 energy=-7.944614238822579 pbc="F F F"
Al       0.00000000       0.00000000       0.00000000       0.00000000       0.00000000       1.18548751
Al       0.00000000       0.00000000       2.88424242       0.00000000       0.00000000      -1.18548751
2
Properties=species:S:1:pos:R:3:forces:R:3 energy=-7.872922805325215 pbc="F F F"
Al       0.00000000       0.00000000       0.00000000       0.00000000       0.00000000       1.24244130
Al       0.00000000       0.00000000       2.94303030       0.00000000       0.00000000      -1.24244130
2
Properties=species:S:1:pos:R:3:forces:R:3 energy=-7.799804288815367 pbc="F F F"
Al       0.00000000       0.00000000       0.00000000       0.00000000       0.00000000       1.23493075
Al       0.00000000       0.00000000       3.00181818       0.00000000       0.00000000      -1.23493075
2
Properties=species:S:1:pos:R:3:forces:R:3 energy=-7.728809613922972 pbc="F F F"
Al       0.00000000       0.00000000       0.00000000       0.00000000       0.00000000       1.17226899
Al       0.00000000       0.00000000       3.06060606       0.00000000       0.00000000      -1.17226899
2
Properties=species:S:1:pos:R:3:forces:R:3 energy=-7.662761677521162 pbc="F F F"
Al       0.00000000       0.00000000       0.00000000       0.00000000       0.00000000       1.06952822
Al       0.00000000       0.00000000       3.11939394       0.00000000       0.00000000      -1.06952822
2
Properties=species:S:1:pos:R:3:forces:R:3 energy=-7.6034824564019505 pbc="F F F"
Al       0.00000000       0.00000000       0.00000000       0.00000000       0.00000000       0.94520533
Al       0.00000000       0.00000000       3.17818182       0.00000000       0.00000000      -0.94520533
2
Properties=species:S:1:pos:R:3:forces:R:3 energy=-7.5516660478952025 pbc="F F F"
Al       0.00000000       0.00000000       0.00000000       0.00000000       0.00000000       0.81886113
Al       0.00000000       0.00000000       3.23696970       0.00000000       0.00000000      -0.81886113
2
Properties=species:S:1:pos:R:3:forces:R:3 energy=-7.5069096638627215 pbc="F F F"
Al       0.00000000       0.00000000       0.00000000       0.00000000       0.00000000       0.70739967
Al       0.00000000       0.00000000       3.29575758       0.00000000       0.00000000      -0.70739967
2
Properties=species:S:1:pos:R:3:forces:R:3 energy=-7.467978529335478 pbc="F F F"
Al       0.00000000       0.00000000       0.00000000       0.00000000       0.00000000       0.62196690
Al       0.00000000       0.00000000       3.35454545       0.00000000       0.00000000      -0.62196690
2
Properties=species:S:1:pos:R:3:forces:R:3 energy=-7.433180254414943 pbc="F F F"
Al       0.00000000       0.00000000       0.00000000       0.00000000       0.00000000       0.56700891
Al       0.00000000       0.00000000       3.41333333       0.00000000       0.00000000      -0.56700891
2
Properties=species:S:1:pos:R:3:forces:R:3 energy=-7.400736465993687 pbc="F F F"
Al       0.00000000       0.00000000       0.00000000       0.00000000       0.00000000       0.54128414
Al       0.00000000       0.00000000       3.47212121       0.00000000       0.00000000      -0.54128414
2
Properties=species:S:1:pos:R:3:forces:R:3 energy=-7.3690632192829995 pbc="F F F"
Al       0.00000000       0.00000000       0.00000000       0.00000000       0.00000000       0.53975564
Al       0.00000000       0.00000000       3.53090909       0.00000000       0.00000000      -0.53975564
2
Properties=species:S:1:pos:R:3:forces:R:3 energy=-7.336933895235432 pbc="F F F"
Al       0.00000000       0.00000000       0.00000000       0.00000000       0.00000000       0.55558819
Al       0.00000000       0.00000000       3.58969697       0.00000000       0.00000000      -0.55558819
2
Properties=species:S:1:pos:R:3:forces:R:3 energy=-7.303536671101881 pbc="F F F"
Al       0.00000000       0.00000000       0.00000000       0.00000000       0.00000000       0.58179533
Al       0.00000000       0.00000000       3.64848485       0.00000000       0.00000000      -0.58179533
2
Properties=species:S:1:pos:R:3:forces:R:3 energy=-7.268444493865898 pbc="F F F"
Al       0.00000000       0.00000000       0.00000000       0.00000000       0.00000000       0.61237442
Al       0.00000000       0.00000000       3.70727273       0.00000000       0.00000000      -0.61237442
2
Properties=species:S:1:pos:R:3:forces:R:3 energy=-7.231538816312761 pbc="F F F"
Al       0.00000000       0.00000000       0.00000000       0.00000000       0.00000000       0.64286232
Al       0.00000000       0.00000000       3.76606061       0.00000000       0.00000000      -0.64286232
2
Properties=species:S:1:pos:R:3:forces:R:3 energy=-7.192918171007985 pbc="F F F"
Al       0.00000000       0.00000000       0.00000000       0.00000000       0.00000000       0.67038471
Al       0.00000000       0.00000000       3.82484848       0.00000000       0.00000000      -0.67038471
2
Properties=species:S:1:pos:R:3:forces:R:3 energy=-7.152807702701887 pbc="F F F"
Al       0.00000000       0.00000000       0.00000000       0.00000000       0.00000000       0.69334608
Al       0.00000000       0.00000000       3.88363636       0.00000000       0.00000000      -0.69334608
2
Properties=species:S:1:pos:R:3:forces:R:3 energy=-7.111501621504987 pbc="F F F"
Al       0.00000000       0.00000000       0.00000000       0.00000000       0.00000000       0.71101493
Al       0.00000000       0.00000000       3.94242424       0.00000000       0.00000000      -0.71101493
2
Properties=species:S:1:pos:R:3:forces:R:3 energy=-7.06931883802537 pbc="F F F"
Al       0.00000000       0.00000000       0.00000000       0.00000000       0.00000000       0.72314870
Al       0.00000000       0.00000000       4.00121212       0.00000000       0.00000000      -0.72314870
2
Properties=species:S:1:pos:R:3:forces:R:3 energy=-7.026584892657915 pbc="F F F"
Al       0.00000000       0.00000000       0.00000000       0.00000000       0.00000000       0.72977114
Al       0.00000000       0.00000000       4.06000000       0.00000000       0.00000000      -0.72977114
2
Properties=species:S:1:pos:R:3:forces:R:3 energy=-6.983619622758535 pbc="F F F"
Al       0.00000000       0.00000000       0.00000000       0.00000000       0.00000000       0.73108870
Al       0.00000000       0.00000000       4.11878788       0.00000000       0.00000000      -0.73108870
2
Properties=species:S:1:pos:R:3:forces:R:3 energy=-6.940723282097523 pbc="F F F"
Al       0.00000000       0.00000000       0.00000000       0.00000000       0.00000000       0.72747219
Al       0.00000000       0.00000000       4.17757576       0.00000000       0.00000000      -0.72747219
2
Properties=species:S:1:pos:R:3:forces:R:3 energy=-6.898172800606108 pbc="F F F"
Al       0.00000000       0.00000000       0.00000000       0.00000000       0.00000000       0.71941751
Al       0.00000000       0.00000000       4.23636364       0.00000000       0.00000000      -0.71941751
2
Properties=species:S:1:pos:R:3:forces:R:3 energy=-6.8562122603045825 pbc="F F F"
Al       0.00000000       0.00000000       0.00000000       0.00000000       0.00000000       0.70748663
Al       0.00000000       0.00000000       4.29515152       0.00000000       0.00000000      -0.70748663
2
Properties=species:S:1:pos:R:3:forces:R:3 energy=-6.815055726230934 pbc="F F F"
Al       0.00000000       0.00000000       0.00000000       0.00000000       0.00000000       0.69221425
Al       0.00000000       0.00000000       4.35393939       0.00000000       0.00000000      -0.69221425
2
Properties=species:S:1:pos:R:3:forces:R:3 energy=-6.774882484404914 pbc="F F F"
Al       0.00000000       0.00000000       0.00000000       0.00000000       0.00000000       0.67404485
Al       0.00000000       0.00000000       4.41272727       0.00000000       0.00000000      -0.67404485
2
Properties=species:S:1:pos:R:3:forces:R:3 energy=-6.735855212325203 pbc="F F F"
Al       0.00000000       0.00000000       0.00000000       0.00000000       0.00000000       0.65326440
Al       0.00000000       0.00000000       4.47151515       0.00000000       0.00000000      -0.65326440
2
Properties=species:S:1:pos:R:3:forces:R:3 energy=-6.698121895821504 pbc="F F F"
Al       0.00000000       0.00000000       0.00000000       0.00000000       0.00000000       0.63000858
Al       0.00000000       0.00000000       4.53030303       0.00000000       0.00000000      -0.63000858
2
Properties=species:S:1:pos:R:3:forces:R:3 energy=-6.661831480733485 pbc="F F F"
Al       0.00000000       0.00000000       0.00000000       0.00000000       0.00000000       0.60420996
Al       0.00000000       0.00000000       4.58909091       0.00000000       0.00000000      -0.60420996
2
Properties=species:S:1:pos:R:3:forces:R:3 energy=-6.627137342235501 pbc="F F F"
Al       0.00000000       0.00000000       0.00000000       0.00000000       0.00000000       0.57559919
Al       0.00000000       0.00000000       4.64787879       0.00000000       0.00000000      -0.57559919
2
Properties=species:S:1:pos:R:3:forces:R:3 energy=-6.594217204291281 pbc="F F F"
Al       0.00000000       0.00000000       0.00000000       0.00000000       0.00000000       0.54375070
Al       0.00000000       0.00000000       4.70666667       0.00000000       0.00000000      -0.54375070
2
Properties=species:S:1:pos:R:3:forces:R:3 energy=-6.56327558957204 pbc="F F F"
Al       0.00000000       0.00000000       0.00000000       0.00000000       0.00000000       0.50831878
Al       0.00000000       0.00000000       4.76545455       0.00000000       0.00000000      -0.50831878
2
Properties=species:S:1:pos:R:3:forces:R:3 energy=-6.534520426717273 pbc="F F F"
Al       0.00000000       0.00000000       0.00000000       0.00000000       0.00000000       0.46938619
Al       0.00000000       0.00000000       4.82424242       0.00000000       0.00000000      -0.46938619
2
Properties=species:S:1:pos:R:3:forces:R:3 energy=-6.508139718576137 pbc="F F F"
Al       0.00000000       0.00000000       0.00000000       0.00000000       0.00000000       0.42788815
Al       0.00000000       0.00000000       4.88303030       0.00000000       0.00000000      -0.42788815
2
Properties=species:S:1:pos:R:3:forces:R:3 energy=-6.48422327597316 pbc="F F F"
Al       0.00000000       0.00000000       0.00000000       0.00000000       0.00000000       0.38583574
Al       0.00000000       0.00000000       4.94181818       0.00000000       0.00000000      -0.38583574
2
Properties=species:S:1:pos:R:3:forces:R:3 energy=-6.462725560839844 pbc="F F F"
Al       0.00000000       0.00000000       0.00000000       0.00000000       0.00000000       0.34616330
Al       0.00000000       0.00000000       5.00060606       0.00000000       0.00000000      -0.34616330
2
Properties=species:S:1:pos:R:3:forces:R:3 energy=-6.443412761249891 pbc="F F F"
Al       0.00000000       0.00000000       0.00000000       0.00000000       0.00000000       0.31203708
Al       0.00000000       0.00000000       5.05939394       0.00000000       0.00000000      -0.31203708
2
Properties=species:S:1:pos:R:3:forces:R:3 energy=-6.4258827694786 pbc="F F F"
Al       0.00000000       0.00000000       0.00000000       0.00000000       0.00000000       0.28575179
Al       0.00000000       0.00000000       5.11818182       0.00000000       0.00000000      -0.28575179
2
Properties=species:S:1:pos:R:3:forces:R:3 energy=-6.409656287202439 pbc="F F F"
Al       0.00000000       0.00000000       0.00000000       0.00000000       0.00000000       0.26753184
Al       0.00000000       0.00000000       5.17696970       0.00000000       0.00000000      -0.26753184
2
Properties=species:S:1:pos:R:3:forces:R:3 energy=-6.394324134918799 pbc="F F F"
Al       0.00000000       0.00000000       0.00000000       0.00000000       0.00000000       0.25458348
Al       0.00000000       0.00000000       5.23575758       0.00000000       0.00000000      -0.25458348
2
Properties=species:S:1:pos:R:3:forces:R:3 energy=-6.37973083821168 pbc="F F F"
Al       0.00000000       0.00000000       0.00000000       0.00000000       0.00000000       0.24129891
Al       0.00000000       0.00000000       5.29454545       0.00000000       0.00000000      -0.24129891
2
Properties=species:S:1:pos:R:3:forces:R:3 energy=-6.366068528241899 pbc="F F F"
Al       0.00000000       0.00000000       0.00000000       0.00000000       0.00000000       0.22236413
Al       0.00000000       0.00000000       5.35333333       0.00000000       0.00000000      -0.22236413
2
Properties=species:S:1:pos:R:3:forces:R:3 energy=-6.353644280851889 pbc="F F F"
Al       0.00000000       0.00000000       0.00000000       0.00000000       0.00000000       0.20093408
Al       0.00000000       0.00000000       5.41212121       0.00000000       0.00000000      -0.20093408
2
Properties=species:S:1:pos:R:3:forces:R:3 energy=-6.3421938837466465 pbc="F F F"
Al       0.00000000       0.00000000       0.00000000       0.00000000       0.00000000       0.19171473
Al       0.00000000       0.00000000       5.47090909       0.00000000       0.00000000      -0.19171473
2
Properties=species:S:1:pos:R:3:forces:R:3 energy=-6.330860875457656 pbc="F F F"
Al       0.00000000       0.00000000       0.00000000       0.00000000       0.00000000       0.19345537
Al       0.00000000       0.00000000       5.52969697       0.00000000       0.00000000      -0.19345537
2
Properties=species:S:1:pos:R:3:forces:R:3 energy=-6.3197944029013655 pbc="F F F"
Al       0.00000000       0.00000000       0.00000000       0.00000000       0.00000000       0.17894830
Al       0.00000000       0.00000000       5.58848485       0.00000000       0.00000000      -0.17894830
2
Properties=species:S:1:pos:R:3:forces:R:3 energy=-6.310152576662315 pbc="F F F"
Al       0.00000000       0.00000000       0.00000000       0.00000000       0.00000000       0.14851095
Al       0.00000000       0.00000000       5.64727273       0.00000000       0.00000000      -0.14851095
2
Properties=species:S:1:pos:R:3:forces:R:3 energy=-6.302107339973704 pbc="F F F"
Al       0.00000000       0.00000000       0.00000000       0.00000000       0.00000000       0.12903596
Al       0.00000000       0.00000000       5.70606061       0.00000000       0.00000000      -0.12903596
2
Properties=species:S:1:pos:R:3:forces:R:3 energy=-6.294577453372041 pbc="F F F"
Al       0.00000000       0.00000000       0.00000000       0.00000000       0.00000000       0.12769979
Al       0.00000000       0.00000000       5.76484848       0.00000000       0.00000000      -0.12769979
2
Properties=species:S:1:pos:R:3:forces:R:3 energy=-6.287407164464931 pbc="F F F"
Al       0.00000000       0.00000000       0.00000000       0.00000000       0.00000000       0.11126223
Al       0.00000000       0.00000000       5.82363636       0.00000000       0.00000000      -0.11126223
2
Properties=species:S:1:pos:R:3:forces:R:3 energy=-6.282107675456883 pbc="F F F"
Al       0.00000000       0.00000000       0.00000000       0.00000000       0.00000000       0.06649506
Al       0.00000000       0.00000000       5.88242424       0.00000000       0.00000000      -0.06649506
2
Properties=species:S:1:pos:R:3:forces:R:3 energy=-6.279570225802918 pbc="F F F"
Al       0.00000000       0.00000000       0.00000000       0.00000000       0.00000000       0.02225380
Al       0.00000000       0.00000000       5.94121212       0.00000000       0.00000000      -0.02225380
2
Properties=species:S:1:pos:R:3:forces:R:3 energy=-6.27894887779406 pbc="F F F"
Al       0.00000000       0.00000000       0.00000000       0.00000000       0.00000000       0.00469318
Al       0.00000000       0.00000000       6.00000000       0.00000000       0.00000000      -0.00469318
