2
Properties=species:S:1:pos:R:3:forces:R:3 energy=8297.374411301078 pbc="F F F"
Cd       0.00000000       0.00000000       0.00000000       0.00000000       0.00000000 -135363.87500000
Cd       0.00000000       0.00000000       0.18000000       0.00000000       0.00000000  135363.87500000
2
Properties=species:S:1:pos:R:3:forces:R:3 energy=3508.9969698948275 pbc="F F F"
Cd       0.00000000       0.00000000       0.00000000       0.00000000       0.00000000  -45801.54687500
Cd       0.00000000       0.00000000       0.23878788       0.00000000       0.00000000   45801.54687500
2
Properties=species:S:1:pos:R:3:forces:R:3 energy=1803.84230680889 pbc="F F F"
Cd       0.00000000       0.00000000       0.00000000       0.00000000       0.00000000  -16890.59960938
Cd       0.00000000       0.00000000       0.29757576       0.00000000       0.00000000   16890.59960938
2
Properties=species:S:1:pos:R:3:forces:R:3 energy=1204.65285368389 pbc="F F F"
Cd       0.00000000       0.00000000       0.00000000       0.00000000       0.00000000   -5044.00927734
Cd       0.00000000       0.00000000       0.35636364       0.00000000       0.00000000    5044.00927734
2
Properties=species:S:1:pos:R:3:forces:R:3 energy=1089.604269700307 pbc="F F F"
Cd       0.00000000       0.00000000       0.00000000       0.00000000       0.00000000     398.65155029
Cd       0.00000000       0.00000000       0.41515152       0.00000000       0.00000000    -398.65155029
2
Properties=species:S:1:pos:R:3:forces:R:3 energy=1043.266134935474 pbc="F F F"
Cd       0.00000000       0.00000000       0.00000000       0.00000000       0.00000000   -2295.70190430
Cd       0.00000000       0.00000000       0.47393939       0.00000000       0.00000000    2295.70190430
2
Properties=species:S:1:pos:R:3:forces:R:3 energy=918.4923312277043 pbc="F F F"
Cd       0.00000000       0.00000000       0.00000000       0.00000000       0.00000000   -2106.66772461
Cd       0.00000000       0.00000000       0.53272727       0.00000000       0.00000000    2106.66772461
2
Properties=species:S:1:pos:R:3:forces:R:3 energy=786.1843478340186 pbc="F F F"
Cd       0.00000000       0.00000000       0.00000000       0.00000000       0.00000000   -2400.67187500
Cd       0.00000000       0.00000000       0.59151515       0.00000000       0.00000000    2400.67187500
2
Properties=species:S:1:pos:R:3:forces:R:3 energy=628.5934054583337 pbc="F F F"
Cd       0.00000000       0.00000000       0.00000000       0.00000000       0.00000000   -2861.89453125
Cd       0.00000000       0.00000000       0.65030303       0.00000000       0.00000000    2861.89453125
2
Properties=species:S:1:pos:R:3:forces:R:3 energy=491.0284640647549 pbc="F F F"
Cd       0.00000000       0.00000000       0.00000000       0.00000000       0.00000000   -1789.50122070
Cd       0.00000000       0.00000000       0.70909091       0.00000000       0.00000000    1789.50122070
2
Properties=species:S:1:pos:R:3:forces:R:3 energy=419.80211520601677 pbc="F F F"
Cd       0.00000000       0.00000000       0.00000000       0.00000000       0.00000000   -1171.17675781
Cd       0.00000000       0.00000000       0.76787879       0.00000000       0.00000000    1171.17675781
2
Properties=species:S:1:pos:R:3:forces:R:3 energy=356.8363864715937 pbc="F F F"
Cd       0.00000000       0.00000000       0.00000000       0.00000000       0.00000000    -950.71630859
Cd       0.00000000       0.00000000       0.82666667       0.00000000       0.00000000     950.71630859
2
Properties=species:S:1:pos:R:3:forces:R:3 energy=306.7880466674415 pbc="F F F"
Cd       0.00000000       0.00000000       0.00000000       0.00000000       0.00000000    -832.98529053
Cd       0.00000000       0.00000000       0.88545455       0.00000000       0.00000000     832.98529053
2
Properties=species:S:1:pos:R:3:forces:R:3 energy=256.9880284091637 pbc="F F F"
Cd       0.00000000       0.00000000       0.00000000       0.00000000       0.00000000    -832.29321289
Cd       0.00000000       0.00000000       0.94424242       0.00000000       0.00000000     832.29321289
2
Properties=species:S:1:pos:R:3:forces:R:3 energy=207.42722220760953 pbc="F F F"
Cd       0.00000000       0.00000000       0.00000000       0.00000000       0.00000000    -842.13244629
Cd       0.00000000       0.00000000       1.00303030       0.00000000       0.00000000     842.13244629
2
Properties=species:S:1:pos:R:3:forces:R:3 energy=159.6668158116714 pbc="F F F"
Cd       0.00000000       0.00000000       0.00000000       0.00000000       0.00000000    -776.24481201
Cd       0.00000000       0.00000000       1.06181818       0.00000000       0.00000000     776.24481201
2
Properties=species:S:1:pos:R:3:forces:R:3 energy=116.41907424074945 pbc="F F F"
Cd       0.00000000       0.00000000       0.00000000       0.00000000       0.00000000    -694.79241943
Cd       0.00000000       0.00000000       1.12060606       0.00000000       0.00000000     694.79241943
2
Properties=species:S:1:pos:R:3:forces:R:3 energy=78.22423493268887 pbc="F F F"
Cd       0.00000000       0.00000000       0.00000000       0.00000000       0.00000000    -598.65789795
Cd       0.00000000       0.00000000       1.17939394       0.00000000       0.00000000     598.65789795
2
Properties=species:S:1:pos:R:3:forces:R:3 energy=46.91948661452844 pbc="F F F"
Cd       0.00000000       0.00000000       0.00000000       0.00000000       0.00000000    -461.39010620
Cd       0.00000000       0.00000000       1.23818182       0.00000000       0.00000000     461.39010620
2
Properties=species:S:1:pos:R:3:forces:R:3 energy=23.77830113121483 pbc="F F F"
Cd       0.00000000       0.00000000       0.00000000       0.00000000       0.00000000    -332.18048096
Cd       0.00000000       0.00000000       1.29696970       0.00000000       0.00000000     332.18048096
2
Properties=species:S:1:pos:R:3:forces:R:3 energy=7.229011776306123 pbc="F F F"
Cd       0.00000000       0.00000000       0.00000000       0.00000000       0.00000000    -234.18533325
Cd       0.00000000       0.00000000       1.35575758       0.00000000       0.00000000     234.18533325
2
Properties=species:S:1:pos:R:3:forces:R:3 energy=-4.149600306428878 pbc="F F F"
Cd       0.00000000       0.00000000       0.00000000       0.00000000       0.00000000    -157.42907715
Cd       0.00000000       0.00000000       1.41454545       0.00000000       0.00000000     157.42907715
2
Properties=species:S:1:pos:R:3:forces:R:3 energy=-11.865433433423455 pbc="F F F"
Cd       0.00000000       0.00000000       0.00000000       0.00000000       0.00000000    -109.48739624
Cd       0.00000000       0.00000000       1.47333333       0.00000000       0.00000000     109.48739624
2
Properties=species:S:1:pos:R:3:forces:R:3 energy=-17.40346149155746 pbc="F F F"
Cd       0.00000000       0.00000000       0.00000000       0.00000000       0.00000000     -81.10690308
Cd       0.00000000       0.00000000       1.53212121       0.00000000       0.00000000      81.10690308
2
Properties=species:S:1:pos:R:3:forces:R:3 energy=-21.5833312939833 pbc="F F F"
Cd       0.00000000       0.00000000       0.00000000       0.00000000       0.00000000     -62.22573090
Cd       0.00000000       0.00000000       1.59090909       0.00000000       0.00000000      62.22573090
2
Properties=species:S:1:pos:R:3:forces:R:3 energy=-24.825546438027036 pbc="F F F"
Cd       0.00000000       0.00000000       0.00000000       0.00000000       0.00000000     -48.79542542
Cd       0.00000000       0.00000000       1.64969697       0.00000000       0.00000000      48.79542542
2
Properties=species:S:1:pos:R:3:forces:R:3 energy=-27.388506858557182 pbc="F F F"
Cd       0.00000000       0.00000000       0.00000000       0.00000000       0.00000000     -38.85798645
Cd       0.00000000       0.00000000       1.70848485       0.00000000       0.00000000      38.85798645
2
Properties=species:S:1:pos:R:3:forces:R:3 energy=-29.43807175581109 pbc="F F F"
Cd       0.00000000       0.00000000       0.00000000       0.00000000       0.00000000     -31.17333603
Cd       0.00000000       0.00000000       1.76727273       0.00000000       0.00000000      31.17333603
2
Properties=species:S:1:pos:R:3:forces:R:3 energy=-31.08423981695258 pbc="F F F"
Cd       0.00000000       0.00000000       0.00000000       0.00000000       0.00000000     -25.05593109
Cd       0.00000000       0.00000000       1.82606061       0.00000000       0.00000000      25.05593109
2
Properties=species:S:1:pos:R:3:forces:R:3 energy=-32.40782729823126 pbc="F F F"
Cd       0.00000000       0.00000000       0.00000000       0.00000000       0.00000000     -20.15652657
Cd       0.00000000       0.00000000       1.88484848       0.00000000       0.00000000      20.15652657
2
Properties=species:S:1:pos:R:3:forces:R:3 energy=-33.47375466149213 pbc="F F F"
Cd       0.00000000       0.00000000       0.00000000       0.00000000       0.00000000     -16.25822639
Cd       0.00000000       0.00000000       1.94363636       0.00000000       0.00000000      16.25822639
2
Properties=species:S:1:pos:R:3:forces:R:3 energy=-34.335534563924654 pbc="F F F"
Cd       0.00000000       0.00000000       0.00000000       0.00000000       0.00000000     -13.18357468
Cd       0.00000000       0.00000000       2.00242424       0.00000000       0.00000000      13.18357468
2
Properties=species:S:1:pos:R:3:forces:R:3 energy=-35.03675394001845 pbc="F F F"
Cd       0.00000000       0.00000000       0.00000000       0.00000000       0.00000000     -10.76936340
Cd       0.00000000       0.00000000       2.06121212       0.00000000       0.00000000      10.76936340
2
Properties=species:S:1:pos:R:3:forces:R:3 energy=-35.611699681606886 pbc="F F F"
Cd       0.00000000       0.00000000       0.00000000       0.00000000       0.00000000      -8.86347389
Cd       0.00000000       0.00000000       2.12000000       0.00000000       0.00000000       8.86347389
2
Properties=species:S:1:pos:R:3:forces:R:3 energy=-36.08624759617051 pbc="F F F"
Cd       0.00000000       0.00000000       0.00000000       0.00000000       0.00000000      -7.33441305
Cd       0.00000000       0.00000000       2.17878788       0.00000000       0.00000000       7.33441305
2
Properties=species:S:1:pos:R:3:forces:R:3 energy=-36.479457135611646 pbc="F F F"
Cd       0.00000000       0.00000000       0.00000000       0.00000000       0.00000000      -6.08246517
Cd       0.00000000       0.00000000       2.23757576       0.00000000       0.00000000       6.08246517
2
Properties=species:S:1:pos:R:3:forces:R:3 energy=-36.80547902603143 pbc="F F F"
Cd       0.00000000       0.00000000       0.00000000       0.00000000       0.00000000      -5.03935575
Cd       0.00000000       0.00000000       2.29636364       0.00000000       0.00000000       5.03935575
2
Properties=species:S:1:pos:R:3:forces:R:3 energy=-37.07515019845309 pbc="F F F"
Cd       0.00000000       0.00000000       0.00000000       0.00000000       0.00000000      -4.15945721
Cd       0.00000000       0.00000000       2.35515152       0.00000000       0.00000000       4.15945721
2
Properties=species:S:1:pos:R:3:forces:R:3 energy=-37.297112048697706 pbc="F F F"
Cd       0.00000000       0.00000000       0.00000000       0.00000000       0.00000000      -3.41173434
Cd       0.00000000       0.00000000       2.41393939       0.00000000       0.00000000       3.41173434
2
Properties=species:S:1:pos:R:3:forces:R:3 energy=-37.478471145832174 pbc="F F F"
Cd       0.00000000       0.00000000       0.00000000       0.00000000       0.00000000      -2.77548265
Cd       0.00000000       0.00000000       2.47272727       0.00000000       0.00000000       2.77548265
2
Properties=species:S:1:pos:R:3:forces:R:3 energy=-37.625353324706715 pbc="F F F"
Cd       0.00000000       0.00000000       0.00000000       0.00000000       0.00000000      -2.23688912
Cd       0.00000000       0.00000000       2.53151515       0.00000000       0.00000000       2.23688912
2
Properties=species:S:1:pos:R:3:forces:R:3 energy=-37.74317202861774 pbc="F F F"
Cd       0.00000000       0.00000000       0.00000000       0.00000000       0.00000000      -1.78488350
Cd       0.00000000       0.00000000       2.59030303       0.00000000       0.00000000       1.78488350
2
Properties=species:S:1:pos:R:3:forces:R:3 energy=-37.836675188077116 pbc="F F F"
Cd       0.00000000       0.00000000       0.00000000       0.00000000       0.00000000      -1.40742791
Cd       0.00000000       0.00000000       2.64909091       0.00000000       0.00000000       1.40742791
2
Properties=species:S:1:pos:R:3:forces:R:3 energy=-37.90983457400064 pbc="F F F"
Cd       0.00000000       0.00000000       0.00000000       0.00000000       0.00000000      -1.09034336
Cd       0.00000000       0.00000000       2.70787879       0.00000000       0.00000000       1.09034336
2
Properties=species:S:1:pos:R:3:forces:R:3 energy=-37.965768573854355 pbc="F F F"
Cd       0.00000000       0.00000000       0.00000000       0.00000000       0.00000000      -0.81916392
Cd       0.00000000       0.00000000       2.76666667       0.00000000       0.00000000       0.81916392
2
Properties=species:S:1:pos:R:3:forces:R:3 energy=-38.006813691435326 pbc="F F F"
Cd       0.00000000       0.00000000       0.00000000       0.00000000       0.00000000      -0.58220887
Cd       0.00000000       0.00000000       2.82545455       0.00000000       0.00000000       0.58220887
2
Properties=species:S:1:pos:R:3:forces:R:3 energy=-38.03475182298524 pbc="F F F"
Cd       0.00000000       0.00000000       0.00000000       0.00000000       0.00000000      -0.37244132
Cd       0.00000000       0.00000000       2.88424242       0.00000000       0.00000000       0.37244132
2
Properties=species:S:1:pos:R:3:forces:R:3 energy=-38.05109030659831 pbc="F F F"
Cd       0.00000000       0.00000000       0.00000000       0.00000000       0.00000000      -0.18764094
Cd       0.00000000       0.00000000       2.94303030       0.00000000       0.00000000       0.18764094
2
Properties=species:S:1:pos:R:3:forces:R:3 energy=-38.05734294595208 pbc="F F F"
Cd       0.00000000       0.00000000       0.00000000       0.00000000       0.00000000      -0.02987597
Cd       0.00000000       0.00000000       3.00181818       0.00000000       0.00000000       0.02987597
2
Properties=species:S:1:pos:R:3:forces:R:3 energy=-38.05522233304829 pbc="F F F"
Cd       0.00000000       0.00000000       0.00000000       0.00000000       0.00000000       0.09649391
Cd       0.00000000       0.00000000       3.06060606       0.00000000       0.00000000      -0.09649391
2
Properties=species:S:1:pos:R:3:forces:R:3 energy=-38.04667829195791 pbc="F F F"
Cd       0.00000000       0.00000000       0.00000000       0.00000000       0.00000000       0.18827750
Cd       0.00000000       0.00000000       3.11939394       0.00000000       0.00000000      -0.18827750
2
Properties=species:S:1:pos:R:3:forces:R:3 energy=-38.03376854953172 pbc="F F F"
Cd       0.00000000       0.00000000       0.00000000       0.00000000       0.00000000       0.24521321
Cd       0.00000000       0.00000000       3.17818182       0.00000000       0.00000000      -0.24521321
2
Properties=species:S:1:pos:R:3:forces:R:3 energy=-38.0184857277865 pbc="F F F"
Cd       0.00000000       0.00000000       0.00000000       0.00000000       0.00000000       0.26965955
Cd       0.00000000       0.00000000       3.23696970       0.00000000       0.00000000      -0.26965955
2
Properties=species:S:1:pos:R:3:forces:R:3 energy=-38.00261488515484 pbc="F F F"
Cd       0.00000000       0.00000000       0.00000000       0.00000000       0.00000000       0.26602775
Cd       0.00000000       0.00000000       3.29575758       0.00000000       0.00000000      -0.26602775
2
Properties=species:S:1:pos:R:3:forces:R:3 energy=-37.9876383942255 pbc="F F F"
Cd       0.00000000       0.00000000       0.00000000       0.00000000       0.00000000       0.24040306
Cd       0.00000000       0.00000000       3.35454545       0.00000000       0.00000000      -0.24040306
2
Properties=species:S:1:pos:R:3:forces:R:3 energy=-37.97463888394431 pbc="F F F"
Cd       0.00000000       0.00000000       0.00000000       0.00000000       0.00000000       0.20002070
Cd       0.00000000       0.00000000       3.41333333       0.00000000       0.00000000      -0.20002070
2
Properties=species:S:1:pos:R:3:forces:R:3 energy=-37.96426176516434 pbc="F F F"
Cd       0.00000000       0.00000000       0.00000000       0.00000000       0.00000000       0.15247259
Cd       0.00000000       0.00000000       3.47212121       0.00000000       0.00000000      -0.15247259
2
Properties=species:S:1:pos:R:3:forces:R:3 energy=-37.95671298877233 pbc="F F F"
Cd       0.00000000       0.00000000       0.00000000       0.00000000       0.00000000       0.10473146
Cd       0.00000000       0.00000000       3.53090909       0.00000000       0.00000000      -0.10473146
2
Properties=species:S:1:pos:R:3:forces:R:3 energy=-37.95184357091476 pbc="F F F"
Cd       0.00000000       0.00000000       0.00000000       0.00000000       0.00000000       0.06220248
Cd       0.00000000       0.00000000       3.58969697       0.00000000       0.00000000      -0.06220248
2
Properties=species:S:1:pos:R:3:forces:R:3 energy=-37.949233581278015 pbc="F F F"
Cd       0.00000000       0.00000000       0.00000000       0.00000000       0.00000000       0.02810387
Cd       0.00000000       0.00000000       3.64848485       0.00000000       0.00000000      -0.02810387
2
Properties=species:S:1:pos:R:3:forces:R:3 energy=-37.948352447488666 pbc="F F F"
Cd       0.00000000       0.00000000       0.00000000       0.00000000       0.00000000       0.00335215
Cd       0.00000000       0.00000000       3.70727273       0.00000000       0.00000000      -0.00335215
2
Properties=species:S:1:pos:R:3:forces:R:3 energy=-37.9486734182062 pbc="F F F"
Cd       0.00000000       0.00000000       0.00000000       0.00000000       0.00000000      -0.01301147
Cd       0.00000000       0.00000000       3.76606061       0.00000000       0.00000000       0.01301147
2
Properties=species:S:1:pos:R:3:forces:R:3 energy=-37.9497612710658 pbc="F F F"
Cd       0.00000000       0.00000000       0.00000000       0.00000000       0.00000000      -0.02308413
Cd       0.00000000       0.00000000       3.82484848       0.00000000       0.00000000       0.02308413
2
Properties=species:S:1:pos:R:3:forces:R:3 energy=-37.95131435512778 pbc="F F F"
Cd       0.00000000       0.00000000       0.00000000       0.00000000       0.00000000      -0.02932704
Cd       0.00000000       0.00000000       3.88363636       0.00000000       0.00000000       0.02932704
2
Properties=species:S:1:pos:R:3:forces:R:3 energy=-37.953175958941564 pbc="F F F"
Cd       0.00000000       0.00000000       0.00000000       0.00000000       0.00000000      -0.03397515
Cd       0.00000000       0.00000000       3.94242424       0.00000000       0.00000000       0.03397515
2
Properties=species:S:1:pos:R:3:forces:R:3 energy=-37.95531148730253 pbc="F F F"
Cd       0.00000000       0.00000000       0.00000000       0.00000000       0.00000000      -0.03871460
Cd       0.00000000       0.00000000       4.00121212       0.00000000       0.00000000       0.03871460
2
Properties=species:S:1:pos:R:3:forces:R:3 energy=-37.957751177436556 pbc="F F F"
Cd       0.00000000       0.00000000       0.00000000       0.00000000       0.00000000      -0.04458754
Cd       0.00000000       0.00000000       4.06000000       0.00000000       0.00000000       0.04458754
2
Properties=species:S:1:pos:R:3:forces:R:3 energy=-37.9605825757275 pbc="F F F"
Cd       0.00000000       0.00000000       0.00000000       0.00000000       0.00000000      -0.05204743
Cd       0.00000000       0.00000000       4.11878788       0.00000000       0.00000000       0.05204743
2
Properties=species:S:1:pos:R:3:forces:R:3 energy=-37.96390085161812 pbc="F F F"
Cd       0.00000000       0.00000000       0.00000000       0.00000000       0.00000000      -0.06106851
Cd       0.00000000       0.00000000       4.17757576       0.00000000       0.00000000       0.06106851
2
Properties=species:S:1:pos:R:3:forces:R:3 energy=-37.96778979064799 pbc="F F F"
Cd       0.00000000       0.00000000       0.00000000       0.00000000       0.00000000      -0.07127447
Cd       0.00000000       0.00000000       4.23636364       0.00000000       0.00000000       0.07127447
2
Properties=species:S:1:pos:R:3:forces:R:3 energy=-37.972295067814 pbc="F F F"
Cd       0.00000000       0.00000000       0.00000000       0.00000000       0.00000000      -0.08206091
Cd       0.00000000       0.00000000       4.29515152       0.00000000       0.00000000       0.08206091
2
Properties=species:S:1:pos:R:3:forces:R:3 energy=-37.97743190705917 pbc="F F F"
Cd       0.00000000       0.00000000       0.00000000       0.00000000       0.00000000      -0.09270499
Cd       0.00000000       0.00000000       4.35393939       0.00000000       0.00000000       0.09270499
2
Properties=species:S:1:pos:R:3:forces:R:3 energy=-37.98317742099185 pbc="F F F"
Cd       0.00000000       0.00000000       0.00000000       0.00000000       0.00000000      -0.10246859
Cd       0.00000000       0.00000000       4.41272727       0.00000000       0.00000000       0.10246859
2
Properties=species:S:1:pos:R:3:forces:R:3 energy=-37.98945158491676 pbc="F F F"
Cd       0.00000000       0.00000000       0.00000000       0.00000000       0.00000000      -0.11068180
Cd       0.00000000       0.00000000       4.47151515       0.00000000       0.00000000       0.11068180
2
Properties=species:S:1:pos:R:3:forces:R:3 energy=-37.996147720358984 pbc="F F F"
Cd       0.00000000       0.00000000       0.00000000       0.00000000       0.00000000      -0.11680523
Cd       0.00000000       0.00000000       4.53030303       0.00000000       0.00000000       0.11680523
2
Properties=species:S:1:pos:R:3:forces:R:3 energy=-38.00313633510384 pbc="F F F"
Cd       0.00000000       0.00000000       0.00000000       0.00000000       0.00000000      -0.12047210
Cd       0.00000000       0.00000000       4.58909091       0.00000000       0.00000000       0.12047210
2
Properties=species:S:1:pos:R:3:forces:R:3 energy=-38.01026130691571 pbc="F F F"
Cd       0.00000000       0.00000000       0.00000000       0.00000000       0.00000000      -0.12151050
Cd       0.00000000       0.00000000       4.64787879       0.00000000       0.00000000       0.12151050
2
Properties=species:S:1:pos:R:3:forces:R:3 energy=-38.017370395572435 pbc="F F F"
Cd       0.00000000       0.00000000       0.00000000       0.00000000       0.00000000      -0.11994224
Cd       0.00000000       0.00000000       4.70666667       0.00000000       0.00000000       0.11994224
2
Properties=species:S:1:pos:R:3:forces:R:3 energy=-38.024319059938506 pbc="F F F"
Cd       0.00000000       0.00000000       0.00000000       0.00000000       0.00000000      -0.11598342
Cd       0.00000000       0.00000000       4.76545455       0.00000000       0.00000000       0.11598342
2
Properties=species:S:1:pos:R:3:forces:R:3 energy=-38.03097046350869 pbc="F F F"
Cd       0.00000000       0.00000000       0.00000000       0.00000000       0.00000000      -0.11003269
Cd       0.00000000       0.00000000       4.82424242       0.00000000       0.00000000       0.11003269
2
Properties=species:S:1:pos:R:3:forces:R:3 energy=-38.03722598565056 pbc="F F F"
Cd       0.00000000       0.00000000       0.00000000       0.00000000       0.00000000      -0.10266579
Cd       0.00000000       0.00000000       4.88303030       0.00000000       0.00000000       0.10266579
2
Properties=species:S:1:pos:R:3:forces:R:3 energy=-38.04302520814123 pbc="F F F"
Cd       0.00000000       0.00000000       0.00000000       0.00000000       0.00000000      -0.09460383
Cd       0.00000000       0.00000000       4.94181818       0.00000000       0.00000000       0.09460383
2
Properties=species:S:1:pos:R:3:forces:R:3 energy=-38.04835354772972 pbc="F F F"
Cd       0.00000000       0.00000000       0.00000000       0.00000000       0.00000000      -0.08667430
Cd       0.00000000       0.00000000       5.00060606       0.00000000       0.00000000       0.08667430
2
Properties=species:S:1:pos:R:3:forces:R:3 energy=-38.053234627534344 pbc="F F F"
Cd       0.00000000       0.00000000       0.00000000       0.00000000       0.00000000      -0.07967924
Cd       0.00000000       0.00000000       5.05939394       0.00000000       0.00000000       0.07967924
2
Properties=species:S:1:pos:R:3:forces:R:3 energy=-38.057749327562384 pbc="F F F"
Cd       0.00000000       0.00000000       0.00000000       0.00000000       0.00000000      -0.07419776
Cd       0.00000000       0.00000000       5.11818182       0.00000000       0.00000000       0.07419776
2
Properties=species:S:1:pos:R:3:forces:R:3 energy=-38.061990001215264 pbc="F F F"
Cd       0.00000000       0.00000000       0.00000000       0.00000000       0.00000000      -0.07032861
Cd       0.00000000       0.00000000       5.17696970       0.00000000       0.00000000       0.07032861
2
Properties=species:S:1:pos:R:3:forces:R:3 energy=-38.066041406553964 pbc="F F F"
Cd       0.00000000       0.00000000       0.00000000       0.00000000       0.00000000      -0.06752188
Cd       0.00000000       0.00000000       5.23575758       0.00000000       0.00000000       0.06752188
2
Properties=species:S:1:pos:R:3:forces:R:3 energy=-38.069931082764384 pbc="F F F"
Cd       0.00000000       0.00000000       0.00000000       0.00000000       0.00000000      -0.06467345
Cd       0.00000000       0.00000000       5.29454545       0.00000000       0.00000000       0.06467345
2
Properties=species:S:1:pos:R:3:forces:R:3 energy=-38.073621733434116 pbc="F F F"
Cd       0.00000000       0.00000000       0.00000000       0.00000000       0.00000000      -0.06071655
Cd       0.00000000       0.00000000       5.35333333       0.00000000       0.00000000       0.06071655
2
Properties=species:S:1:pos:R:3:forces:R:3 energy=-38.077045533485254 pbc="F F F"
Cd       0.00000000       0.00000000       0.00000000       0.00000000       0.00000000      -0.05557247
Cd       0.00000000       0.00000000       5.41212121       0.00000000       0.00000000       0.05557247
2
Properties=species:S:1:pos:R:3:forces:R:3 energy=-38.080157524640676 pbc="F F F"
Cd       0.00000000       0.00000000       0.00000000       0.00000000       0.00000000      -0.05036286
Cd       0.00000000       0.00000000       5.47090909       0.00000000       0.00000000       0.05036286
2
Properties=species:S:1:pos:R:3:forces:R:3 energy=-38.0829775731342 pbc="F F F"
Cd       0.00000000       0.00000000       0.00000000       0.00000000       0.00000000      -0.04566536
Cd       0.00000000       0.00000000       5.52969697       0.00000000       0.00000000       0.04566536
2
Properties=species:S:1:pos:R:3:forces:R:3 energy=-38.08552551510534 pbc="F F F"
Cd       0.00000000       0.00000000       0.00000000       0.00000000       0.00000000      -0.04111420
Cd       0.00000000       0.00000000       5.58848485       0.00000000       0.00000000       0.04111420
2
Properties=species:S:1:pos:R:3:forces:R:3 energy=-38.087805878011345 pbc="F F F"
Cd       0.00000000       0.00000000       0.00000000       0.00000000       0.00000000      -0.03630551
Cd       0.00000000       0.00000000       5.64727273       0.00000000       0.00000000       0.03630551
2
Properties=species:S:1:pos:R:3:forces:R:3 energy=-38.0897582903547 pbc="F F F"
Cd       0.00000000       0.00000000       0.00000000       0.00000000       0.00000000      -0.02955381
Cd       0.00000000       0.00000000       5.70606061       0.00000000       0.00000000       0.02955381
2
Properties=species:S:1:pos:R:3:forces:R:3 energy=-38.0912193362944 pbc="F F F"
Cd       0.00000000       0.00000000       0.00000000       0.00000000       0.00000000      -0.01959951
Cd       0.00000000       0.00000000       5.76484848       0.00000000       0.00000000       0.01959951
2
Properties=species:S:1:pos:R:3:forces:R:3 energy=-38.092036981516735 pbc="F F F"
Cd       0.00000000       0.00000000       0.00000000       0.00000000       0.00000000      -0.00842160
Cd       0.00000000       0.00000000       5.82363636       0.00000000       0.00000000       0.00842160
2
Properties=species:S:1:pos:R:3:forces:R:3 energy=-38.09227274981452 pbc="F F F"
Cd       0.00000000       0.00000000       0.00000000       0.00000000       0.00000000      -0.00046949
Cd       0.00000000       0.00000000       5.88242424       0.00000000       0.00000000       0.00046949
2
Properties=species:S:1:pos:R:3:forces:R:3 energy=-38.09217884757479 pbc="F F F"
Cd       0.00000000       0.00000000       0.00000000       0.00000000       0.00000000       0.00319845
Cd       0.00000000       0.00000000       5.94121212       0.00000000       0.00000000      -0.00319845
2
Properties=species:S:1:pos:R:3:forces:R:3 energy=-38.09195018905362 pbc="F F F"
Cd       0.00000000       0.00000000       0.00000000       0.00000000       0.00000000       0.00415783
Cd       0.00000000       0.00000000       6.00000000       0.00000000       0.00000000      -0.00415783
