2
Properties=species:S:1:pos:R:3:forces:R:3 energy=1307636.6129044457 pbc="F F F"
Cr       0.00000000       0.00000000       0.00000000       0.00000000       0.00000000 -660444.31250000
Cr       0.00000000       0.00000000       0.18000000       0.00000000       0.00000000  660444.31250000
2
Properties=species:S:1:pos:R:3:forces:R:3 energy=1243468.7379044457 pbc="F F F"
Cr       0.00000000       0.00000000       0.00000000       0.00000000       0.00000000 -1630001.62500000
Cr       0.00000000       0.00000000       0.23878788       0.00000000       0.00000000 1630001.62500000
2
Properties=species:S:1:pos:R:3:forces:R:3 energy=1104183.7379044457 pbc="F F F"
Cr       0.00000000       0.00000000       0.00000000       0.00000000       0.00000000 -3185425.50000000
Cr       0.00000000       0.00000000       0.29757576       0.00000000       0.00000000 3185425.50000000
2
Properties=species:S:1:pos:R:3:forces:R:3 energy=866322.4254044456 pbc="F F F"
Cr       0.00000000       0.00000000       0.00000000       0.00000000       0.00000000 -4850578.00000000
Cr       0.00000000       0.00000000       0.35636364       0.00000000       0.00000000 4850578.00000000
2
Properties=species:S:1:pos:R:3:forces:R:3 energy=552828.2379044456 pbc="F F F"
Cr       0.00000000       0.00000000       0.00000000       0.00000000       0.00000000 -5549143.50000000
Cr       0.00000000       0.00000000       0.41515152       0.00000000       0.00000000 5549143.50000000
2
Properties=species:S:1:pos:R:3:forces:R:3 energy=251180.44102944725 pbc="F F F"
Cr       0.00000000       0.00000000       0.00000000       0.00000000       0.00000000 -4410737.50000000
Cr       0.00000000       0.00000000       0.47393939       0.00000000       0.00000000 4410737.50000000
2
Properties=species:S:1:pos:R:3:forces:R:3 energy=63221.06212320041 pbc="F F F"
Cr       0.00000000       0.00000000       0.00000000       0.00000000       0.00000000 -1949705.62500000
Cr       0.00000000       0.00000000       0.53272727       0.00000000       0.00000000 1949705.62500000
2
Properties=species:S:1:pos:R:3:forces:R:3 energy=4372.650013831748 pbc="F F F"
Cr       0.00000000       0.00000000       0.00000000       0.00000000       0.00000000 -316672.00000000
Cr       0.00000000       0.00000000       0.59151515       0.00000000       0.00000000  316672.00000000
2
Properties=species:S:1:pos:R:3:forces:R:3 energy=-71.00737294011766 pbc="F F F"
Cr       0.00000000       0.00000000       0.00000000       0.00000000       0.00000000    4517.90527344
Cr       0.00000000       0.00000000       0.65030303       0.00000000       0.00000000   -4517.90527344
2
Properties=species:S:1:pos:R:3:forces:R:3 energy=-1.6829462772373547 pbc="F F F"
Cr       0.00000000       0.00000000       0.00000000       0.00000000       0.00000000   -2440.49658203
Cr       0.00000000       0.00000000       0.70909091       0.00000000       0.00000000    2440.49658203
2
Properties=species:S:1:pos:R:3:forces:R:3 energy=-76.88893418694437 pbc="F F F"
Cr       0.00000000       0.00000000       0.00000000       0.00000000       0.00000000      25.12610817
Cr       0.00000000       0.00000000       0.76787879       0.00000000       0.00000000     -25.12610817
2
Properties=species:S:1:pos:R:3:forces:R:3 energy=-74.28266432280014 pbc="F F F"
Cr       0.00000000       0.00000000       0.00000000       0.00000000       0.00000000     -39.93952560
Cr       0.00000000       0.00000000       0.82666667       0.00000000       0.00000000      39.93952560
2
Properties=species:S:1:pos:R:3:forces:R:3 energy=-118.3748655129447 pbc="F F F"
Cr       0.00000000       0.00000000       0.00000000       0.00000000       0.00000000   -1017.68927002
Cr       0.00000000       0.00000000       0.88545455       0.00000000       0.00000000    1017.68927002
2
Properties=species:S:1:pos:R:3:forces:R:3 energy=-160.94835941344343 pbc="F F F"
Cr       0.00000000       0.00000000       0.00000000       0.00000000       0.00000000    -499.43563843
Cr       0.00000000       0.00000000       0.94424242       0.00000000       0.00000000     499.43563843
2
Properties=species:S:1:pos:R:3:forces:R:3 energy=-185.52184566158093 pbc="F F F"
Cr       0.00000000       0.00000000       0.00000000       0.00000000       0.00000000    -328.26852417
Cr       0.00000000       0.00000000       1.00303030       0.00000000       0.00000000     328.26852417
2
Properties=species:S:1:pos:R:3:forces:R:3 energy=-195.46148178592762 pbc="F F F"
Cr       0.00000000       0.00000000       0.00000000       0.00000000       0.00000000      39.42351151
Cr       0.00000000       0.00000000       1.06181818       0.00000000       0.00000000     -39.42351151
2
Properties=species:S:1:pos:R:3:forces:R:3 energy=-176.39377839788924 pbc="F F F"
Cr       0.00000000       0.00000000       0.00000000       0.00000000       0.00000000     616.76940918
Cr       0.00000000       0.00000000       1.12060606       0.00000000       0.00000000    -616.76940918
2
Properties=species:S:1:pos:R:3:forces:R:3 energy=-128.1666053618011 pbc="F F F"
Cr       0.00000000       0.00000000       0.00000000       0.00000000       0.00000000     931.83471680
Cr       0.00000000       0.00000000       1.17939394       0.00000000       0.00000000    -931.83471680
2
Properties=species:S:1:pos:R:3:forces:R:3 energy=-78.17126668427302 pbc="F F F"
Cr       0.00000000       0.00000000       0.00000000       0.00000000       0.00000000     703.38671875
Cr       0.00000000       0.00000000       1.23818182       0.00000000       0.00000000    -703.38671875
2
Properties=species:S:1:pos:R:3:forces:R:3 energy=-47.444589442411946 pbc="F F F"
Cr       0.00000000       0.00000000       0.00000000       0.00000000       0.00000000     361.82992554
Cr       0.00000000       0.00000000       1.29696970       0.00000000       0.00000000    -361.82992554
2
Properties=species:S:1:pos:R:3:forces:R:3 energy=-32.22775404030063 pbc="F F F"
Cr       0.00000000       0.00000000       0.00000000       0.00000000       0.00000000     178.92765808
Cr       0.00000000       0.00000000       1.35575758       0.00000000       0.00000000    -178.92765808
2
Properties=species:S:1:pos:R:3:forces:R:3 energy=-24.897208141296183 pbc="F F F"
Cr       0.00000000       0.00000000       0.00000000       0.00000000       0.00000000      80.49658203
Cr       0.00000000       0.00000000       1.41454545       0.00000000       0.00000000     -80.49658203
2
Properties=species:S:1:pos:R:3:forces:R:3 energy=-21.891382514108386 pbc="F F F"
Cr       0.00000000       0.00000000       0.00000000       0.00000000       0.00000000      27.52714920
Cr       0.00000000       0.00000000       1.47333333       0.00000000       0.00000000     -27.52714920
2
Properties=species:S:1:pos:R:3:forces:R:3 energy=-21.13825947876409 pbc="F F F"
Cr       0.00000000       0.00000000       0.00000000       0.00000000       0.00000000       1.38774979
Cr       0.00000000       0.00000000       1.53212121       0.00000000       0.00000000      -1.38774979
2
Properties=species:S:1:pos:R:3:forces:R:3 energy=-21.397059134003683 pbc="F F F"
Cr       0.00000000       0.00000000       0.00000000       0.00000000       0.00000000      -7.67132425
Cr       0.00000000       0.00000000       1.59090909       0.00000000       0.00000000       7.67132425
2
Properties=species:S:1:pos:R:3:forces:R:3 energy=-21.808456087522693 pbc="F F F"
Cr       0.00000000       0.00000000       0.00000000       0.00000000       0.00000000      -5.15580368
Cr       0.00000000       0.00000000       1.64969697       0.00000000       0.00000000       5.15580368
2
Properties=species:S:1:pos:R:3:forces:R:3 energy=-21.968971750146718 pbc="F F F"
Cr       0.00000000       0.00000000       0.00000000       0.00000000       0.00000000      -0.73293775
Cr       0.00000000       0.00000000       1.70848485       0.00000000       0.00000000       0.73293775
2
Properties=species:S:1:pos:R:3:forces:R:3 energy=-21.98581638809152 pbc="F F F"
Cr       0.00000000       0.00000000       0.00000000       0.00000000       0.00000000      -0.67191976
Cr       0.00000000       0.00000000       1.76727273       0.00000000       0.00000000       0.67191976
2
Properties=species:S:1:pos:R:3:forces:R:3 energy=-22.104609098731967 pbc="F F F"
Cr       0.00000000       0.00000000       0.00000000       0.00000000       0.00000000      -3.36328220
Cr       0.00000000       0.00000000       1.82606061       0.00000000       0.00000000       3.36328220
2
Properties=species:S:1:pos:R:3:forces:R:3 energy=-22.337443028352876 pbc="F F F"
Cr       0.00000000       0.00000000       0.00000000       0.00000000       0.00000000      -4.03264427
Cr       0.00000000       0.00000000       1.88484848       0.00000000       0.00000000       4.03264427
2
Properties=species:S:1:pos:R:3:forces:R:3 energy=-22.52776977255998 pbc="F F F"
Cr       0.00000000       0.00000000       0.00000000       0.00000000       0.00000000      -2.15616775
Cr       0.00000000       0.00000000       1.94363636       0.00000000       0.00000000       2.15616775
2
Properties=species:S:1:pos:R:3:forces:R:3 energy=-22.573876176626122 pbc="F F F"
Cr       0.00000000       0.00000000       0.00000000       0.00000000       0.00000000       0.60815692
Cr       0.00000000       0.00000000       2.00242424       0.00000000       0.00000000      -0.60815692
2
Properties=species:S:1:pos:R:3:forces:R:3 energy=-22.46495473530462 pbc="F F F"
Cr       0.00000000       0.00000000       0.00000000       0.00000000       0.00000000       2.95080757
Cr       0.00000000       0.00000000       2.06121212       0.00000000       0.00000000      -2.95080757
2
Properties=species:S:1:pos:R:3:forces:R:3 energy=-22.254830727851857 pbc="F F F"
Cr       0.00000000       0.00000000       0.00000000       0.00000000       0.00000000       3.84002042
Cr       0.00000000       0.00000000       2.12000000       0.00000000       0.00000000      -3.84002042
2
Properties=species:S:1:pos:R:3:forces:R:3 energy=-22.066207448321833 pbc="F F F"
Cr       0.00000000       0.00000000       0.00000000       0.00000000       0.00000000       2.09174418
Cr       0.00000000       0.00000000       2.17878788       0.00000000       0.00000000      -2.09174418
2
Properties=species:S:1:pos:R:3:forces:R:3 energy=-22.061585077637794 pbc="F F F"
Cr       0.00000000       0.00000000       0.00000000       0.00000000       0.00000000      -2.27162576
Cr       0.00000000       0.00000000       2.23757576       0.00000000       0.00000000       2.27162576
2
Properties=species:S:1:pos:R:3:forces:R:3 energy=-22.344763130646825 pbc="F F F"
Cr       0.00000000       0.00000000       0.00000000       0.00000000       0.00000000      -7.16308117
Cr       0.00000000       0.00000000       2.29636364       0.00000000       0.00000000       7.16308117
2
Properties=species:S:1:pos:R:3:forces:R:3 energy=-22.841809035293533 pbc="F F F"
Cr       0.00000000       0.00000000       0.00000000       0.00000000       0.00000000      -9.03047752
Cr       0.00000000       0.00000000       2.35515152       0.00000000       0.00000000       9.03047752
2
Properties=species:S:1:pos:R:3:forces:R:3 energy=-23.347771948814835 pbc="F F F"
Cr       0.00000000       0.00000000       0.00000000       0.00000000       0.00000000      -7.95033884
Cr       0.00000000       0.00000000       2.41393939       0.00000000       0.00000000       7.95033884
2
Properties=species:S:1:pos:R:3:forces:R:3 energy=-23.754160440401325 pbc="F F F"
Cr       0.00000000       0.00000000       0.00000000       0.00000000       0.00000000      -5.67453289
Cr       0.00000000       0.00000000       2.47272727       0.00000000       0.00000000       5.67453289
2
Properties=species:S:1:pos:R:3:forces:R:3 energy=-24.000850097807024 pbc="F F F"
Cr       0.00000000       0.00000000       0.00000000       0.00000000       0.00000000      -2.71925950
Cr       0.00000000       0.00000000       2.53151515       0.00000000       0.00000000       2.71925950
2
Properties=species:S:1:pos:R:3:forces:R:3 energy=-24.08619388360744 pbc="F F F"
Cr       0.00000000       0.00000000       0.00000000       0.00000000       0.00000000      -0.36096284
Cr       0.00000000       0.00000000       2.59030303       0.00000000       0.00000000       0.36096284
2
Properties=species:S:1:pos:R:3:forces:R:3 energy=-24.06723825357621 pbc="F F F"
Cr       0.00000000       0.00000000       0.00000000       0.00000000       0.00000000       0.80074698
Cr       0.00000000       0.00000000       2.64909091       0.00000000       0.00000000      -0.80074698
2
Properties=species:S:1:pos:R:3:forces:R:3 energy=-24.01301085315576 pbc="F F F"
Cr       0.00000000       0.00000000       0.00000000       0.00000000       0.00000000       0.90361100
Cr       0.00000000       0.00000000       2.70787879       0.00000000       0.00000000      -0.90361100
2
Properties=species:S:1:pos:R:3:forces:R:3 energy=-23.972317023399196 pbc="F F F"
Cr       0.00000000       0.00000000       0.00000000       0.00000000       0.00000000       0.42774394
Cr       0.00000000       0.00000000       2.76666667       0.00000000       0.00000000      -0.42774394
2
Properties=species:S:1:pos:R:3:forces:R:3 energy=-23.96464525694678 pbc="F F F"
Cr       0.00000000       0.00000000       0.00000000       0.00000000       0.00000000      -0.15279970
Cr       0.00000000       0.00000000       2.82545455       0.00000000       0.00000000       0.15279970
2
Properties=species:S:1:pos:R:3:forces:R:3 energy=-23.986311117392976 pbc="F F F"
Cr       0.00000000       0.00000000       0.00000000       0.00000000       0.00000000      -0.53704166
Cr       0.00000000       0.00000000       2.88424242       0.00000000       0.00000000       0.53704166
2
Properties=species:S:1:pos:R:3:forces:R:3 energy=-24.021657394829056 pbc="F F F"
Cr       0.00000000       0.00000000       0.00000000       0.00000000       0.00000000      -0.61365074
Cr       0.00000000       0.00000000       2.94303030       0.00000000       0.00000000       0.61365074
2
Properties=species:S:1:pos:R:3:forces:R:3 energy=-24.053243105015817 pbc="F F F"
Cr       0.00000000       0.00000000       0.00000000       0.00000000       0.00000000      -0.42778775
Cr       0.00000000       0.00000000       3.00181818       0.00000000       0.00000000       0.42778775
2
Properties=species:S:1:pos:R:3:forces:R:3 energy=-24.069741589663415 pbc="F F F"
Cr       0.00000000       0.00000000       0.00000000       0.00000000       0.00000000      -0.12896204
Cr       0.00000000       0.00000000       3.06060606       0.00000000       0.00000000       0.12896204
2
Properties=species:S:1:pos:R:3:forces:R:3 energy=-24.069170485979296 pbc="F F F"
Cr       0.00000000       0.00000000       0.00000000       0.00000000       0.00000000       0.13440816
Cr       0.00000000       0.00000000       3.11939394       0.00000000       0.00000000      -0.13440816
2
Properties=species:S:1:pos:R:3:forces:R:3 energy=-24.055782197166447 pbc="F F F"
Cr       0.00000000       0.00000000       0.00000000       0.00000000       0.00000000       0.30701411
Cr       0.00000000       0.00000000       3.17818182       0.00000000       0.00000000      -0.30701411
2
Properties=species:S:1:pos:R:3:forces:R:3 energy=-24.034200682760126 pbc="F F F"
Cr       0.00000000       0.00000000       0.00000000       0.00000000       0.00000000       0.42236170
Cr       0.00000000       0.00000000       3.23696970       0.00000000       0.00000000      -0.42236170
2
Properties=species:S:1:pos:R:3:forces:R:3 energy=-24.00627209626188 pbc="F F F"
Cr       0.00000000       0.00000000       0.00000000       0.00000000       0.00000000       0.52851993
Cr       0.00000000       0.00000000       3.29575758       0.00000000       0.00000000      -0.52851993
2
Properties=species:S:1:pos:R:3:forces:R:3 energy=-23.972022788924313 pbc="F F F"
Cr       0.00000000       0.00000000       0.00000000       0.00000000       0.00000000       0.63552564
Cr       0.00000000       0.00000000       3.35454545       0.00000000       0.00000000      -0.63552564
2
Properties=species:S:1:pos:R:3:forces:R:3 energy=-23.931923410189867 pbc="F F F"
Cr       0.00000000       0.00000000       0.00000000       0.00000000       0.00000000       0.72359371
Cr       0.00000000       0.00000000       3.41333333       0.00000000       0.00000000      -0.72359371
2
Properties=species:S:1:pos:R:3:forces:R:3 energy=-23.887667221558537 pbc="F F F"
Cr       0.00000000       0.00000000       0.00000000       0.00000000       0.00000000       0.77550995
Cr       0.00000000       0.00000000       3.47212121       0.00000000       0.00000000      -0.77550995
2
Properties=species:S:1:pos:R:3:forces:R:3 energy=-23.84145668959448 pbc="F F F"
Cr       0.00000000       0.00000000       0.00000000       0.00000000       0.00000000       0.79141599
Cr       0.00000000       0.00000000       3.53090909       0.00000000       0.00000000      -0.79141599
2
Properties=species:S:1:pos:R:3:forces:R:3 energy=-23.795099483453527 pbc="F F F"
Cr       0.00000000       0.00000000       0.00000000       0.00000000       0.00000000       0.78259486
Cr       0.00000000       0.00000000       3.58969697       0.00000000       0.00000000      -0.78259486
2
Properties=species:S:1:pos:R:3:forces:R:3 energy=-23.74968799437944 pbc="F F F"
Cr       0.00000000       0.00000000       0.00000000       0.00000000       0.00000000       0.76105613
Cr       0.00000000       0.00000000       3.64848485       0.00000000       0.00000000      -0.76105613
2
Properties=species:S:1:pos:R:3:forces:R:3 energy=-23.705702362624418 pbc="F F F"
Cr       0.00000000       0.00000000       0.00000000       0.00000000       0.00000000       0.73519826
Cr       0.00000000       0.00000000       3.70727273       0.00000000       0.00000000      -0.73519826
2
Properties=species:S:1:pos:R:3:forces:R:3 energy=-23.66322028738259 pbc="F F F"
Cr       0.00000000       0.00000000       0.00000000       0.00000000       0.00000000       0.71066970
Cr       0.00000000       0.00000000       3.76606061       0.00000000       0.00000000      -0.71066970
2
Properties=species:S:1:pos:R:3:forces:R:3 energy=-23.622031474043652 pbc="F F F"
Cr       0.00000000       0.00000000       0.00000000       0.00000000       0.00000000       0.69186896
Cr       0.00000000       0.00000000       3.82484848       0.00000000       0.00000000      -0.69186896
2
Properties=species:S:1:pos:R:3:forces:R:3 energy=-23.58169866618128 pbc="F F F"
Cr       0.00000000       0.00000000       0.00000000       0.00000000       0.00000000       0.68180829
Cr       0.00000000       0.00000000       3.88363636       0.00000000       0.00000000      -0.68180829
2
Properties=species:S:1:pos:R:3:forces:R:3 energy=-23.54168164222119 pbc="F F F"
Cr       0.00000000       0.00000000       0.00000000       0.00000000       0.00000000       0.68107235
Cr       0.00000000       0.00000000       3.94242424       0.00000000       0.00000000      -0.68107235
2
Properties=species:S:1:pos:R:3:forces:R:3 energy=-23.50148408445371 pbc="F F F"
Cr       0.00000000       0.00000000       0.00000000       0.00000000       0.00000000       0.68733966
Cr       0.00000000       0.00000000       4.00121212       0.00000000       0.00000000      -0.68733966
2
Properties=species:S:1:pos:R:3:forces:R:3 energy=-23.46082142412954 pbc="F F F"
Cr       0.00000000       0.00000000       0.00000000       0.00000000       0.00000000       0.69599950
Cr       0.00000000       0.00000000       4.06000000       0.00000000       0.00000000      -0.69599950
2
Properties=species:S:1:pos:R:3:forces:R:3 energy=-23.419714325301424 pbc="F F F"
Cr       0.00000000       0.00000000       0.00000000       0.00000000       0.00000000       0.70143801
Cr       0.00000000       0.00000000       4.11878788       0.00000000       0.00000000      -0.70143801
2
Properties=species:S:1:pos:R:3:forces:R:3 energy=-23.378517288718005 pbc="F F F"
Cr       0.00000000       0.00000000       0.00000000       0.00000000       0.00000000       0.69822973
Cr       0.00000000       0.00000000       4.17757576       0.00000000       0.00000000      -0.69822973
2
Properties=species:S:1:pos:R:3:forces:R:3 energy=-23.33787669648954 pbc="F F F"
Cr       0.00000000       0.00000000       0.00000000       0.00000000       0.00000000       0.68188024
Cr       0.00000000       0.00000000       4.23636364       0.00000000       0.00000000      -0.68188024
2
Properties=species:S:1:pos:R:3:forces:R:3 energy=-23.298667901261254 pbc="F F F"
Cr       0.00000000       0.00000000       0.00000000       0.00000000       0.00000000       0.64913815
Cr       0.00000000       0.00000000       4.29515152       0.00000000       0.00000000      -0.64913815
2
Properties=species:S:1:pos:R:3:forces:R:3 energy=-23.26191319755082 pbc="F F F"
Cr       0.00000000       0.00000000       0.00000000       0.00000000       0.00000000       0.59823769
Cr       0.00000000       0.00000000       4.35393939       0.00000000       0.00000000      -0.59823769
2
Properties=species:S:1:pos:R:3:forces:R:3 energy=-23.228686459068474 pbc="F F F"
Cr       0.00000000       0.00000000       0.00000000       0.00000000       0.00000000       0.52920121
Cr       0.00000000       0.00000000       4.41272727       0.00000000       0.00000000      -0.52920121
2
Properties=species:S:1:pos:R:3:forces:R:3 energy=-23.20000443726794 pbc="F F F"
Cr       0.00000000       0.00000000       0.00000000       0.00000000       0.00000000       0.44425333
Cr       0.00000000       0.00000000       4.47151515       0.00000000       0.00000000      -0.44425333
2
Properties=species:S:1:pos:R:3:forces:R:3 energy=-23.176676077636635 pbc="F F F"
Cr       0.00000000       0.00000000       0.00000000       0.00000000       0.00000000       0.34801722
Cr       0.00000000       0.00000000       4.53030303       0.00000000       0.00000000      -0.34801722
2
Properties=species:S:1:pos:R:3:forces:R:3 energy=-23.159174746344206 pbc="F F F"
Cr       0.00000000       0.00000000       0.00000000       0.00000000       0.00000000       0.24723642
Cr       0.00000000       0.00000000       4.58909091       0.00000000       0.00000000      -0.24723642
2
Properties=species:S:1:pos:R:3:forces:R:3 energy=-23.1475409364553 pbc="F F F"
Cr       0.00000000       0.00000000       0.00000000       0.00000000       0.00000000       0.14985293
Cr       0.00000000       0.00000000       4.64787879       0.00000000       0.00000000      -0.14985293
2
Properties=species:S:1:pos:R:3:forces:R:3 energy=-23.141336513737166 pbc="F F F"
Cr       0.00000000       0.00000000       0.00000000       0.00000000       0.00000000       0.06363213
Cr       0.00000000       0.00000000       4.70666667       0.00000000       0.00000000      -0.06363213
2
Properties=species:S:1:pos:R:3:forces:R:3 energy=-23.13971718323638 pbc="F F F"
Cr       0.00000000       0.00000000       0.00000000       0.00000000       0.00000000      -0.00532155
Cr       0.00000000       0.00000000       4.76545455       0.00000000       0.00000000       0.00532155
2
Properties=species:S:1:pos:R:3:forces:R:3 energy=-23.14155837587255 pbc="F F F"
Cr       0.00000000       0.00000000       0.00000000       0.00000000       0.00000000      -0.05378223
Cr       0.00000000       0.00000000       4.82424242       0.00000000       0.00000000       0.05378223
2
Properties=species:S:1:pos:R:3:forces:R:3 energy=-23.145640254920025 pbc="F F F"
Cr       0.00000000       0.00000000       0.00000000       0.00000000       0.00000000      -0.08191916
Cr       0.00000000       0.00000000       4.88303030       0.00000000       0.00000000       0.08191916
2
Properties=species:S:1:pos:R:3:forces:R:3 energy=-23.150855605921524 pbc="F F F"
Cr       0.00000000       0.00000000       0.00000000       0.00000000       0.00000000      -0.09309058
Cr       0.00000000       0.00000000       4.94181818       0.00000000       0.00000000       0.09309058
2
Properties=species:S:1:pos:R:3:forces:R:3 energy=-23.15636242933047 pbc="F F F"
Cr       0.00000000       0.00000000       0.00000000       0.00000000       0.00000000      -0.09281226
Cr       0.00000000       0.00000000       5.00060606       0.00000000       0.00000000       0.09281226
2
Properties=species:S:1:pos:R:3:forces:R:3 energy=-23.161664026978833 pbc="F F F"
Cr       0.00000000       0.00000000       0.00000000       0.00000000       0.00000000      -0.08714998
Cr       0.00000000       0.00000000       5.05939394       0.00000000       0.00000000       0.08714998
2
Properties=species:S:1:pos:R:3:forces:R:3 energy=-23.166595637965393 pbc="F F F"
Cr       0.00000000       0.00000000       0.00000000       0.00000000       0.00000000      -0.08073549
Cr       0.00000000       0.00000000       5.11818182       0.00000000       0.00000000       0.08073549
2
Properties=species:S:1:pos:R:3:forces:R:3 energy=-23.171171836509934 pbc="F F F"
Cr       0.00000000       0.00000000       0.00000000       0.00000000       0.00000000      -0.07498399
Cr       0.00000000       0.00000000       5.17696970       0.00000000       0.00000000       0.07498399
2
Properties=species:S:1:pos:R:3:forces:R:3 energy=-23.17537861986487 pbc="F F F"
Cr       0.00000000       0.00000000       0.00000000       0.00000000       0.00000000      -0.06741802
Cr       0.00000000       0.00000000       5.23575758       0.00000000       0.00000000       0.06741802
2
Properties=species:S:1:pos:R:3:forces:R:3 energy=-23.178969310924174 pbc="F F F"
Cr       0.00000000       0.00000000       0.00000000       0.00000000       0.00000000      -0.05338688
Cr       0.00000000       0.00000000       5.29454545       0.00000000       0.00000000       0.05338688
2
Properties=species:S:1:pos:R:3:forces:R:3 energy=-23.18149314786202 pbc="F F F"
Cr       0.00000000       0.00000000       0.00000000       0.00000000       0.00000000      -0.03155601
Cr       0.00000000       0.00000000       5.35333333       0.00000000       0.00000000       0.03155601
2
Properties=species:S:1:pos:R:3:forces:R:3 energy=-23.182714867569864 pbc="F F F"
Cr       0.00000000       0.00000000       0.00000000       0.00000000       0.00000000      -0.01192727
Cr       0.00000000       0.00000000       5.41212121       0.00000000       0.00000000       0.01192727
2
Properties=species:S:1:pos:R:3:forces:R:3 energy=-23.183295649709205 pbc="F F F"
Cr       0.00000000       0.00000000       0.00000000       0.00000000       0.00000000      -0.01165985
Cr       0.00000000       0.00000000       5.47090909       0.00000000       0.00000000       0.01165985
2
Properties=species:S:1:pos:R:3:forces:R:3 energy=-23.184287626558298 pbc="F F F"
Cr       0.00000000       0.00000000       0.00000000       0.00000000       0.00000000      -0.02041183
Cr       0.00000000       0.00000000       5.52969697       0.00000000       0.00000000       0.02041183
2
Properties=species:S:1:pos:R:3:forces:R:3 energy=-23.18522271176251 pbc="F F F"
Cr       0.00000000       0.00000000       0.00000000       0.00000000       0.00000000      -0.00716043
Cr       0.00000000       0.00000000       5.58848485       0.00000000       0.00000000       0.00716043
2
Properties=species:S:1:pos:R:3:forces:R:3 energy=-23.184921324074192 pbc="F F F"
Cr       0.00000000       0.00000000       0.00000000       0.00000000       0.00000000       0.01621806
Cr       0.00000000       0.00000000       5.64727273       0.00000000       0.00000000      -0.01621806
2
Properties=species:S:1:pos:R:3:forces:R:3 energy=-23.18371250631524 pbc="F F F"
Cr       0.00000000       0.00000000       0.00000000       0.00000000       0.00000000       0.02050347
Cr       0.00000000       0.00000000       5.70606061       0.00000000       0.00000000      -0.02050347
2
Properties=species:S:1:pos:R:3:forces:R:3 energy=-23.182873164879016 pbc="F F F"
Cr       0.00000000       0.00000000       0.00000000       0.00000000       0.00000000       0.00772606
Cr       0.00000000       0.00000000       5.76484848       0.00000000       0.00000000      -0.00772606
2
Properties=species:S:1:pos:R:3:forces:R:3 energy=-23.18254145250085 pbc="F F F"
Cr       0.00000000       0.00000000       0.00000000       0.00000000       0.00000000       0.00641943
Cr       0.00000000       0.00000000       5.82363636       0.00000000       0.00000000      -0.00641943
2
Properties=species:S:1:pos:R:3:forces:R:3 energy=-23.181995190473245 pbc="F F F"
Cr       0.00000000       0.00000000       0.00000000       0.00000000       0.00000000       0.01119908
Cr       0.00000000       0.00000000       5.88242424       0.00000000       0.00000000      -0.01119908
2
Properties=species:S:1:pos:R:3:forces:R:3 energy=-23.181385683399153 pbc="F F F"
Cr       0.00000000       0.00000000       0.00000000       0.00000000       0.00000000       0.00863970
Cr       0.00000000       0.00000000       5.94121212       0.00000000       0.00000000      -0.00863970
2
Properties=species:S:1:pos:R:3:forces:R:3 energy=-23.180970954746172 pbc="F F F"
Cr       0.00000000       0.00000000       0.00000000       0.00000000       0.00000000       0.00619035
Cr       0.00000000       0.00000000       6.00000000       0.00000000       0.00000000      -0.00619035
