2
Properties=species:S:1:pos:R:3:forces:R:3 energy=4936.386649947123 pbc="F F F"
Cu       0.00000000       0.00000000       0.00000000       0.00000000       0.00000000  -62499.70703125
Cu       0.00000000       0.00000000       0.18000000       0.00000000       0.00000000   62499.70703125
2
Properties=species:S:1:pos:R:3:forces:R:3 energy=2665.9330366658733 pbc="F F F"
Cu       0.00000000       0.00000000       0.00000000       0.00000000       0.00000000  -22707.44335938
Cu       0.00000000       0.00000000       0.23878788       0.00000000       0.00000000   22707.44335938
2
Properties=species:S:1:pos:R:3:forces:R:3 energy=1770.7210005330605 pbc="F F F"
Cu       0.00000000       0.00000000       0.00000000       0.00000000       0.00000000   -9916.05078125
Cu       0.00000000       0.00000000       0.29757576       0.00000000       0.00000000    9916.05078125
2
Properties=species:S:1:pos:R:3:forces:R:3 energy=1346.675468306498 pbc="F F F"
Cu       0.00000000       0.00000000       0.00000000       0.00000000       0.00000000   -5312.34472656
Cu       0.00000000       0.00000000       0.35636364       0.00000000       0.00000000    5312.34472656
2
Properties=species:S:1:pos:R:3:forces:R:3 energy=1080.1521528776025 pbc="F F F"
Cu       0.00000000       0.00000000       0.00000000       0.00000000       0.00000000   -4142.66943359
Cu       0.00000000       0.00000000       0.41515152       0.00000000       0.00000000    4142.66943359
2
Properties=species:S:1:pos:R:3:forces:R:3 energy=831.6198652807382 pbc="F F F"
Cu       0.00000000       0.00000000       0.00000000       0.00000000       0.00000000   -4361.03076172
Cu       0.00000000       0.00000000       0.47393939       0.00000000       0.00000000    4361.03076172
2
Properties=species:S:1:pos:R:3:forces:R:3 energy=572.0040815909159 pbc="F F F"
Cu       0.00000000       0.00000000       0.00000000       0.00000000       0.00000000   -4652.42871094
Cu       0.00000000       0.00000000       0.53272727       0.00000000       0.00000000    4652.42871094
2
Properties=species:S:1:pos:R:3:forces:R:3 energy=324.0432051300319 pbc="F F F"
Cu       0.00000000       0.00000000       0.00000000       0.00000000       0.00000000   -3726.98901367
Cu       0.00000000       0.00000000       0.59151515       0.00000000       0.00000000    3726.98901367
2
Properties=species:S:1:pos:R:3:forces:R:3 energy=151.8648756685941 pbc="F F F"
Cu       0.00000000       0.00000000       0.00000000       0.00000000       0.00000000   -2268.15551758
Cu       0.00000000       0.00000000       0.65030303       0.00000000       0.00000000    2268.15551758
2
Properties=species:S:1:pos:R:3:forces:R:3 energy=66.89463794458005 pbc="F F F"
Cu       0.00000000       0.00000000       0.00000000       0.00000000       0.00000000    -447.03701782
Cu       0.00000000       0.00000000       0.70909091       0.00000000       0.00000000     447.03701782
2
Properties=species:S:1:pos:R:3:forces:R:3 energy=52.87377156400033 pbc="F F F"
Cu       0.00000000       0.00000000       0.00000000       0.00000000       0.00000000      -5.74290705
Cu       0.00000000       0.00000000       0.76787879       0.00000000       0.00000000       5.74290705
2
Properties=species:S:1:pos:R:3:forces:R:3 energy=54.40979758556774 pbc="F F F"
Cu       0.00000000       0.00000000       0.00000000       0.00000000       0.00000000     -19.21890259
Cu       0.00000000       0.00000000       0.82666667       0.00000000       0.00000000      19.21890259
2
Properties=species:S:1:pos:R:3:forces:R:3 energy=49.30538934991798 pbc="F F F"
Cu       0.00000000       0.00000000       0.00000000       0.00000000       0.00000000    -133.68336487
Cu       0.00000000       0.00000000       0.88545455       0.00000000       0.00000000     133.68336487
2
Properties=species:S:1:pos:R:3:forces:R:3 energy=43.34396360826576 pbc="F F F"
Cu       0.00000000       0.00000000       0.00000000       0.00000000       0.00000000     -45.70148087
Cu       0.00000000       0.00000000       0.94424242       0.00000000       0.00000000      45.70148087
2
Properties=species:S:1:pos:R:3:forces:R:3 energy=40.79158786945366 pbc="F F F"
Cu       0.00000000       0.00000000       0.00000000       0.00000000       0.00000000     -67.42034912
Cu       0.00000000       0.00000000       1.00303030       0.00000000       0.00000000      67.42034912
2
Properties=species:S:1:pos:R:3:forces:R:3 energy=34.898914450673885 pbc="F F F"
Cu       0.00000000       0.00000000       0.00000000       0.00000000       0.00000000    -127.16683197
Cu       0.00000000       0.00000000       1.06181818       0.00000000       0.00000000     127.16683197
2
Properties=species:S:1:pos:R:3:forces:R:3 energy=26.669529171315897 pbc="F F F"
Cu       0.00000000       0.00000000       0.00000000       0.00000000       0.00000000    -146.51982117
Cu       0.00000000       0.00000000       1.12060606       0.00000000       0.00000000     146.51982117
2
Properties=species:S:1:pos:R:3:forces:R:3 energy=18.23236117510698 pbc="F F F"
Cu       0.00000000       0.00000000       0.00000000       0.00000000       0.00000000    -137.23822021
Cu       0.00000000       0.00000000       1.17939394       0.00000000       0.00000000     137.23822021
2
Properties=species:S:1:pos:R:3:forces:R:3 energy=10.769881747672148 pbc="F F F"
Cu       0.00000000       0.00000000       0.00000000       0.00000000       0.00000000    -115.64820099
Cu       0.00000000       0.00000000       1.23818182       0.00000000       0.00000000     115.64820099
2
Properties=species:S:1:pos:R:3:forces:R:3 energy=4.677335491359847 pbc="F F F"
Cu       0.00000000       0.00000000       0.00000000       0.00000000       0.00000000     -91.74369812
Cu       0.00000000       0.00000000       1.29696970       0.00000000       0.00000000      91.74369812
2
Properties=species:S:1:pos:R:3:forces:R:3 energy=-0.07683371299006482 pbc="F F F"
Cu       0.00000000       0.00000000       0.00000000       0.00000000       0.00000000     -70.81518555
Cu       0.00000000       0.00000000       1.35575758       0.00000000       0.00000000      70.81518555
2
Properties=species:S:1:pos:R:3:forces:R:3 energy=-3.7562977269143447 pbc="F F F"
Cu       0.00000000       0.00000000       0.00000000       0.00000000       0.00000000     -55.22901154
Cu       0.00000000       0.00000000       1.41454545       0.00000000       0.00000000      55.22901154
2
Properties=species:S:1:pos:R:3:forces:R:3 energy=-6.654207445079826 pbc="F F F"
Cu       0.00000000       0.00000000       0.00000000       0.00000000       0.00000000     -43.91218185
Cu       0.00000000       0.00000000       1.47333333       0.00000000       0.00000000      43.91218185
2
Properties=species:S:1:pos:R:3:forces:R:3 energy=-8.96921130361423 pbc="F F F"
Cu       0.00000000       0.00000000       0.00000000       0.00000000       0.00000000     -35.16997910
Cu       0.00000000       0.00000000       1.53212121       0.00000000       0.00000000      35.16997910
2
Properties=species:S:1:pos:R:3:forces:R:3 energy=-10.819654549674434 pbc="F F F"
Cu       0.00000000       0.00000000       0.00000000       0.00000000       0.00000000     -27.99086761
Cu       0.00000000       0.00000000       1.59090909       0.00000000       0.00000000      27.99086761
2
Properties=species:S:1:pos:R:3:forces:R:3 energy=-12.281053874501596 pbc="F F F"
Cu       0.00000000       0.00000000       0.00000000       0.00000000       0.00000000     -21.88335991
Cu       0.00000000       0.00000000       1.64969697       0.00000000       0.00000000      21.88335991
2
Properties=species:S:1:pos:R:3:forces:R:3 energy=-13.410138584511722 pbc="F F F"
Cu       0.00000000       0.00000000       0.00000000       0.00000000       0.00000000     -16.67581367
Cu       0.00000000       0.00000000       1.70848485       0.00000000       0.00000000      16.67581367
2
Properties=species:S:1:pos:R:3:forces:R:3 energy=-14.258930663158278 pbc="F F F"
Cu       0.00000000       0.00000000       0.00000000       0.00000000       0.00000000     -12.34477901
Cu       0.00000000       0.00000000       1.76727273       0.00000000       0.00000000      12.34477901
2
Properties=species:S:1:pos:R:3:forces:R:3 energy=-14.877839449632623 pbc="F F F"
Cu       0.00000000       0.00000000       0.00000000       0.00000000       0.00000000      -8.84117889
Cu       0.00000000       0.00000000       1.82606061       0.00000000       0.00000000       8.84117889
2
Properties=species:S:1:pos:R:3:forces:R:3 energy=-15.312668076567599 pbc="F F F"
Cu       0.00000000       0.00000000       0.00000000       0.00000000       0.00000000      -6.06380224
Cu       0.00000000       0.00000000       1.88484848       0.00000000       0.00000000       6.06380224
2
Properties=species:S:1:pos:R:3:forces:R:3 energy=-15.60299415005522 pbc="F F F"
Cu       0.00000000       0.00000000       0.00000000       0.00000000       0.00000000      -3.90955997
Cu       0.00000000       0.00000000       1.94363636       0.00000000       0.00000000       3.90955997
2
Properties=species:S:1:pos:R:3:forces:R:3 energy=-15.78288695787407 pbc="F F F"
Cu       0.00000000       0.00000000       0.00000000       0.00000000       0.00000000      -2.29399800
Cu       0.00000000       0.00000000       2.00242424       0.00000000       0.00000000       2.29399800
2
Properties=species:S:1:pos:R:3:forces:R:3 energy=-15.88180781644758 pbc="F F F"
Cu       0.00000000       0.00000000       0.00000000       0.00000000       0.00000000      -1.14247715
Cu       0.00000000       0.00000000       2.06121212       0.00000000       0.00000000       1.14247715
2
Properties=species:S:1:pos:R:3:forces:R:3 energy=-15.924816160323001 pbc="F F F"
Cu       0.00000000       0.00000000       0.00000000       0.00000000       0.00000000      -0.37857592
Cu       0.00000000       0.00000000       2.12000000       0.00000000       0.00000000       0.37857592
2
Properties=species:S:1:pos:R:3:forces:R:3 energy=-15.932298924372876 pbc="F F F"
Cu       0.00000000       0.00000000       0.00000000       0.00000000       0.00000000       0.08030046
Cu       0.00000000       0.00000000       2.17878788       0.00000000       0.00000000      -0.08030046
2
Properties=species:S:1:pos:R:3:forces:R:3 energy=-15.919667669756267 pbc="F F F"
Cu       0.00000000       0.00000000       0.00000000       0.00000000       0.00000000       0.31986764
Cu       0.00000000       0.00000000       2.23757576       0.00000000       0.00000000      -0.31986764
2
Properties=species:S:1:pos:R:3:forces:R:3 energy=-15.89739566301566 pbc="F F F"
Cu       0.00000000       0.00000000       0.00000000       0.00000000       0.00000000       0.42093879
Cu       0.00000000       0.00000000       2.29636364       0.00000000       0.00000000      -0.42093879
2
Properties=species:S:1:pos:R:3:forces:R:3 energy=-15.871554637590199 pbc="F F F"
Cu       0.00000000       0.00000000       0.00000000       0.00000000       0.00000000       0.45107082
Cu       0.00000000       0.00000000       2.35515152       0.00000000       0.00000000      -0.45107082
2
Properties=species:S:1:pos:R:3:forces:R:3 energy=-15.844755994490805 pbc="F F F"
Cu       0.00000000       0.00000000       0.00000000       0.00000000       0.00000000       0.46038458
Cu       0.00000000       0.00000000       2.41393939       0.00000000       0.00000000      -0.46038458
2
Properties=species:S:1:pos:R:3:forces:R:3 energy=-15.81717676926824 pbc="F F F"
Cu       0.00000000       0.00000000       0.00000000       0.00000000       0.00000000       0.48184019
Cu       0.00000000       0.00000000       2.47272727       0.00000000       0.00000000      -0.48184019
2
Properties=species:S:1:pos:R:3:forces:R:3 energy=-15.787505085642001 pbc="F F F"
Cu       0.00000000       0.00000000       0.00000000       0.00000000       0.00000000       0.53347027
Cu       0.00000000       0.00000000       2.53151515       0.00000000       0.00000000      -0.53347027
2
Properties=species:S:1:pos:R:3:forces:R:3 energy=-15.75373892243361 pbc="F F F"
Cu       0.00000000       0.00000000       0.00000000       0.00000000       0.00000000       0.62129366
Cu       0.00000000       0.00000000       2.59030303       0.00000000       0.00000000      -0.62129366
2
Properties=species:S:1:pos:R:3:forces:R:3 energy=-15.713784985777359 pbc="F F F"
Cu       0.00000000       0.00000000       0.00000000       0.00000000       0.00000000       0.74316990
Cu       0.00000000       0.00000000       2.64909091       0.00000000       0.00000000      -0.74316990
2
Properties=species:S:1:pos:R:3:forces:R:3 energy=-15.66583142109805 pbc="F F F"
Cu       0.00000000       0.00000000       0.00000000       0.00000000       0.00000000       0.89179856
Cu       0.00000000       0.00000000       2.70787879       0.00000000       0.00000000      -0.89179856
2
Properties=species:S:1:pos:R:3:forces:R:3 energy=-15.608681337064686 pbc="F F F"
Cu       0.00000000       0.00000000       0.00000000       0.00000000       0.00000000       1.05289590
Cu       0.00000000       0.00000000       2.76666667       0.00000000       0.00000000      -1.05289590
2
Properties=species:S:1:pos:R:3:forces:R:3 energy=-15.5422257126137 pbc="F F F"
Cu       0.00000000       0.00000000       0.00000000       0.00000000       0.00000000       1.20432246
Cu       0.00000000       0.00000000       2.82545455       0.00000000       0.00000000      -1.20432246
2
Properties=species:S:1:pos:R:3:forces:R:3 energy=-15.467723197398378 pbc="F F F"
Cu       0.00000000       0.00000000       0.00000000       0.00000000       0.00000000       1.32325602
Cu       0.00000000       0.00000000       2.88424242       0.00000000       0.00000000      -1.32325602
2
Properties=species:S:1:pos:R:3:forces:R:3 energy=-15.387598550174376 pbc="F F F"
Cu       0.00000000       0.00000000       0.00000000       0.00000000       0.00000000       1.39378607
Cu       0.00000000       0.00000000       2.94303030       0.00000000       0.00000000      -1.39378607
2
Properties=species:S:1:pos:R:3:forces:R:3 energy=-15.30490814020917 pbc="F F F"
Cu       0.00000000       0.00000000       0.00000000       0.00000000       0.00000000       1.41059887
Cu       0.00000000       0.00000000       3.00181818       0.00000000       0.00000000      -1.41059887
2
Properties=species:S:1:pos:R:3:forces:R:3 energy=-15.222690746333404 pbc="F F F"
Cu       0.00000000       0.00000000       0.00000000       0.00000000       0.00000000       1.37949443
Cu       0.00000000       0.00000000       3.06060606       0.00000000       0.00000000      -1.37949443
2
Properties=species:S:1:pos:R:3:forces:R:3 energy=-15.143380407176366 pbc="F F F"
Cu       0.00000000       0.00000000       0.00000000       0.00000000       0.00000000       1.31442356
Cu       0.00000000       0.00000000       3.11939394       0.00000000       0.00000000      -1.31442356
2
Properties=species:S:1:pos:R:3:forces:R:3 energy=-15.068482565965276 pbc="F F F"
Cu       0.00000000       0.00000000       0.00000000       0.00000000       0.00000000       1.23207498
Cu       0.00000000       0.00000000       3.17818182       0.00000000       0.00000000      -1.23207498
2
Properties=species:S:1:pos:R:3:forces:R:3 energy=-14.99857383118758 pbc="F F F"
Cu       0.00000000       0.00000000       0.00000000       0.00000000       0.00000000       1.14671671
Cu       0.00000000       0.00000000       3.23696970       0.00000000       0.00000000      -1.14671671
2
Properties=species:S:1:pos:R:3:forces:R:3 energy=-14.933531340248242 pbc="F F F"
Cu       0.00000000       0.00000000       0.00000000       0.00000000       0.00000000       1.06758916
Cu       0.00000000       0.00000000       3.29575758       0.00000000       0.00000000      -1.06758916
2
Properties=species:S:1:pos:R:3:forces:R:3 energy=-14.872840714382843 pbc="F F F"
Cu       0.00000000       0.00000000       0.00000000       0.00000000       0.00000000       0.99909830
Cu       0.00000000       0.00000000       3.35454545       0.00000000       0.00000000      -0.99909830
2
Properties=species:S:1:pos:R:3:forces:R:3 energy=-14.815828808883895 pbc="F F F"
Cu       0.00000000       0.00000000       0.00000000       0.00000000       0.00000000       0.94245785
Cu       0.00000000       0.00000000       3.41333333       0.00000000       0.00000000      -0.94245785
2
Properties=species:S:1:pos:R:3:forces:R:3 energy=-14.761803528470544 pbc="F F F"
Cu       0.00000000       0.00000000       0.00000000       0.00000000       0.00000000       0.89735723
Cu       0.00000000       0.00000000       3.47212121       0.00000000       0.00000000      -0.89735723
2
Properties=species:S:1:pos:R:3:forces:R:3 energy=-14.710113277422082 pbc="F F F"
Cu       0.00000000       0.00000000       0.00000000       0.00000000       0.00000000       0.86287487
Cu       0.00000000       0.00000000       3.53090909       0.00000000       0.00000000      -0.86287487
2
Properties=species:S:1:pos:R:3:forces:R:3 energy=-14.660168116227045 pbc="F F F"
Cu       0.00000000       0.00000000       0.00000000       0.00000000       0.00000000       0.83769888
Cu       0.00000000       0.00000000       3.58969697       0.00000000       0.00000000      -0.83769888
2
Properties=species:S:1:pos:R:3:forces:R:3 energy=-14.611471369052005 pbc="F F F"
Cu       0.00000000       0.00000000       0.00000000       0.00000000       0.00000000       0.82006907
Cu       0.00000000       0.00000000       3.64848485       0.00000000       0.00000000      -0.82006907
2
Properties=species:S:1:pos:R:3:forces:R:3 energy=-14.563643528163961 pbc="F F F"
Cu       0.00000000       0.00000000       0.00000000       0.00000000       0.00000000       0.80776507
Cu       0.00000000       0.00000000       3.70727273       0.00000000       0.00000000      -0.80776507
2
Properties=species:S:1:pos:R:3:forces:R:3 energy=-14.516442323856594 pbc="F F F"
Cu       0.00000000       0.00000000       0.00000000       0.00000000       0.00000000       0.79829139
Cu       0.00000000       0.00000000       3.76606061       0.00000000       0.00000000      -0.79829139
2
Properties=species:S:1:pos:R:3:forces:R:3 energy=-14.469777082626026 pbc="F F F"
Cu       0.00000000       0.00000000       0.00000000       0.00000000       0.00000000       0.78919190
Cu       0.00000000       0.00000000       3.82484848       0.00000000       0.00000000      -0.78919190
2
Properties=species:S:1:pos:R:3:forces:R:3 energy=-14.423686795829363 pbc="F F F"
Cu       0.00000000       0.00000000       0.00000000       0.00000000       0.00000000       0.77833867
Cu       0.00000000       0.00000000       3.88363636       0.00000000       0.00000000      -0.77833867
2
Properties=species:S:1:pos:R:3:forces:R:3 energy=-14.378329648274153 pbc="F F F"
Cu       0.00000000       0.00000000       0.00000000       0.00000000       0.00000000       0.76410097
Cu       0.00000000       0.00000000       3.94242424       0.00000000       0.00000000      -0.76410097
2
Properties=species:S:1:pos:R:3:forces:R:3 energy=-14.333936323814882 pbc="F F F"
Cu       0.00000000       0.00000000       0.00000000       0.00000000       0.00000000       0.74540013
Cu       0.00000000       0.00000000       4.00121212       0.00000000       0.00000000      -0.74540013
2
Properties=species:S:1:pos:R:3:forces:R:3 energy=-14.290789011054763 pbc="F F F"
Cu       0.00000000       0.00000000       0.00000000       0.00000000       0.00000000       0.72162145
Cu       0.00000000       0.00000000       4.06000000       0.00000000       0.00000000      -0.72162145
2
Properties=species:S:1:pos:R:3:forces:R:3 energy=-14.24919566997831 pbc="F F F"
Cu       0.00000000       0.00000000       0.00000000       0.00000000       0.00000000       0.69251740
Cu       0.00000000       0.00000000       4.11878788       0.00000000       0.00000000      -0.69251740
2
Properties=species:S:1:pos:R:3:forces:R:3 energy=-14.209469070123301 pbc="F F F"
Cu       0.00000000       0.00000000       0.00000000       0.00000000       0.00000000       0.65808517
Cu       0.00000000       0.00000000       4.17757576       0.00000000       0.00000000      -0.65808517
2
Properties=species:S:1:pos:R:3:forces:R:3 energy=-14.171921062991204 pbc="F F F"
Cu       0.00000000       0.00000000       0.00000000       0.00000000       0.00000000       0.61851329
Cu       0.00000000       0.00000000       4.23636364       0.00000000       0.00000000      -0.61851329
2
Properties=species:S:1:pos:R:3:forces:R:3 energy=-14.136839707326818 pbc="F F F"
Cu       0.00000000       0.00000000       0.00000000       0.00000000       0.00000000       0.57417500
Cu       0.00000000       0.00000000       4.29515152       0.00000000       0.00000000      -0.57417500
2
Properties=species:S:1:pos:R:3:forces:R:3 energy=-14.104494040657675 pbc="F F F"
Cu       0.00000000       0.00000000       0.00000000       0.00000000       0.00000000       0.52568555
Cu       0.00000000       0.00000000       4.35393939       0.00000000       0.00000000      -0.52568555
2
Properties=species:S:1:pos:R:3:forces:R:3 energy=-14.075097838086116 pbc="F F F"
Cu       0.00000000       0.00000000       0.00000000       0.00000000       0.00000000       0.47392076
Cu       0.00000000       0.00000000       4.41272727       0.00000000       0.00000000      -0.47392076
2
Properties=species:S:1:pos:R:3:forces:R:3 energy=-14.04881344757739 pbc="F F F"
Cu       0.00000000       0.00000000       0.00000000       0.00000000       0.00000000       0.42003810
Cu       0.00000000       0.00000000       4.47151515       0.00000000       0.00000000      -0.42003810
2
Properties=species:S:1:pos:R:3:forces:R:3 energy=-14.025726021746182 pbc="F F F"
Cu       0.00000000       0.00000000       0.00000000       0.00000000       0.00000000       0.36538494
Cu       0.00000000       0.00000000       4.53030303       0.00000000       0.00000000      -0.36538494
2
Properties=species:S:1:pos:R:3:forces:R:3 energy=-14.00584067108887 pbc="F F F"
Cu       0.00000000       0.00000000       0.00000000       0.00000000       0.00000000       0.31136483
Cu       0.00000000       0.00000000       4.58909091       0.00000000       0.00000000      -0.31136483
2
Properties=species:S:1:pos:R:3:forces:R:3 energy=-13.98907959662492 pbc="F F F"
Cu       0.00000000       0.00000000       0.00000000       0.00000000       0.00000000       0.25928089
Cu       0.00000000       0.00000000       4.64787879       0.00000000       0.00000000      -0.25928089
2
Properties=species:S:1:pos:R:3:forces:R:3 energy=-13.97529640926684 pbc="F F F"
Cu       0.00000000       0.00000000       0.00000000       0.00000000       0.00000000       0.21018767
Cu       0.00000000       0.00000000       4.70666667       0.00000000       0.00000000      -0.21018767
2
Properties=species:S:1:pos:R:3:forces:R:3 energy=-13.964292304269685 pbc="F F F"
Cu       0.00000000       0.00000000       0.00000000       0.00000000       0.00000000       0.16487996
Cu       0.00000000       0.00000000       4.76545455       0.00000000       0.00000000      -0.16487996
2
Properties=species:S:1:pos:R:3:forces:R:3 energy=-13.955824680729872 pbc="F F F"
Cu       0.00000000       0.00000000       0.00000000       0.00000000       0.00000000       0.12393295
Cu       0.00000000       0.00000000       4.82424242       0.00000000       0.00000000      -0.12393295
2
Properties=species:S:1:pos:R:3:forces:R:3 energy=-13.949625232094826 pbc="F F F"
Cu       0.00000000       0.00000000       0.00000000       0.00000000       0.00000000       0.08788386
Cu       0.00000000       0.00000000       4.88303030       0.00000000       0.00000000      -0.08788386
2
Properties=species:S:1:pos:R:3:forces:R:3 energy=-13.945384684998055 pbc="F F F"
Cu       0.00000000       0.00000000       0.00000000       0.00000000       0.00000000       0.05733696
Cu       0.00000000       0.00000000       4.94181818       0.00000000       0.00000000      -0.05733696
2
Properties=species:S:1:pos:R:3:forces:R:3 energy=-13.942760412814568 pbc="F F F"
Cu       0.00000000       0.00000000       0.00000000       0.00000000       0.00000000       0.03305691
Cu       0.00000000       0.00000000       5.00060606       0.00000000       0.00000000      -0.03305691
2
Properties=species:S:1:pos:R:3:forces:R:3 energy=-13.94136119429484 pbc="F F F"
Cu       0.00000000       0.00000000       0.00000000       0.00000000       0.00000000       0.01575216
Cu       0.00000000       0.00000000       5.05939394       0.00000000       0.00000000      -0.01575216
2
Properties=species:S:1:pos:R:3:forces:R:3 energy=-13.940764339312768 pbc="F F F"
Cu       0.00000000       0.00000000       0.00000000       0.00000000       0.00000000       0.00572232
Cu       0.00000000       0.00000000       5.11818182       0.00000000       0.00000000      -0.00572232
2
Properties=species:S:1:pos:R:3:forces:R:3 energy=-13.940556700029104 pbc="F F F"
Cu       0.00000000       0.00000000       0.00000000       0.00000000       0.00000000       0.00236566
Cu       0.00000000       0.00000000       5.17696970       0.00000000       0.00000000      -0.00236566
2
Properties=species:S:1:pos:R:3:forces:R:3 energy=-13.940389985585714 pbc="F F F"
Cu       0.00000000       0.00000000       0.00000000       0.00000000       0.00000000       0.00389921
Cu       0.00000000       0.00000000       5.23575758       0.00000000       0.00000000      -0.00389921
2
Properties=species:S:1:pos:R:3:forces:R:3 energy=-13.9400560699064 pbc="F F F"
Cu       0.00000000       0.00000000       0.00000000       0.00000000       0.00000000       0.00757873
Cu       0.00000000       0.00000000       5.29454545       0.00000000       0.00000000      -0.00757873
2
Properties=species:S:1:pos:R:3:forces:R:3 energy=-13.939510844642182 pbc="F F F"
Cu       0.00000000       0.00000000       0.00000000       0.00000000       0.00000000       0.01073530
Cu       0.00000000       0.00000000       5.35333333       0.00000000       0.00000000      -0.01073530
2
Properties=species:S:1:pos:R:3:forces:R:3 energy=-13.938822704127157 pbc="F F F"
Cu       0.00000000       0.00000000       0.00000000       0.00000000       0.00000000       0.01249781
Cu       0.00000000       0.00000000       5.41212121       0.00000000       0.00000000      -0.01249781
2
Properties=species:S:1:pos:R:3:forces:R:3 energy=-13.938037111350246 pbc="F F F"
Cu       0.00000000       0.00000000       0.00000000       0.00000000       0.00000000       0.01442041
Cu       0.00000000       0.00000000       5.47090909       0.00000000       0.00000000      -0.01442041
2
Properties=species:S:1:pos:R:3:forces:R:3 energy=-13.937105077529184 pbc="F F F"
Cu       0.00000000       0.00000000       0.00000000       0.00000000       0.00000000       0.01734482
Cu       0.00000000       0.00000000       5.52969697       0.00000000       0.00000000      -0.01734482
2
Properties=species:S:1:pos:R:3:forces:R:3 energy=-13.936023339563732 pbc="F F F"
Cu       0.00000000       0.00000000       0.00000000       0.00000000       0.00000000       0.01904059
Cu       0.00000000       0.00000000       5.58848485       0.00000000       0.00000000      -0.01904059
2
Properties=species:S:1:pos:R:3:forces:R:3 energy=-13.934926865256454 pbc="F F F"
Cu       0.00000000       0.00000000       0.00000000       0.00000000       0.00000000       0.01779514
Cu       0.00000000       0.00000000       5.64727273       0.00000000       0.00000000      -0.01779514
2
Properties=species:S:1:pos:R:3:forces:R:3 energy=-13.933968682429269 pbc="F F F"
Cu       0.00000000       0.00000000       0.00000000       0.00000000       0.00000000       0.01464459
Cu       0.00000000       0.00000000       5.70606061       0.00000000       0.00000000      -0.01464459
2
Properties=species:S:1:pos:R:3:forces:R:3 energy=-13.933201637167462 pbc="F F F"
Cu       0.00000000       0.00000000       0.00000000       0.00000000       0.00000000       0.01148020
Cu       0.00000000       0.00000000       5.76484848       0.00000000       0.00000000      -0.01148020
2
Properties=species:S:1:pos:R:3:forces:R:3 energy=-13.932615567319125 pbc="F F F"
Cu       0.00000000       0.00000000       0.00000000       0.00000000       0.00000000       0.00847720
Cu       0.00000000       0.00000000       5.82363636       0.00000000       0.00000000      -0.00847720
2
Properties=species:S:1:pos:R:3:forces:R:3 energy=-13.93220121094966 pbc="F F F"
Cu       0.00000000       0.00000000       0.00000000       0.00000000       0.00000000       0.00576761
Cu       0.00000000       0.00000000       5.88242424       0.00000000       0.00000000      -0.00576761
2
Properties=species:S:1:pos:R:3:forces:R:3 energy=-13.931920646001789 pbc="F F F"
Cu       0.00000000       0.00000000       0.00000000       0.00000000       0.00000000       0.00392901
Cu       0.00000000       0.00000000       5.94121212       0.00000000       0.00000000      -0.00392901
2
Properties=species:S:1:pos:R:3:forces:R:3 energy=-13.931716821890985 pbc="F F F"
Cu       0.00000000       0.00000000       0.00000000       0.00000000       0.00000000       0.00320301
Cu       0.00000000       0.00000000       6.00000000       0.00000000       0.00000000      -0.00320301
