2
Properties=species:S:1:pos:R:3:forces:R:3 energy=2265.1112404793544 pbc="F F F"
H        0.00000000       0.00000000       0.00000000       0.00000000       0.00000000  -16826.86328125
H        0.00000000       0.00000000       0.18000000       0.00000000       0.00000000   16826.86328125
2
Properties=species:S:1:pos:R:3:forces:R:3 energy=426.05719384859407 pbc="F F F"
H        0.00000000       0.00000000       0.00000000       0.00000000       0.00000000  -21060.00976562
H        0.00000000       0.00000000       0.23878788       0.00000000       0.00000000   21060.00976562
2
Properties=species:S:1:pos:R:3:forces:R:3 energy=0.13657483766877357 pbc="F F F"
H        0.00000000       0.00000000       0.00000000       0.00000000       0.00000000     167.41189575
H        0.00000000       0.00000000       0.29757576       0.00000000       0.00000000    -167.41189575
2
Properties=species:S:1:pos:R:3:forces:R:3 energy=1.5210441085729391 pbc="F F F"
H        0.00000000       0.00000000       0.00000000       0.00000000       0.00000000     -38.96581650
H        0.00000000       0.00000000       0.35636364       0.00000000       0.00000000      38.96581650
2
Properties=species:S:1:pos:R:3:forces:R:3 energy=-1.8881998323381508 pbc="F F F"
H        0.00000000       0.00000000       0.00000000       0.00000000       0.00000000     -50.45274353
H        0.00000000       0.00000000       0.41515152       0.00000000       0.00000000      50.45274353
2
Properties=species:S:1:pos:R:3:forces:R:3 energy=-3.9299959197153873 pbc="F F F"
H        0.00000000       0.00000000       0.00000000       0.00000000       0.00000000     -22.18791771
H        0.00000000       0.00000000       0.47393939       0.00000000       0.00000000      22.18791771
2
Properties=species:S:1:pos:R:3:forces:R:3 energy=-5.175805002040209 pbc="F F F"
H        0.00000000       0.00000000       0.00000000       0.00000000       0.00000000     -20.05285072
H        0.00000000       0.00000000       0.53272727       0.00000000       0.00000000      20.05285072
2
Properties=species:S:1:pos:R:3:forces:R:3 energy=-6.1244477964065265 pbc="F F F"
H        0.00000000       0.00000000       0.00000000       0.00000000       0.00000000     -12.06492615
H        0.00000000       0.00000000       0.59151515       0.00000000       0.00000000      12.06492615
2
Properties=species:S:1:pos:R:3:forces:R:3 energy=-6.642141353388283 pbc="F F F"
H        0.00000000       0.00000000       0.00000000       0.00000000       0.00000000      -5.86759472
H        0.00000000       0.00000000       0.65030303       0.00000000       0.00000000       5.86759472
2
Properties=species:S:1:pos:R:3:forces:R:3 energy=-6.836845595249892 pbc="F F F"
H        0.00000000       0.00000000       0.00000000       0.00000000       0.00000000      -1.13496852
H        0.00000000       0.00000000       0.70909091       0.00000000       0.00000000       1.13496852
2
Properties=species:S:1:pos:R:3:forces:R:3 energy=-6.829425630594682 pbc="F F F"
H        0.00000000       0.00000000       0.00000000       0.00000000       0.00000000       1.00549614
H        0.00000000       0.00000000       0.76787879       0.00000000       0.00000000      -1.00549614
2
Properties=species:S:1:pos:R:3:forces:R:3 energy=-6.743306032212035 pbc="F F F"
H        0.00000000       0.00000000       0.00000000       0.00000000       0.00000000       1.90763104
H        0.00000000       0.00000000       0.82666667       0.00000000       0.00000000      -1.90763104
2
Properties=species:S:1:pos:R:3:forces:R:3 energy=-6.595930139679892 pbc="F F F"
H        0.00000000       0.00000000       0.00000000       0.00000000       0.00000000       3.16910648
H        0.00000000       0.00000000       0.88545455       0.00000000       0.00000000      -3.16910648
2
Properties=species:S:1:pos:R:3:forces:R:3 energy=-6.372740877206657 pbc="F F F"
H        0.00000000       0.00000000       0.00000000       0.00000000       0.00000000       4.35167551
H        0.00000000       0.00000000       0.94424242       0.00000000       0.00000000      -4.35167551
2
Properties=species:S:1:pos:R:3:forces:R:3 energy=-6.094545853389018 pbc="F F F"
H        0.00000000       0.00000000       0.00000000       0.00000000       0.00000000       5.02113771
H        0.00000000       0.00000000       1.00303030       0.00000000       0.00000000      -5.02113771
2
Properties=species:S:1:pos:R:3:forces:R:3 energy=-5.7907731043129 pbc="F F F"
H        0.00000000       0.00000000       0.00000000       0.00000000       0.00000000       5.28517342
H        0.00000000       0.00000000       1.06181818       0.00000000       0.00000000      -5.28517342
2
Properties=species:S:1:pos:R:3:forces:R:3 energy=-5.471453763702542 pbc="F F F"
H        0.00000000       0.00000000       0.00000000       0.00000000       0.00000000       5.59852314
H        0.00000000       0.00000000       1.12060606       0.00000000       0.00000000      -5.59852314
2
Properties=species:S:1:pos:R:3:forces:R:3 energy=-5.136509679434229 pbc="F F F"
H        0.00000000       0.00000000       0.00000000       0.00000000       0.00000000       5.69988203
H        0.00000000       0.00000000       1.17939394       0.00000000       0.00000000      -5.69988203
2
Properties=species:S:1:pos:R:3:forces:R:3 energy=-4.815209285041274 pbc="F F F"
H        0.00000000       0.00000000       0.00000000       0.00000000       0.00000000       5.12996578
H        0.00000000       0.00000000       1.23818182       0.00000000       0.00000000      -5.12996578
2
Properties=species:S:1:pos:R:3:forces:R:3 energy=-4.538859609961528 pbc="F F F"
H        0.00000000       0.00000000       0.00000000       0.00000000       0.00000000       4.28278685
H        0.00000000       0.00000000       1.29696970       0.00000000       0.00000000      -4.28278685
2
Properties=species:S:1:pos:R:3:forces:R:3 energy=-4.305427730405016 pbc="F F F"
H        0.00000000       0.00000000       0.00000000       0.00000000       0.00000000       3.73555970
H        0.00000000       0.00000000       1.35575758       0.00000000       0.00000000      -3.73555970
2
Properties=species:S:1:pos:R:3:forces:R:3 energy=-4.090850666989824 pbc="F F F"
H        0.00000000       0.00000000       0.00000000       0.00000000       0.00000000       3.62423325
H        0.00000000       0.00000000       1.41454545       0.00000000       0.00000000      -3.62423325
2
Properties=species:S:1:pos:R:3:forces:R:3 energy=-3.8752529468437205 pbc="F F F"
H        0.00000000       0.00000000       0.00000000       0.00000000       0.00000000       3.71895242
H        0.00000000       0.00000000       1.47333333       0.00000000       0.00000000      -3.71895242
2
Properties=species:S:1:pos:R:3:forces:R:3 energy=-3.655028264992405 pbc="F F F"
H        0.00000000       0.00000000       0.00000000       0.00000000       0.00000000       3.74594855
H        0.00000000       0.00000000       1.53212121       0.00000000       0.00000000      -3.74594855
2
Properties=species:S:1:pos:R:3:forces:R:3 energy=-3.4387630224019636 pbc="F F F"
H        0.00000000       0.00000000       0.00000000       0.00000000       0.00000000       3.57660556
H        0.00000000       0.00000000       1.59090909       0.00000000       0.00000000      -3.57660556
2
Properties=species:S:1:pos:R:3:forces:R:3 energy=-3.238134943059802 pbc="F F F"
H        0.00000000       0.00000000       0.00000000       0.00000000       0.00000000       3.22405100
H        0.00000000       0.00000000       1.64969697       0.00000000       0.00000000      -3.22405100
2
Properties=species:S:1:pos:R:3:forces:R:3 energy=-3.061790488625107 pbc="F F F"
H        0.00000000       0.00000000       0.00000000       0.00000000       0.00000000       2.76450872
H        0.00000000       0.00000000       1.70848485       0.00000000       0.00000000      -2.76450872
2
Properties=species:S:1:pos:R:3:forces:R:3 energy=-2.9136489890555857 pbc="F F F"
H        0.00000000       0.00000000       0.00000000       0.00000000       0.00000000       2.27579832
H        0.00000000       0.00000000       1.76727273       0.00000000       0.00000000      -2.27579832
2
Properties=species:S:1:pos:R:3:forces:R:3 energy=-2.7936934805981446 pbc="F F F"
H        0.00000000       0.00000000       0.00000000       0.00000000       0.00000000       1.81261516
H        0.00000000       0.00000000       1.82606061       0.00000000       0.00000000      -1.81261516
2
Properties=species:S:1:pos:R:3:forces:R:3 energy=-2.699438404226196 pbc="F F F"
H        0.00000000       0.00000000       0.00000000       0.00000000       0.00000000       1.40465474
H        0.00000000       0.00000000       1.88484848       0.00000000       0.00000000      -1.40465474
2
Properties=species:S:1:pos:R:3:forces:R:3 energy=-2.6272332886266105 pbc="F F F"
H        0.00000000       0.00000000       0.00000000       0.00000000       0.00000000       1.06310606
H        0.00000000       0.00000000       1.94363636       0.00000000       0.00000000      -1.06310606
2
Properties=species:S:1:pos:R:3:forces:R:3 energy=-2.573139882549774 pbc="F F F"
H        0.00000000       0.00000000       0.00000000       0.00000000       0.00000000       0.78781891
H        0.00000000       0.00000000       2.00242424       0.00000000       0.00000000      -0.78781891
2
Properties=species:S:1:pos:R:3:forces:R:3 energy=-2.5334235428267013 pbc="F F F"
H        0.00000000       0.00000000       0.00000000       0.00000000       0.00000000       0.57268924
H        0.00000000       0.00000000       2.06121212       0.00000000       0.00000000      -0.57268924
2
Properties=species:S:1:pos:R:3:forces:R:3 energy=-2.5047947488258693 pbc="F F F"
H        0.00000000       0.00000000       0.00000000       0.00000000       0.00000000       0.40911463
H        0.00000000       0.00000000       2.12000000       0.00000000       0.00000000      -0.40911463
2
Properties=species:S:1:pos:R:3:forces:R:3 energy=-2.484490643884138 pbc="F F F"
H        0.00000000       0.00000000       0.00000000       0.00000000       0.00000000       0.28794590
H        0.00000000       0.00000000       2.17878788       0.00000000       0.00000000      -0.28794590
2
Properties=species:S:1:pos:R:3:forces:R:3 energy=-2.4702774186015968 pbc="F F F"
H        0.00000000       0.00000000       0.00000000       0.00000000       0.00000000       0.20056230
H        0.00000000       0.00000000       2.23757576       0.00000000       0.00000000      -0.20056230
2
Properties=species:S:1:pos:R:3:forces:R:3 energy=-2.4603980979646916 pbc="F F F"
H        0.00000000       0.00000000       0.00000000       0.00000000       0.00000000       0.13932054
H        0.00000000       0.00000000       2.29636364       0.00000000       0.00000000      -0.13932054
2
Properties=species:S:1:pos:R:3:forces:R:3 energy=-2.453513176505954 pbc="F F F"
H        0.00000000       0.00000000       0.00000000       0.00000000       0.00000000       0.09771913
H        0.00000000       0.00000000       2.35515152       0.00000000       0.00000000      -0.09771913
2
Properties=species:S:1:pos:R:3:forces:R:3 energy=-2.4486300462065964 pbc="F F F"
H        0.00000000       0.00000000       0.00000000       0.00000000       0.00000000       0.07038888
H        0.00000000       0.00000000       2.41393939       0.00000000       0.00000000      -0.07038888
2
Properties=species:S:1:pos:R:3:forces:R:3 energy=-2.445042677882929 pbc="F F F"
H        0.00000000       0.00000000       0.00000000       0.00000000       0.00000000       0.05302070
H        0.00000000       0.00000000       2.47272727       0.00000000       0.00000000      -0.05302070
2
Properties=species:S:1:pos:R:3:forces:R:3 energy=-2.442267725007159 pbc="F F F"
H        0.00000000       0.00000000       0.00000000       0.00000000       0.00000000       0.04224614
H        0.00000000       0.00000000       2.53151515       0.00000000       0.00000000      -0.04224614
2
Properties=species:S:1:pos:R:3:forces:R:3 energy=-2.439996130279522 pbc="F F F"
H        0.00000000       0.00000000       0.00000000       0.00000000       0.00000000       0.03554526
H        0.00000000       0.00000000       2.59030303       0.00000000       0.00000000      -0.03554526
2
Properties=species:S:1:pos:R:3:forces:R:3 energy=-2.438043291195529 pbc="F F F"
H        0.00000000       0.00000000       0.00000000       0.00000000       0.00000000       0.03114420
H        0.00000000       0.00000000       2.64909091       0.00000000       0.00000000      -0.03114420
2
Properties=species:S:1:pos:R:3:forces:R:3 energy=-2.436311396147116 pbc="F F F"
H        0.00000000       0.00000000       0.00000000       0.00000000       0.00000000       0.02791973
H        0.00000000       0.00000000       2.70787879       0.00000000       0.00000000      -0.02791973
2
Properties=species:S:1:pos:R:3:forces:R:3 energy=-2.434749129801883 pbc="F F F"
H        0.00000000       0.00000000       0.00000000       0.00000000       0.00000000       0.02530218
H        0.00000000       0.00000000       2.76666667       0.00000000       0.00000000      -0.02530218
2
Properties=species:S:1:pos:R:3:forces:R:3 energy=-2.433327599261243 pbc="F F F"
H        0.00000000       0.00000000       0.00000000       0.00000000       0.00000000       0.02315451
H        0.00000000       0.00000000       2.82545455       0.00000000       0.00000000      -0.02315451
2
Properties=species:S:1:pos:R:3:forces:R:3 energy=-2.4320141054428657 pbc="F F F"
H        0.00000000       0.00000000       0.00000000       0.00000000       0.00000000       0.02164307
H        0.00000000       0.00000000       2.88424242       0.00000000       0.00000000      -0.02164307
2
Properties=species:S:1:pos:R:3:forces:R:3 energy=-2.4307638017962194 pbc="F F F"
H        0.00000000       0.00000000       0.00000000       0.00000000       0.00000000       0.02109171
H        0.00000000       0.00000000       2.94303030       0.00000000       0.00000000      -0.02109171
2
Properties=species:S:1:pos:R:3:forces:R:3 energy=-2.4295087290278214 pbc="F F F"
H        0.00000000       0.00000000       0.00000000       0.00000000       0.00000000       0.02184338
H        0.00000000       0.00000000       3.00181818       0.00000000       0.00000000      -0.02184338
2
Properties=species:S:1:pos:R:3:forces:R:3 energy=-2.4281652069681403 pbc="F F F"
H        0.00000000       0.00000000       0.00000000       0.00000000       0.00000000       0.02414719
H        0.00000000       0.00000000       3.06060606       0.00000000       0.00000000      -0.02414719
2
Properties=species:S:1:pos:R:3:forces:R:3 energy=-2.426637412335199 pbc="F F F"
H        0.00000000       0.00000000       0.00000000       0.00000000       0.00000000       0.02808992
H        0.00000000       0.00000000       3.11939394       0.00000000       0.00000000      -0.02808992
2
Properties=species:S:1:pos:R:3:forces:R:3 energy=-2.424831925039744 pbc="F F F"
H        0.00000000       0.00000000       0.00000000       0.00000000       0.00000000       0.03358067
H        0.00000000       0.00000000       3.17818182       0.00000000       0.00000000      -0.03358067
2
Properties=species:S:1:pos:R:3:forces:R:3 energy=-2.4226636854819024 pbc="F F F"
H        0.00000000       0.00000000       0.00000000       0.00000000       0.00000000       0.04038399
H        0.00000000       0.00000000       3.23696970       0.00000000       0.00000000      -0.04038399
2
Properties=species:S:1:pos:R:3:forces:R:3 energy=-2.420064104148679 pbc="F F F"
H        0.00000000       0.00000000       0.00000000       0.00000000       0.00000000       0.04818423
H        0.00000000       0.00000000       3.29575758       0.00000000       0.00000000      -0.04818423
2
Properties=species:S:1:pos:R:3:forces:R:3 energy=-2.4169851137398606 pbc="F F F"
H        0.00000000       0.00000000       0.00000000       0.00000000       0.00000000       0.05665711
H        0.00000000       0.00000000       3.35454545       0.00000000       0.00000000      -0.05665711
2
Properties=species:S:1:pos:R:3:forces:R:3 energy=-2.413394875752694 pbc="F F F"
H        0.00000000       0.00000000       0.00000000       0.00000000       0.00000000       0.06553230
H        0.00000000       0.00000000       3.41333333       0.00000000       0.00000000      -0.06553230
2
Properties=species:S:1:pos:R:3:forces:R:3 energy=-2.4092756341207116 pbc="F F F"
H        0.00000000       0.00000000       0.00000000       0.00000000       0.00000000       0.07463074
H        0.00000000       0.00000000       3.47212121       0.00000000       0.00000000      -0.07463074
2
Properties=species:S:1:pos:R:3:forces:R:3 energy=-2.4046170379096004 pbc="F F F"
H        0.00000000       0.00000000       0.00000000       0.00000000       0.00000000       0.08387754
H        0.00000000       0.00000000       3.53090909       0.00000000       0.00000000      -0.08387754
2
Properties=species:S:1:pos:R:3:forces:R:3 energy=-2.3994104156085148 pbc="F F F"
H        0.00000000       0.00000000       0.00000000       0.00000000       0.00000000       0.09328651
H        0.00000000       0.00000000       3.58969697       0.00000000       0.00000000      -0.09328651
2
Properties=species:S:1:pos:R:3:forces:R:3 energy=-2.3936447193413772 pbc="F F F"
H        0.00000000       0.00000000       0.00000000       0.00000000       0.00000000       0.10292548
H        0.00000000       0.00000000       3.64848485       0.00000000       0.00000000      -0.10292548
2
Properties=species:S:1:pos:R:3:forces:R:3 energy=-2.387303661765048 pbc="F F F"
H        0.00000000       0.00000000       0.00000000       0.00000000       0.00000000       0.11285061
H        0.00000000       0.00000000       3.70727273       0.00000000       0.00000000      -0.11285061
2
Properties=species:S:1:pos:R:3:forces:R:3 energy=-2.3803704797386707 pbc="F F F"
H        0.00000000       0.00000000       0.00000000       0.00000000       0.00000000       0.12303825
H        0.00000000       0.00000000       3.76606061       0.00000000       0.00000000      -0.12303825
2
Properties=species:S:1:pos:R:3:forces:R:3 energy=-2.3728353223792893 pbc="F F F"
H        0.00000000       0.00000000       0.00000000       0.00000000       0.00000000       0.13330851
H        0.00000000       0.00000000       3.82484848       0.00000000       0.00000000      -0.13330851
2
Properties=species:S:1:pos:R:3:forces:R:3 energy=-2.364702639711429 pbc="F F F"
H        0.00000000       0.00000000       0.00000000       0.00000000       0.00000000       0.14329460
H        0.00000000       0.00000000       3.88363636       0.00000000       0.00000000      -0.14329460
2
Properties=species:S:1:pos:R:3:forces:R:3 energy=-2.3560038143970408 pbc="F F F"
H        0.00000000       0.00000000       0.00000000       0.00000000       0.00000000       0.15245399
H        0.00000000       0.00000000       3.94242424       0.00000000       0.00000000      -0.15245399
2
Properties=species:S:1:pos:R:3:forces:R:3 energy=-2.3468066969937467 pbc="F F F"
H        0.00000000       0.00000000       0.00000000       0.00000000       0.00000000       0.16013981
H        0.00000000       0.00000000       4.00121212       0.00000000       0.00000000      -0.16013981
2
Properties=species:S:1:pos:R:3:forces:R:3 energy=-2.337217034585422 pbc="F F F"
H        0.00000000       0.00000000       0.00000000       0.00000000       0.00000000       0.16570854
H        0.00000000       0.00000000       4.06000000       0.00000000       0.00000000      -0.16570854
2
Properties=species:S:1:pos:R:3:forces:R:3 energy=-2.3273758450594992 pbc="F F F"
H        0.00000000       0.00000000       0.00000000       0.00000000       0.00000000       0.16860048
H        0.00000000       0.00000000       4.11878788       0.00000000       0.00000000      -0.16860048
2
Properties=species:S:1:pos:R:3:forces:R:3 energy=-2.31745417293767 pbc="F F F"
H        0.00000000       0.00000000       0.00000000       0.00000000       0.00000000       0.16839749
H        0.00000000       0.00000000       4.17757576       0.00000000       0.00000000      -0.16839749
2
Properties=species:S:1:pos:R:3:forces:R:3 energy=-2.307642597226001 pbc="F F F"
H        0.00000000       0.00000000       0.00000000       0.00000000       0.00000000       0.16481733
H        0.00000000       0.00000000       4.23636364       0.00000000       0.00000000      -0.16481733
2
Properties=species:S:1:pos:R:3:forces:R:3 energy=-2.2981440796990142 pbc="F F F"
H        0.00000000       0.00000000       0.00000000       0.00000000       0.00000000       0.15771729
H        0.00000000       0.00000000       4.29515152       0.00000000       0.00000000      -0.15771729
2
Properties=species:S:1:pos:R:3:forces:R:3 energy=-2.2891670504639103 pbc="F F F"
H        0.00000000       0.00000000       0.00000000       0.00000000       0.00000000       0.14715648
H        0.00000000       0.00000000       4.35393939       0.00000000       0.00000000      -0.14715648
2
Properties=species:S:1:pos:R:3:forces:R:3 energy=-2.2809041893504904 pbc="F F F"
H        0.00000000       0.00000000       0.00000000       0.00000000       0.00000000       0.13348690
H        0.00000000       0.00000000       4.41272727       0.00000000       0.00000000      -0.13348690
2
Properties=species:S:1:pos:R:3:forces:R:3 energy=-2.2735188389229894 pbc="F F F"
H        0.00000000       0.00000000       0.00000000       0.00000000       0.00000000       0.11744894
H        0.00000000       0.00000000       4.47151515       0.00000000       0.00000000      -0.11744894
2
Properties=species:S:1:pos:R:3:forces:R:3 energy=-2.267119968920608 pbc="F F F"
H        0.00000000       0.00000000       0.00000000       0.00000000       0.00000000       0.10013285
H        0.00000000       0.00000000       4.53030303       0.00000000       0.00000000      -0.10013285
2
Properties=species:S:1:pos:R:3:forces:R:3 energy=-2.261745967110447 pbc="F F F"
H        0.00000000       0.00000000       0.00000000       0.00000000       0.00000000       0.08279336
H        0.00000000       0.00000000       4.58909091       0.00000000       0.00000000      -0.08279336
2
Properties=species:S:1:pos:R:3:forces:R:3 energy=-2.2573639250959636 pbc="F F F"
H        0.00000000       0.00000000       0.00000000       0.00000000       0.00000000       0.06652977
H        0.00000000       0.00000000       4.64787879       0.00000000       0.00000000      -0.06652977
2
Properties=species:S:1:pos:R:3:forces:R:3 energy=-2.2538891891601756 pbc="F F F"
H        0.00000000       0.00000000       0.00000000       0.00000000       0.00000000       0.05198901
H        0.00000000       0.00000000       4.70666667       0.00000000       0.00000000      -0.05198901
2
Properties=species:S:1:pos:R:3:forces:R:3 energy=-2.25121611834125 pbc="F F F"
H        0.00000000       0.00000000       0.00000000       0.00000000       0.00000000       0.03923084
H        0.00000000       0.00000000       4.76545455       0.00000000       0.00000000      -0.03923084
2
Properties=species:S:1:pos:R:3:forces:R:3 energy=-2.2492502719553737 pbc="F F F"
H        0.00000000       0.00000000       0.00000000       0.00000000       0.00000000       0.02780601
H        0.00000000       0.00000000       4.82424242       0.00000000       0.00000000      -0.02780601
2
Properties=species:S:1:pos:R:3:forces:R:3 energy=-2.2479332063911612 pbc="F F F"
H        0.00000000       0.00000000       0.00000000       0.00000000       0.00000000       0.01707454
H        0.00000000       0.00000000       4.88303030       0.00000000       0.00000000      -0.01707454
2
Properties=species:S:1:pos:R:3:forces:R:3 energy=-2.247237945527879 pbc="F F F"
H        0.00000000       0.00000000       0.00000000       0.00000000       0.00000000       0.00661895
H        0.00000000       0.00000000       4.94181818       0.00000000       0.00000000      -0.00661895
2
Properties=species:S:1:pos:R:3:forces:R:3 energy=-2.247145855519195 pbc="F F F"
H        0.00000000       0.00000000       0.00000000       0.00000000       0.00000000      -0.00334398
H        0.00000000       0.00000000       5.00060606       0.00000000       0.00000000       0.00334398
2
Properties=species:S:1:pos:R:3:forces:R:3 energy=-2.247601823238745 pbc="F F F"
H        0.00000000       0.00000000       0.00000000       0.00000000       0.00000000      -0.01179102
H        0.00000000       0.00000000       5.05939394       0.00000000       0.00000000       0.01179102
2
Properties=species:S:1:pos:R:3:forces:R:3 energy=-2.2484708639502435 pbc="F F F"
H        0.00000000       0.00000000       0.00000000       0.00000000       0.00000000      -0.01709393
H        0.00000000       0.00000000       5.11818182       0.00000000       0.00000000       0.01709393
2
Properties=species:S:1:pos:R:3:forces:R:3 energy=-2.2495192872791754 pbc="F F F"
H        0.00000000       0.00000000       0.00000000       0.00000000       0.00000000      -0.01771406
H        0.00000000       0.00000000       5.17696970       0.00000000       0.00000000       0.01771406
2
Properties=species:S:1:pos:R:3:forces:R:3 energy=-2.250451175898865 pbc="F F F"
H        0.00000000       0.00000000       0.00000000       0.00000000       0.00000000      -0.01318108
H        0.00000000       0.00000000       5.23575758       0.00000000       0.00000000       0.01318108
2
Properties=species:S:1:pos:R:3:forces:R:3 energy=-2.2509932623218947 pbc="F F F"
H        0.00000000       0.00000000       0.00000000       0.00000000       0.00000000      -0.00483623
H        0.00000000       0.00000000       5.29454545       0.00000000       0.00000000       0.00483623
2
Properties=species:S:1:pos:R:3:forces:R:3 energy=-2.2510055560612603 pbc="F F F"
H        0.00000000       0.00000000       0.00000000       0.00000000       0.00000000       0.00420950
H        0.00000000       0.00000000       5.35333333       0.00000000       0.00000000      -0.00420950
2
Properties=species:S:1:pos:R:3:forces:R:3 energy=-2.250564790145427 pbc="F F F"
H        0.00000000       0.00000000       0.00000000       0.00000000       0.00000000       0.00986902
H        0.00000000       0.00000000       5.41212121       0.00000000       0.00000000      -0.00986902
2
Properties=species:S:1:pos:R:3:forces:R:3 energy=-2.2499803951507564 pbc="F F F"
H        0.00000000       0.00000000       0.00000000       0.00000000       0.00000000       0.00882845
H        0.00000000       0.00000000       5.47090909       0.00000000       0.00000000      -0.00882845
2
Properties=species:S:1:pos:R:3:forces:R:3 energy=-2.249601618917493 pbc="F F F"
H        0.00000000       0.00000000       0.00000000       0.00000000       0.00000000       0.00441010
H        0.00000000       0.00000000       5.52969697       0.00000000       0.00000000      -0.00441010
2
Properties=species:S:1:pos:R:3:forces:R:3 energy=-2.2492848997039134 pbc="F F F"
H        0.00000000       0.00000000       0.00000000       0.00000000       0.00000000       0.00856225
H        0.00000000       0.00000000       5.58848485       0.00000000       0.00000000      -0.00856225
2
Properties=species:S:1:pos:R:3:forces:R:3 energy=-2.248407694166929 pbc="F F F"
H        0.00000000       0.00000000       0.00000000       0.00000000       0.00000000       0.02153281
H        0.00000000       0.00000000       5.64727273       0.00000000       0.00000000      -0.02153281
2
Properties=species:S:1:pos:R:3:forces:R:3 energy=-2.246920141825873 pbc="F F F"
H        0.00000000       0.00000000       0.00000000       0.00000000       0.00000000       0.02639968
H        0.00000000       0.00000000       5.70606061       0.00000000       0.00000000      -0.02639968
2
Properties=species:S:1:pos:R:3:forces:R:3 energy=-2.24561829312538 pbc="F F F"
H        0.00000000       0.00000000       0.00000000       0.00000000       0.00000000       0.01589712
H        0.00000000       0.00000000       5.76484848       0.00000000       0.00000000      -0.01589712
2
Properties=species:S:1:pos:R:3:forces:R:3 energy=-2.245097689895729 pbc="F F F"
H        0.00000000       0.00000000       0.00000000       0.00000000       0.00000000       0.00276227
H        0.00000000       0.00000000       5.82363636       0.00000000       0.00000000      -0.00276227
2
Properties=species:S:1:pos:R:3:forces:R:3 energy=-2.2451144035237327 pbc="F F F"
H        0.00000000       0.00000000       0.00000000       0.00000000       0.00000000      -0.00183953
H        0.00000000       0.00000000       5.88242424       0.00000000       0.00000000       0.00183953
2
Properties=species:S:1:pos:R:3:forces:R:3 energy=-2.2452034930624682 pbc="F F F"
H        0.00000000       0.00000000       0.00000000       0.00000000       0.00000000      -0.00081635
H        0.00000000       0.00000000       5.94121212       0.00000000       0.00000000       0.00081635
2
Properties=species:S:1:pos:R:3:forces:R:3 energy=-2.2452164003311568 pbc="F F F"
H        0.00000000       0.00000000       0.00000000       0.00000000       0.00000000       0.00008987
H        0.00000000       0.00000000       6.00000000       0.00000000       0.00000000      -0.00008987
