2
Properties=species:S:1:pos:R:3:forces:R:3 energy=-136478.2617596369 pbc="F F F"
Ir       0.00000000       0.00000000       0.00000000       0.00000000       0.00000000 -2087652.12500000
Ir       0.00000000       0.00000000       0.10000000       0.00000000       0.00000000 2087652.12500000
2
Properties=species:S:1:pos:R:3:forces:R:3 energy=-195077.3711346369 pbc="F F F"
Ir       0.00000000       0.00000000       0.00000000       0.00000000       0.00000000 -381773.46875000
Ir       0.00000000       0.00000000       0.15959596       0.00000000       0.00000000  381773.46875000
2
Properties=species:S:1:pos:R:3:forces:R:3 energy=-204249.4648846369 pbc="F F F"
Ir       0.00000000       0.00000000       0.00000000       0.00000000       0.00000000   16271.80371094
Ir       0.00000000       0.00000000       0.21919192       0.00000000       0.00000000  -16271.80371094
2
Properties=species:S:1:pos:R:3:forces:R:3 energy=-195516.7773846369 pbc="F F F"
Ir       0.00000000       0.00000000       0.00000000       0.00000000       0.00000000  275377.09375000
Ir       0.00000000       0.00000000       0.27878788       0.00000000       0.00000000 -275377.09375000
2
Properties=species:S:1:pos:R:3:forces:R:3 energy=-171023.94925963532 pbc="F F F"
Ir       0.00000000       0.00000000       0.00000000       0.00000000       0.00000000  549160.12500000
Ir       0.00000000       0.00000000       0.33838384       0.00000000       0.00000000 -549160.12500000
2
Properties=species:S:1:pos:R:3:forces:R:3 energy=-130619.85550963531 pbc="F F F"
Ir       0.00000000       0.00000000       0.00000000       0.00000000       0.00000000  791356.00000000
Ir       0.00000000       0.00000000       0.39797980       0.00000000       0.00000000 -791356.00000000
2
Properties=species:S:1:pos:R:3:forces:R:3 energy=-80171.84769713531 pbc="F F F"
Ir       0.00000000       0.00000000       0.00000000       0.00000000       0.00000000  859548.31250000
Ir       0.00000000       0.00000000       0.45757576       0.00000000       0.00000000 -859548.31250000
2
Properties=species:S:1:pos:R:3:forces:R:3 energy=-27336.693400257143 pbc="F F F"
Ir       0.00000000       0.00000000       0.00000000       0.00000000       0.00000000  872635.62500000
Ir       0.00000000       0.00000000       0.51717172       0.00000000       0.00000000 -872635.62500000
2
Properties=species:S:1:pos:R:3:forces:R:3 energy=3230.2641192756905 pbc="F F F"
Ir       0.00000000       0.00000000       0.00000000       0.00000000       0.00000000  215155.81250000
Ir       0.00000000       0.00000000       0.57676768       0.00000000       0.00000000 -215155.81250000
2
Properties=species:S:1:pos:R:3:forces:R:3 energy=4768.3710528757765 pbc="F F F"
Ir       0.00000000       0.00000000       0.00000000       0.00000000       0.00000000  -84195.81250000
Ir       0.00000000       0.00000000       0.63636364       0.00000000       0.00000000   84195.81250000
2
Properties=species:S:1:pos:R:3:forces:R:3 energy=848.0879718298004 pbc="F F F"
Ir       0.00000000       0.00000000       0.00000000       0.00000000       0.00000000  -35184.86718750
Ir       0.00000000       0.00000000       0.69595960       0.00000000       0.00000000   35184.86718750
2
Properties=species:S:1:pos:R:3:forces:R:3 energy=-0.55932124755673 pbc="F F F"
Ir       0.00000000       0.00000000       0.00000000       0.00000000       0.00000000    2603.15991211
Ir       0.00000000       0.00000000       0.75555556       0.00000000       0.00000000   -2603.15991211
2
Properties=species:S:1:pos:R:3:forces:R:3 energy=28.22885626326849 pbc="F F F"
Ir       0.00000000       0.00000000       0.00000000       0.00000000       0.00000000    -177.74511719
Ir       0.00000000       0.00000000       0.81515152       0.00000000       0.00000000     177.74511719
2
Properties=species:S:1:pos:R:3:forces:R:3 energy=3.1327030325015444 pbc="F F F"
Ir       0.00000000       0.00000000       0.00000000       0.00000000       0.00000000    -604.56872559
Ir       0.00000000       0.00000000       0.87474747       0.00000000       0.00000000     604.56872559
2
Properties=species:S:1:pos:R:3:forces:R:3 energy=-39.464411490888956 pbc="F F F"
Ir       0.00000000       0.00000000       0.00000000       0.00000000       0.00000000    -780.57373047
Ir       0.00000000       0.00000000       0.93434343       0.00000000       0.00000000     780.57373047
2
Properties=species:S:1:pos:R:3:forces:R:3 energy=-85.63451641433691 pbc="F F F"
Ir       0.00000000       0.00000000       0.00000000       0.00000000       0.00000000    -754.40393066
Ir       0.00000000       0.00000000       0.99393939       0.00000000       0.00000000     754.40393066
2
Properties=species:S:1:pos:R:3:forces:R:3 energy=-88.39000187376911 pbc="F F F"
Ir       0.00000000       0.00000000       0.00000000       0.00000000       0.00000000     140.77427673
Ir       0.00000000       0.00000000       1.05353535       0.00000000       0.00000000    -140.77427673
2
Properties=species:S:1:pos:R:3:forces:R:3 energy=-82.4571557022709 pbc="F F F"
Ir       0.00000000       0.00000000       0.00000000       0.00000000       0.00000000      53.49829865
Ir       0.00000000       0.00000000       1.11313131       0.00000000       0.00000000     -53.49829865
2
Properties=species:S:1:pos:R:3:forces:R:3 energy=-81.01964793982783 pbc="F F F"
Ir       0.00000000       0.00000000       0.00000000       0.00000000       0.00000000       1.14714193
Ir       0.00000000       0.00000000       1.17272727       0.00000000       0.00000000      -1.14714193
2
Properties=species:S:1:pos:R:3:forces:R:3 energy=-82.35255639913653 pbc="F F F"
Ir       0.00000000       0.00000000       0.00000000       0.00000000       0.00000000     -34.48759079
Ir       0.00000000       0.00000000       1.23232323       0.00000000       0.00000000      34.48759079
2
Properties=species:S:1:pos:R:3:forces:R:3 energy=-83.79671664119064 pbc="F F F"
Ir       0.00000000       0.00000000       0.00000000       0.00000000       0.00000000     -11.53779602
Ir       0.00000000       0.00000000       1.29191919       0.00000000       0.00000000      11.53779602
2
Properties=species:S:1:pos:R:3:forces:R:3 energy=-84.00689855315565 pbc="F F F"
Ir       0.00000000       0.00000000       0.00000000       0.00000000       0.00000000       1.35432422
Ir       0.00000000       0.00000000       1.35151515       0.00000000       0.00000000      -1.35432422
2
Properties=species:S:1:pos:R:3:forces:R:3 energy=-83.8975537246492 pbc="F F F"
Ir       0.00000000       0.00000000       0.00000000       0.00000000       0.00000000       0.55260557
Ir       0.00000000       0.00000000       1.41111111       0.00000000       0.00000000      -0.55260557
2
Properties=species:S:1:pos:R:3:forces:R:3 energy=-84.12779316278142 pbc="F F F"
Ir       0.00000000       0.00000000       0.00000000       0.00000000       0.00000000      -9.20311451
Ir       0.00000000       0.00000000       1.47070707       0.00000000       0.00000000       9.20311451
2
Properties=species:S:1:pos:R:3:forces:R:3 energy=-84.99520901717496 pbc="F F F"
Ir       0.00000000       0.00000000       0.00000000       0.00000000       0.00000000     -19.27987671
Ir       0.00000000       0.00000000       1.53030303       0.00000000       0.00000000      19.27987671
2
Properties=species:S:1:pos:R:3:forces:R:3 energy=-86.33964502753443 pbc="F F F"
Ir       0.00000000       0.00000000       0.00000000       0.00000000       0.00000000     -25.21295357
Ir       0.00000000       0.00000000       1.58989899       0.00000000       0.00000000      25.21295357
2
Properties=species:S:1:pos:R:3:forces:R:3 energy=-87.93886454551189 pbc="F F F"
Ir       0.00000000       0.00000000       0.00000000       0.00000000       0.00000000     -27.97252083
Ir       0.00000000       0.00000000       1.64949495       0.00000000       0.00000000      27.97252083
2
Properties=species:S:1:pos:R:3:forces:R:3 energy=-89.61105911130697 pbc="F F F"
Ir       0.00000000       0.00000000       0.00000000       0.00000000       0.00000000     -27.58085060
Ir       0.00000000       0.00000000       1.70909091       0.00000000       0.00000000      27.58085060
2
Properties=species:S:1:pos:R:3:forces:R:3 energy=-91.16262524018096 pbc="F F F"
Ir       0.00000000       0.00000000       0.00000000       0.00000000       0.00000000     -24.04285431
Ir       0.00000000       0.00000000       1.76868687       0.00000000       0.00000000      24.04285431
2
Properties=species:S:1:pos:R:3:forces:R:3 energy=-92.44070048388407 pbc="F F F"
Ir       0.00000000       0.00000000       0.00000000       0.00000000       0.00000000     -18.69573212
Ir       0.00000000       0.00000000       1.82828283       0.00000000       0.00000000      18.69573212
2
Properties=species:S:1:pos:R:3:forces:R:3 energy=-93.38743899245206 pbc="F F F"
Ir       0.00000000       0.00000000       0.00000000       0.00000000       0.00000000     -13.13658142
Ir       0.00000000       0.00000000       1.88787879       0.00000000       0.00000000      13.13658142
2
Properties=species:S:1:pos:R:3:forces:R:3 energy=-94.01927492282445 pbc="F F F"
Ir       0.00000000       0.00000000       0.00000000       0.00000000       0.00000000      -8.21041107
Ir       0.00000000       0.00000000       1.94747475       0.00000000       0.00000000       8.21041107
2
Properties=species:S:1:pos:R:3:forces:R:3 energy=-94.38882903350903 pbc="F F F"
Ir       0.00000000       0.00000000       0.00000000       0.00000000       0.00000000      -4.43479538
Ir       0.00000000       0.00000000       2.00707071       0.00000000       0.00000000       4.43479538
2
Properties=species:S:1:pos:R:3:forces:R:3 energy=-94.57908007108212 pbc="F F F"
Ir       0.00000000       0.00000000       0.00000000       0.00000000       0.00000000      -2.19655514
Ir       0.00000000       0.00000000       2.06666667       0.00000000       0.00000000       2.19655514
2
Properties=species:S:1:pos:R:3:forces:R:3 energy=-94.67401486560593 pbc="F F F"
Ir       0.00000000       0.00000000       0.00000000       0.00000000       0.00000000      -1.11890948
Ir       0.00000000       0.00000000       2.12626263       0.00000000       0.00000000       1.11890948
2
Properties=species:S:1:pos:R:3:forces:R:3 energy=-94.71821604076995 pbc="F F F"
Ir       0.00000000       0.00000000       0.00000000       0.00000000       0.00000000      -0.34004122
Ir       0.00000000       0.00000000       2.18585859       0.00000000       0.00000000       0.34004122
2
Properties=species:S:1:pos:R:3:forces:R:3 energy=-94.70826454235824 pbc="F F F"
Ir       0.00000000       0.00000000       0.00000000       0.00000000       0.00000000       0.71703148
Ir       0.00000000       0.00000000       2.24545455       0.00000000       0.00000000      -0.71703148
2
Properties=species:S:1:pos:R:3:forces:R:3 energy=-94.63346678444852 pbc="F F F"
Ir       0.00000000       0.00000000       0.00000000       0.00000000       0.00000000       1.73765254
Ir       0.00000000       0.00000000       2.30505051       0.00000000       0.00000000      -1.73765254
2
Properties=species:S:1:pos:R:3:forces:R:3 energy=-94.50796127987955 pbc="F F F"
Ir       0.00000000       0.00000000       0.00000000       0.00000000       0.00000000       2.46595049
Ir       0.00000000       0.00000000       2.36464646       0.00000000       0.00000000      -2.46595049
2
Properties=species:S:1:pos:R:3:forces:R:3 energy=-94.33055304824221 pbc="F F F"
Ir       0.00000000       0.00000000       0.00000000       0.00000000       0.00000000       3.60217929
Ir       0.00000000       0.00000000       2.42424242       0.00000000       0.00000000      -3.60217929
2
Properties=species:S:1:pos:R:3:forces:R:3 energy=-94.08026104068917 pbc="F F F"
Ir       0.00000000       0.00000000       0.00000000       0.00000000       0.00000000       4.54777861
Ir       0.00000000       0.00000000       2.48383838       0.00000000       0.00000000      -4.54777861
2
Properties=species:S:1:pos:R:3:forces:R:3 energy=-93.84123853323972 pbc="F F F"
Ir       0.00000000       0.00000000       0.00000000       0.00000000       0.00000000       3.02585626
Ir       0.00000000       0.00000000       2.54343434       0.00000000       0.00000000      -3.02585626
2
Properties=species:S:1:pos:R:3:forces:R:3 energy=-93.73958813286264 pbc="F F F"
Ir       0.00000000       0.00000000       0.00000000       0.00000000       0.00000000       0.54367417
Ir       0.00000000       0.00000000       2.60303030       0.00000000       0.00000000      -0.54367417
2
Properties=species:S:1:pos:R:3:forces:R:3 energy=-93.7385551654537 pbc="F F F"
Ir       0.00000000       0.00000000       0.00000000       0.00000000       0.00000000      -0.18357800
Ir       0.00000000       0.00000000       2.66262626       0.00000000       0.00000000       0.18357800
2
Properties=species:S:1:pos:R:3:forces:R:3 energy=-93.73467571965742 pbc="F F F"
Ir       0.00000000       0.00000000       0.00000000       0.00000000       0.00000000       0.44518399
Ir       0.00000000       0.00000000       2.72222222       0.00000000       0.00000000      -0.44518399
2
Properties=species:S:1:pos:R:3:forces:R:3 energy=-93.67577985274028 pbc="F F F"
Ir       0.00000000       0.00000000       0.00000000       0.00000000       0.00000000       1.58142102
Ir       0.00000000       0.00000000       2.78181818       0.00000000       0.00000000      -1.58142102
2
Properties=species:S:1:pos:R:3:forces:R:3 energy=-93.54356990769561 pbc="F F F"
Ir       0.00000000       0.00000000       0.00000000       0.00000000       0.00000000       2.84312296
Ir       0.00000000       0.00000000       2.84141414       0.00000000       0.00000000      -2.84312296
2
Properties=species:S:1:pos:R:3:forces:R:3 energy=-93.34303410630538 pbc="F F F"
Ir       0.00000000       0.00000000       0.00000000       0.00000000       0.00000000       3.80131364
Ir       0.00000000       0.00000000       2.90101010       0.00000000       0.00000000      -3.80131364
2
Properties=species:S:1:pos:R:3:forces:R:3 energy=-93.10257690128854 pbc="F F F"
Ir       0.00000000       0.00000000       0.00000000       0.00000000       0.00000000       4.16619682
Ir       0.00000000       0.00000000       2.96060606       0.00000000       0.00000000      -4.16619682
2
Properties=species:S:1:pos:R:3:forces:R:3 energy=-92.85645627420664 pbc="F F F"
Ir       0.00000000       0.00000000       0.00000000       0.00000000       0.00000000       4.03386736
Ir       0.00000000       0.00000000       3.02020202       0.00000000       0.00000000      -4.03386736
2
Properties=species:S:1:pos:R:3:forces:R:3 energy=-92.62583906751955 pbc="F F F"
Ir       0.00000000       0.00000000       0.00000000       0.00000000       0.00000000       3.69359779
Ir       0.00000000       0.00000000       3.07979798       0.00000000       0.00000000      -3.69359779
2
Properties=species:S:1:pos:R:3:forces:R:3 energy=-92.41591614747497 pbc="F F F"
Ir       0.00000000       0.00000000       0.00000000       0.00000000       0.00000000       3.36319113
Ir       0.00000000       0.00000000       3.13939394       0.00000000       0.00000000      -3.36319113
2
Properties=species:S:1:pos:R:3:forces:R:3 energy=-92.2232091500667 pbc="F F F"
Ir       0.00000000       0.00000000       0.00000000       0.00000000       0.00000000       3.11819673
Ir       0.00000000       0.00000000       3.19898990       0.00000000       0.00000000      -3.11819673
2
Properties=species:S:1:pos:R:3:forces:R:3 energy=-92.04300311739398 pbc="F F F"
Ir       0.00000000       0.00000000       0.00000000       0.00000000       0.00000000       2.93493605
Ir       0.00000000       0.00000000       3.25858586       0.00000000       0.00000000      -2.93493605
2
Properties=species:S:1:pos:R:3:forces:R:3 energy=-91.87332946451106 pbc="F F F"
Ir       0.00000000       0.00000000       0.00000000       0.00000000       0.00000000       2.75520706
Ir       0.00000000       0.00000000       3.31818182       0.00000000       0.00000000      -2.75520706
2
Properties=species:S:1:pos:R:3:forces:R:3 energy=-91.71537813779423 pbc="F F F"
Ir       0.00000000       0.00000000       0.00000000       0.00000000       0.00000000       2.53770089
Ir       0.00000000       0.00000000       3.37777778       0.00000000       0.00000000      -2.53770089
2
Properties=species:S:1:pos:R:3:forces:R:3 energy=-91.57170470247529 pbc="F F F"
Ir       0.00000000       0.00000000       0.00000000       0.00000000       0.00000000       2.27852964
Ir       0.00000000       0.00000000       3.43737374       0.00000000       0.00000000      -2.27852964
2
Properties=species:S:1:pos:R:3:forces:R:3 energy=-91.44417043462849 pbc="F F F"
Ir       0.00000000       0.00000000       0.00000000       0.00000000       0.00000000       2.00089145
Ir       0.00000000       0.00000000       3.49696970       0.00000000       0.00000000      -2.00089145
2
Properties=species:S:1:pos:R:3:forces:R:3 energy=-91.33300391673059 pbc="F F F"
Ir       0.00000000       0.00000000       0.00000000       0.00000000       0.00000000       1.73334897
Ir       0.00000000       0.00000000       3.55656566       0.00000000       0.00000000      -1.73334897
2
Properties=species:S:1:pos:R:3:forces:R:3 energy=-91.2369612470264 pbc="F F F"
Ir       0.00000000       0.00000000       0.00000000       0.00000000       0.00000000       1.49586511
Ir       0.00000000       0.00000000       3.61616162       0.00000000       0.00000000      -1.49586511
2
Properties=species:S:1:pos:R:3:forces:R:3 energy=-91.15393638633964 pbc="F F F"
Ir       0.00000000       0.00000000       0.00000000       0.00000000       0.00000000       1.29727256
Ir       0.00000000       0.00000000       3.67575758       0.00000000       0.00000000      -1.29727256
2
Properties=species:S:1:pos:R:3:forces:R:3 energy=-91.08154865154606 pbc="F F F"
Ir       0.00000000       0.00000000       0.00000000       0.00000000       0.00000000       1.13819194
Ir       0.00000000       0.00000000       3.73535354       0.00000000       0.00000000      -1.13819194
2
Properties=species:S:1:pos:R:3:forces:R:3 energy=-91.01756993632469 pbc="F F F"
Ir       0.00000000       0.00000000       0.00000000       0.00000000       0.00000000       1.01436734
Ir       0.00000000       0.00000000       3.79494949       0.00000000       0.00000000      -1.01436734
2
Properties=species:S:1:pos:R:3:forces:R:3 energy=-90.96007730221623 pbc="F F F"
Ir       0.00000000       0.00000000       0.00000000       0.00000000       0.00000000       0.91921705
Ir       0.00000000       0.00000000       3.85454545       0.00000000       0.00000000      -0.91921705
2
Properties=species:S:1:pos:R:3:forces:R:3 energy=-90.90757507586208 pbc="F F F"
Ir       0.00000000       0.00000000       0.00000000       0.00000000       0.00000000       0.84587395
Ir       0.00000000       0.00000000       3.91414141       0.00000000       0.00000000      -0.84587395
2
Properties=species:S:1:pos:R:3:forces:R:3 energy=-90.85893380117678 pbc="F F F"
Ir       0.00000000       0.00000000       0.00000000       0.00000000       0.00000000       0.78855389
Ir       0.00000000       0.00000000       3.97373737       0.00000000       0.00000000      -0.78855389
2
Properties=species:S:1:pos:R:3:forces:R:3 energy=-90.81335208603969 pbc="F F F"
Ir       0.00000000       0.00000000       0.00000000       0.00000000       0.00000000       0.74292696
Ir       0.00000000       0.00000000       4.03333333       0.00000000       0.00000000      -0.74292696
2
Properties=species:S:1:pos:R:3:forces:R:3 energy=-90.77021929853608 pbc="F F F"
Ir       0.00000000       0.00000000       0.00000000       0.00000000       0.00000000       0.70557451
Ir       0.00000000       0.00000000       4.09292929       0.00000000       0.00000000      -0.70557451
2
Properties=species:S:1:pos:R:3:forces:R:3 energy=-90.72915369809057 pbc="F F F"
Ir       0.00000000       0.00000000       0.00000000       0.00000000       0.00000000       0.67323977
Ir       0.00000000       0.00000000       4.15252525       0.00000000       0.00000000      -0.67323977
2
Properties=species:S:1:pos:R:3:forces:R:3 energy=-90.68994905188026 pbc="F F F"
Ir       0.00000000       0.00000000       0.00000000       0.00000000       0.00000000       0.64235759
Ir       0.00000000       0.00000000       4.21212121       0.00000000       0.00000000      -0.64235759
2
Properties=species:S:1:pos:R:3:forces:R:3 energy=-90.65263565731964 pbc="F F F"
Ir       0.00000000       0.00000000       0.00000000       0.00000000       0.00000000       0.60912597
Ir       0.00000000       0.00000000       4.27171717       0.00000000       0.00000000      -0.60912597
2
Properties=species:S:1:pos:R:3:forces:R:3 energy=-90.61746509911062 pbc="F F F"
Ir       0.00000000       0.00000000       0.00000000       0.00000000       0.00000000       0.56998110
Ir       0.00000000       0.00000000       4.33131313       0.00000000       0.00000000      -0.56998110
2
Properties=species:S:1:pos:R:3:forces:R:3 energy=-90.58487210702168 pbc="F F F"
Ir       0.00000000       0.00000000       0.00000000       0.00000000       0.00000000       0.52232009
Ir       0.00000000       0.00000000       4.39090909       0.00000000       0.00000000      -0.52232009
2
Properties=species:S:1:pos:R:3:forces:R:3 energy=-90.55539826986205 pbc="F F F"
Ir       0.00000000       0.00000000       0.00000000       0.00000000       0.00000000       0.46522439
Ir       0.00000000       0.00000000       4.45050505       0.00000000       0.00000000      -0.46522439
2
Properties=species:S:1:pos:R:3:forces:R:3 energy=-90.52957758268442 pbc="F F F"
Ir       0.00000000       0.00000000       0.00000000       0.00000000       0.00000000       0.39996192
Ir       0.00000000       0.00000000       4.51010101       0.00000000       0.00000000      -0.39996192
2
Properties=species:S:1:pos:R:3:forces:R:3 energy=-90.507822024082 pbc="F F F"
Ir       0.00000000       0.00000000       0.00000000       0.00000000       0.00000000       0.32994553
Ir       0.00000000       0.00000000       4.56969697       0.00000000       0.00000000      -0.32994553
2
Properties=species:S:1:pos:R:3:forces:R:3 energy=-90.49024608803374 pbc="F F F"
Ir       0.00000000       0.00000000       0.00000000       0.00000000       0.00000000       0.26017624
Ir       0.00000000       0.00000000       4.62929293       0.00000000       0.00000000      -0.26017624
2
Properties=species:S:1:pos:R:3:forces:R:3 energy=-90.47669729197912 pbc="F F F"
Ir       0.00000000       0.00000000       0.00000000       0.00000000       0.00000000       0.19613098
Ir       0.00000000       0.00000000       4.68888889       0.00000000       0.00000000      -0.19613098
2
Properties=species:S:1:pos:R:3:forces:R:3 energy=-90.46666464071477 pbc="F F F"
Ir       0.00000000       0.00000000       0.00000000       0.00000000       0.00000000       0.14252123
Ir       0.00000000       0.00000000       4.74848485       0.00000000       0.00000000      -0.14252123
2
Properties=species:S:1:pos:R:3:forces:R:3 energy=-90.45943883021638 pbc="F F F"
Ir       0.00000000       0.00000000       0.00000000       0.00000000       0.00000000       0.10221263
Ir       0.00000000       0.00000000       4.80808081       0.00000000       0.00000000      -0.10221263
2
Properties=species:S:1:pos:R:3:forces:R:3 energy=-90.4542038217559 pbc="F F F"
Ir       0.00000000       0.00000000       0.00000000       0.00000000       0.00000000       0.07558102
Ir       0.00000000       0.00000000       4.86767677       0.00000000       0.00000000      -0.07558102
2
Properties=species:S:1:pos:R:3:forces:R:3 energy=-90.45019704413953 pbc="F F F"
Ir       0.00000000       0.00000000       0.00000000       0.00000000       0.00000000       0.06051026
Ir       0.00000000       0.00000000       4.92727273       0.00000000       0.00000000      -0.06051026
2
Properties=species:S:1:pos:R:3:forces:R:3 energy=-90.44684672439318 pbc="F F F"
Ir       0.00000000       0.00000000       0.00000000       0.00000000       0.00000000       0.05292993
Ir       0.00000000       0.00000000       4.98686869       0.00000000       0.00000000      -0.05292993
2
Properties=species:S:1:pos:R:3:forces:R:3 energy=-90.44384056181678 pbc="F F F"
Ir       0.00000000       0.00000000       0.00000000       0.00000000       0.00000000       0.04787201
Ir       0.00000000       0.00000000       5.04646465       0.00000000       0.00000000      -0.04787201
2
Properties=species:S:1:pos:R:3:forces:R:3 energy=-90.44117910602745 pbc="F F F"
Ir       0.00000000       0.00000000       0.00000000       0.00000000       0.00000000       0.04083465
Ir       0.00000000       0.00000000       5.10606061       0.00000000       0.00000000      -0.04083465
2
Properties=species:S:1:pos:R:3:forces:R:3 energy=-90.43906897157066 pbc="F F F"
Ir       0.00000000       0.00000000       0.00000000       0.00000000       0.00000000       0.02921581
Ir       0.00000000       0.00000000       5.16565657       0.00000000       0.00000000      -0.02921581
2
Properties=species:S:1:pos:R:3:forces:R:3 energy=-90.43778548506005 pbc="F F F"
Ir       0.00000000       0.00000000       0.00000000       0.00000000       0.00000000       0.01329268
Ir       0.00000000       0.00000000       5.22525253       0.00000000       0.00000000      -0.01329268
2
Properties=species:S:1:pos:R:3:forces:R:3 energy=-90.4375124560128 pbc="F F F"
Ir       0.00000000       0.00000000       0.00000000       0.00000000       0.00000000      -0.00395595
Ir       0.00000000       0.00000000       5.28484848       0.00000000       0.00000000       0.00395595
2
Properties=species:S:1:pos:R:3:forces:R:3 energy=-90.43819722548129 pbc="F F F"
Ir       0.00000000       0.00000000       0.00000000       0.00000000       0.00000000      -0.01838135
Ir       0.00000000       0.00000000       5.34444444       0.00000000       0.00000000       0.01838135
2
Properties=species:S:1:pos:R:3:forces:R:3 energy=-90.43958116779201 pbc="F F F"
Ir       0.00000000       0.00000000       0.00000000       0.00000000       0.00000000      -0.02666231
Ir       0.00000000       0.00000000       5.40404040       0.00000000       0.00000000       0.02666231
2
Properties=species:S:1:pos:R:3:forces:R:3 energy=-90.44123019545243 pbc="F F F"
Ir       0.00000000       0.00000000       0.00000000       0.00000000       0.00000000      -0.02746136
Ir       0.00000000       0.00000000       5.46363636       0.00000000       0.00000000       0.02746136
2
Properties=species:S:1:pos:R:3:forces:R:3 energy=-90.44271786382781 pbc="F F F"
Ir       0.00000000       0.00000000       0.00000000       0.00000000       0.00000000      -0.02162340
Ir       0.00000000       0.00000000       5.52323232       0.00000000       0.00000000       0.02162340
2
Properties=species:S:1:pos:R:3:forces:R:3 energy=-90.44377031775794 pbc="F F F"
Ir       0.00000000       0.00000000       0.00000000       0.00000000       0.00000000      -0.01405952
Ir       0.00000000       0.00000000       5.58282828       0.00000000       0.00000000       0.01405952
2
Properties=species:S:1:pos:R:3:forces:R:3 energy=-90.44450277902895 pbc="F F F"
Ir       0.00000000       0.00000000       0.00000000       0.00000000       0.00000000      -0.01157656
Ir       0.00000000       0.00000000       5.64242424       0.00000000       0.00000000       0.01157656
2
Properties=species:S:1:pos:R:3:forces:R:3 energy=-90.44516016121443 pbc="F F F"
Ir       0.00000000       0.00000000       0.00000000       0.00000000       0.00000000      -0.00931586
Ir       0.00000000       0.00000000       5.70202020       0.00000000       0.00000000       0.00931586
2
Properties=species:S:1:pos:R:3:forces:R:3 energy=-90.44536936683667 pbc="F F F"
Ir       0.00000000       0.00000000       0.00000000       0.00000000       0.00000000       0.00456680
Ir       0.00000000       0.00000000       5.76161616       0.00000000       0.00000000      -0.00456680
2
Properties=species:S:1:pos:R:3:forces:R:3 energy=-90.44450548959256 pbc="F F F"
Ir       0.00000000       0.00000000       0.00000000       0.00000000       0.00000000       0.02315527
Ir       0.00000000       0.00000000       5.82121212       0.00000000       0.00000000      -0.02315527
2
Properties=species:S:1:pos:R:3:forces:R:3 energy=-90.44298881142396 pbc="F F F"
Ir       0.00000000       0.00000000       0.00000000       0.00000000       0.00000000       0.02402873
Ir       0.00000000       0.00000000       5.88080808       0.00000000       0.00000000      -0.02402873
2
Properties=species:S:1:pos:R:3:forces:R:3 energy=-90.4419185812848 pbc="F F F"
Ir       0.00000000       0.00000000       0.00000000       0.00000000       0.00000000       0.01122419
Ir       0.00000000       0.00000000       5.94040404       0.00000000       0.00000000      -0.01122419
2
Properties=species:S:1:pos:R:3:forces:R:3 energy=-90.44151661786469 pbc="F F F"
Ir       0.00000000       0.00000000       0.00000000       0.00000000       0.00000000       0.00439968
Ir       0.00000000       0.00000000       6.00000000       0.00000000       0.00000000      -0.00439968
