2
Properties=species:S:1:pos:R:3:forces:R:3 energy=1724351.483696629 pbc="F F F"
Mo       0.00000000       0.00000000       0.00000000       0.00000000       0.00000000 -814585.00000000
Mo       0.00000000       0.00000000       0.10000000       0.00000000       0.00000000  814585.00000000
2
Properties=species:S:1:pos:R:3:forces:R:3 energy=1692637.733696629 pbc="F F F"
Mo       0.00000000       0.00000000       0.00000000       0.00000000       0.00000000 -469261.56250000
Mo       0.00000000       0.00000000       0.15959596       0.00000000       0.00000000  469261.56250000
2
Properties=species:S:1:pos:R:3:forces:R:3 energy=1652774.733696629 pbc="F F F"
Mo       0.00000000       0.00000000       0.00000000       0.00000000       0.00000000 -971186.12500000
Mo       0.00000000       0.00000000       0.21919192       0.00000000       0.00000000  971186.12500000
2
Properties=species:S:1:pos:R:3:forces:R:3 energy=1564711.983696629 pbc="F F F"
Mo       0.00000000       0.00000000       0.00000000       0.00000000       0.00000000 -2085396.00000000
Mo       0.00000000       0.00000000       0.27878788       0.00000000       0.00000000 2085396.00000000
2
Properties=species:S:1:pos:R:3:forces:R:3 energy=1393407.608696629 pbc="F F F"
Mo       0.00000000       0.00000000       0.00000000       0.00000000       0.00000000 -3735137.50000000
Mo       0.00000000       0.00000000       0.33838384       0.00000000       0.00000000 3735137.50000000
2
Properties=species:S:1:pos:R:3:forces:R:3 energy=1117408.483696629 pbc="F F F"
Mo       0.00000000       0.00000000       0.00000000       0.00000000       0.00000000 -5567831.50000000
Mo       0.00000000       0.00000000       0.39797980       0.00000000       0.00000000 5567831.50000000
2
Properties=species:S:1:pos:R:3:forces:R:3 energy=752712.2336966291 pbc="F F F"
Mo       0.00000000       0.00000000       0.00000000       0.00000000       0.00000000 -6431030.00000000
Mo       0.00000000       0.00000000       0.45757576       0.00000000       0.00000000 6431030.00000000
2
Properties=species:S:1:pos:R:3:forces:R:3 energy=387413.26494663226 pbc="F F F"
Mo       0.00000000       0.00000000       0.00000000       0.00000000       0.00000000 -5496835.00000000
Mo       0.00000000       0.00000000       0.51717172       0.00000000       0.00000000 5496835.00000000
2
Properties=species:S:1:pos:R:3:forces:R:3 energy=129360.85088413542 pbc="F F F"
Mo       0.00000000       0.00000000       0.00000000       0.00000000       0.00000000 -3023367.75000000
Mo       0.00000000       0.00000000       0.57676768       0.00000000       0.00000000 3023367.75000000
2
Properties=species:S:1:pos:R:3:forces:R:3 energy=21195.31377476834 pbc="F F F"
Mo       0.00000000       0.00000000       0.00000000       0.00000000       0.00000000 -765446.12500000
Mo       0.00000000       0.00000000       0.63636364       0.00000000       0.00000000  765446.12500000
2
Properties=species:S:1:pos:R:3:forces:R:3 energy=4754.890923216928 pbc="F F F"
Mo       0.00000000       0.00000000       0.00000000       0.00000000       0.00000000  -84381.37500000
Mo       0.00000000       0.00000000       0.69595960       0.00000000       0.00000000   84381.37500000
2
Properties=species:S:1:pos:R:3:forces:R:3 energy=7854.771782609351 pbc="F F F"
Mo       0.00000000       0.00000000       0.00000000       0.00000000       0.00000000   10243.41503906
Mo       0.00000000       0.00000000       0.75555556       0.00000000       0.00000000  -10243.41503906
2
Properties=species:S:1:pos:R:3:forces:R:3 energy=4329.248345136278 pbc="F F F"
Mo       0.00000000       0.00000000       0.00000000       0.00000000       0.00000000  -16324.83691406
Mo       0.00000000       0.00000000       0.81515152       0.00000000       0.00000000   16324.83691406
2
Properties=species:S:1:pos:R:3:forces:R:3 energy=3658.2847221258326 pbc="F F F"
Mo       0.00000000       0.00000000       0.00000000       0.00000000       0.00000000  -20720.45703125
Mo       0.00000000       0.00000000       0.87474747       0.00000000       0.00000000   20720.45703125
2
Properties=species:S:1:pos:R:3:forces:R:3 energy=2225.6494682718517 pbc="F F F"
Mo       0.00000000       0.00000000       0.00000000       0.00000000       0.00000000  -24086.92773438
Mo       0.00000000       0.00000000       0.93434343       0.00000000       0.00000000   24086.92773438
2
Properties=species:S:1:pos:R:3:forces:R:3 energy=1038.4641656103363 pbc="F F F"
Mo       0.00000000       0.00000000       0.00000000       0.00000000       0.00000000  -15154.55468750
Mo       0.00000000       0.00000000       0.99393939       0.00000000       0.00000000   15154.55468750
2
Properties=species:S:1:pos:R:3:forces:R:3 energy=335.11214544328305 pbc="F F F"
Mo       0.00000000       0.00000000       0.00000000       0.00000000       0.00000000   -8720.61816406
Mo       0.00000000       0.00000000       1.05353535       0.00000000       0.00000000    8720.61816406
2
Properties=species:S:1:pos:R:3:forces:R:3 energy=-28.327751964067676 pbc="F F F"
Mo       0.00000000       0.00000000       0.00000000       0.00000000       0.00000000   -3925.65771484
Mo       0.00000000       0.00000000       1.11313131       0.00000000       0.00000000    3925.65771484
2
Properties=species:S:1:pos:R:3:forces:R:3 energy=-106.65530268265071 pbc="F F F"
Mo       0.00000000       0.00000000       0.00000000       0.00000000       0.00000000     336.20001221
Mo       0.00000000       0.00000000       1.17272727       0.00000000       0.00000000    -336.20001221
2
Properties=species:S:1:pos:R:3:forces:R:3 energy=-89.70718997311019 pbc="F F F"
Mo       0.00000000       0.00000000       0.00000000       0.00000000       0.00000000     246.04725647
Mo       0.00000000       0.00000000       1.23232323       0.00000000       0.00000000    -246.04725647
2
Properties=species:S:1:pos:R:3:forces:R:3 energy=-77.23656286011934 pbc="F F F"
Mo       0.00000000       0.00000000       0.00000000       0.00000000       0.00000000     174.19541931
Mo       0.00000000       0.00000000       1.29191919       0.00000000       0.00000000    -174.19541931
2
Properties=species:S:1:pos:R:3:forces:R:3 energy=-68.76498199995216 pbc="F F F"
Mo       0.00000000       0.00000000       0.00000000       0.00000000       0.00000000     113.27383423
Mo       0.00000000       0.00000000       1.35151515       0.00000000       0.00000000    -113.27383423
2
Properties=species:S:1:pos:R:3:forces:R:3 energy=-62.57090119892212 pbc="F F F"
Mo       0.00000000       0.00000000       0.00000000       0.00000000       0.00000000     106.03176117
Mo       0.00000000       0.00000000       1.41111111       0.00000000       0.00000000    -106.03176117
2
Properties=species:S:1:pos:R:3:forces:R:3 energy=-56.24522086708443 pbc="F F F"
Mo       0.00000000       0.00000000       0.00000000       0.00000000       0.00000000      97.13008881
Mo       0.00000000       0.00000000       1.47070707       0.00000000       0.00000000     -97.13008881
2
Properties=species:S:1:pos:R:3:forces:R:3 energy=-51.56925583053391 pbc="F F F"
Mo       0.00000000       0.00000000       0.00000000       0.00000000       0.00000000      59.82775497
Mo       0.00000000       0.00000000       1.53030303       0.00000000       0.00000000     -59.82775497
2
Properties=species:S:1:pos:R:3:forces:R:3 energy=-48.876952295123175 pbc="F F F"
Mo       0.00000000       0.00000000       0.00000000       0.00000000       0.00000000      33.33349991
Mo       0.00000000       0.00000000       1.58989899       0.00000000       0.00000000     -33.33349991
2
Properties=species:S:1:pos:R:3:forces:R:3 energy=-47.2530232208552 pbc="F F F"
Mo       0.00000000       0.00000000       0.00000000       0.00000000       0.00000000      23.89739609
Mo       0.00000000       0.00000000       1.64949495       0.00000000       0.00000000     -23.89739609
2
Properties=species:S:1:pos:R:3:forces:R:3 energy=-45.82947236656708 pbc="F F F"
Mo       0.00000000       0.00000000       0.00000000       0.00000000       0.00000000      23.86722946
Mo       0.00000000       0.00000000       1.70909091       0.00000000       0.00000000     -23.86722946
2
Properties=species:S:1:pos:R:3:forces:R:3 energy=-44.54249507094794 pbc="F F F"
Mo       0.00000000       0.00000000       0.00000000       0.00000000       0.00000000      18.07681847
Mo       0.00000000       0.00000000       1.76868687       0.00000000       0.00000000     -18.07681847
2
Properties=species:S:1:pos:R:3:forces:R:3 energy=-43.73417048392416 pbc="F F F"
Mo       0.00000000       0.00000000       0.00000000       0.00000000       0.00000000       9.22615910
Mo       0.00000000       0.00000000       1.82828283       0.00000000       0.00000000      -9.22615910
2
Properties=species:S:1:pos:R:3:forces:R:3 energy=-43.388343357824056 pbc="F F F"
Mo       0.00000000       0.00000000       0.00000000       0.00000000       0.00000000       2.95976543
Mo       0.00000000       0.00000000       1.88787879       0.00000000       0.00000000      -2.95976543
2
Properties=species:S:1:pos:R:3:forces:R:3 energy=-43.309281612378385 pbc="F F F"
Mo       0.00000000       0.00000000       0.00000000       0.00000000       0.00000000       0.26624247
Mo       0.00000000       0.00000000       1.94747475       0.00000000       0.00000000      -0.26624247
2
Properties=species:S:1:pos:R:3:forces:R:3 energy=-43.30284778363482 pbc="F F F"
Mo       0.00000000       0.00000000       0.00000000       0.00000000       0.00000000       0.24348941
Mo       0.00000000       0.00000000       2.00707071       0.00000000       0.00000000      -0.24348941
2
Properties=species:S:1:pos:R:3:forces:R:3 energy=-43.26424852416607 pbc="F F F"
Mo       0.00000000       0.00000000       0.00000000       0.00000000       0.00000000       1.05043578
Mo       0.00000000       0.00000000       2.06666667       0.00000000       0.00000000      -1.05043578
2
Properties=species:S:1:pos:R:3:forces:R:3 energy=-43.18744948816557 pbc="F F F"
Mo       0.00000000       0.00000000       0.00000000       0.00000000       0.00000000       1.40456092
Mo       0.00000000       0.00000000       2.12626263       0.00000000       0.00000000      -1.40456092
2
Properties=species:S:1:pos:R:3:forces:R:3 energy=-43.11017886631147 pbc="F F F"
Mo       0.00000000       0.00000000       0.00000000       0.00000000       0.00000000       1.10868549
Mo       0.00000000       0.00000000       2.18585859       0.00000000       0.00000000      -1.10868549
2
Properties=species:S:1:pos:R:3:forces:R:3 energy=-43.05931646798383 pbc="F F F"
Mo       0.00000000       0.00000000       0.00000000       0.00000000       0.00000000       0.60980147
Mo       0.00000000       0.00000000       2.24545455       0.00000000       0.00000000      -0.60980147
2
Properties=species:S:1:pos:R:3:forces:R:3 energy=-43.03209525743912 pbc="F F F"
Mo       0.00000000       0.00000000       0.00000000       0.00000000       0.00000000       0.37071300
Mo       0.00000000       0.00000000       2.30505051       0.00000000       0.00000000      -0.37071300
2
Properties=species:S:1:pos:R:3:forces:R:3 energy=-43.007107194164945 pbc="F F F"
Mo       0.00000000       0.00000000       0.00000000       0.00000000       0.00000000       0.52225190
Mo       0.00000000       0.00000000       2.36464646       0.00000000       0.00000000      -0.52225190
2
Properties=species:S:1:pos:R:3:forces:R:3 energy=-42.96633003932995 pbc="F F F"
Mo       0.00000000       0.00000000       0.00000000       0.00000000       0.00000000       0.85028517
Mo       0.00000000       0.00000000       2.42424242       0.00000000       0.00000000      -0.85028517
2
Properties=species:S:1:pos:R:3:forces:R:3 energy=-42.90701868582921 pbc="F F F"
Mo       0.00000000       0.00000000       0.00000000       0.00000000       0.00000000       1.12689269
Mo       0.00000000       0.00000000       2.48383838       0.00000000       0.00000000      -1.12689269
2
Properties=species:S:1:pos:R:3:forces:R:3 energy=-42.832188838098716 pbc="F F F"
Mo       0.00000000       0.00000000       0.00000000       0.00000000       0.00000000       1.39748406
Mo       0.00000000       0.00000000       2.54343434       0.00000000       0.00000000      -1.39748406
2
Properties=species:S:1:pos:R:3:forces:R:3 energy=-42.73811790911474 pbc="F F F"
Mo       0.00000000       0.00000000       0.00000000       0.00000000       0.00000000       1.77573037
Mo       0.00000000       0.00000000       2.60303030       0.00000000       0.00000000      -1.77573037
2
Properties=species:S:1:pos:R:3:forces:R:3 energy=-42.62026731223645 pbc="F F F"
Mo       0.00000000       0.00000000       0.00000000       0.00000000       0.00000000       2.16611409
Mo       0.00000000       0.00000000       2.66262626       0.00000000       0.00000000      -2.16611409
2
Properties=species:S:1:pos:R:3:forces:R:3 energy=-42.48272081102874 pbc="F F F"
Mo       0.00000000       0.00000000       0.00000000       0.00000000       0.00000000       2.42116141
Mo       0.00000000       0.00000000       2.72222222       0.00000000       0.00000000      -2.42116141
2
Properties=species:S:1:pos:R:3:forces:R:3 energy=-42.335281150392156 pbc="F F F"
Mo       0.00000000       0.00000000       0.00000000       0.00000000       0.00000000       2.49500155
Mo       0.00000000       0.00000000       2.78181818       0.00000000       0.00000000      -2.49500155
2
Properties=species:S:1:pos:R:3:forces:R:3 energy=-42.189576239044314 pbc="F F F"
Mo       0.00000000       0.00000000       0.00000000       0.00000000       0.00000000       2.35451436
Mo       0.00000000       0.00000000       2.84141414       0.00000000       0.00000000      -2.35451436
2
Properties=species:S:1:pos:R:3:forces:R:3 energy=-42.059757463148784 pbc="F F F"
Mo       0.00000000       0.00000000       0.00000000       0.00000000       0.00000000       1.95981359
Mo       0.00000000       0.00000000       2.90101010       0.00000000       0.00000000      -1.95981359
2
Properties=species:S:1:pos:R:3:forces:R:3 energy=-41.960250088573275 pbc="F F F"
Mo       0.00000000       0.00000000       0.00000000       0.00000000       0.00000000       1.35397720
Mo       0.00000000       0.00000000       2.96060606       0.00000000       0.00000000      -1.35397720
2
Properties=species:S:1:pos:R:3:forces:R:3 energy=-41.8997439918683 pbc="F F F"
Mo       0.00000000       0.00000000       0.00000000       0.00000000       0.00000000       0.68031412
Mo       0.00000000       0.00000000       3.02020202       0.00000000       0.00000000      -0.68031412
2
Properties=species:S:1:pos:R:3:forces:R:3 energy=-41.87695351855498 pbc="F F F"
Mo       0.00000000       0.00000000       0.00000000       0.00000000       0.00000000       0.11558247
Mo       0.00000000       0.00000000       3.07979798       0.00000000       0.00000000      -0.11558247
2
Properties=species:S:1:pos:R:3:forces:R:3 energy=-41.88153468771389 pbc="F F F"
Mo       0.00000000       0.00000000       0.00000000       0.00000000       0.00000000      -0.23130797
Mo       0.00000000       0.00000000       3.13939394       0.00000000       0.00000000       0.23130797
2
Properties=species:S:1:pos:R:3:forces:R:3 energy=-41.90071443110905 pbc="F F F"
Mo       0.00000000       0.00000000       0.00000000       0.00000000       0.00000000      -0.38939542
Mo       0.00000000       0.00000000       3.19898990       0.00000000       0.00000000       0.38939542
2
Properties=species:S:1:pos:R:3:forces:R:3 energy=-41.92637333876499 pbc="F F F"
Mo       0.00000000       0.00000000       0.00000000       0.00000000       0.00000000      -0.46585888
Mo       0.00000000       0.00000000       3.25858586       0.00000000       0.00000000       0.46585888
2
Properties=species:S:1:pos:R:3:forces:R:3 energy=-41.95581005153493 pbc="F F F"
Mo       0.00000000       0.00000000       0.00000000       0.00000000       0.00000000      -0.51696765
Mo       0.00000000       0.00000000       3.31818182       0.00000000       0.00000000       0.51696765
2
Properties=species:S:1:pos:R:3:forces:R:3 energy=-41.9867860887563 pbc="F F F"
Mo       0.00000000       0.00000000       0.00000000       0.00000000       0.00000000      -0.50668222
Mo       0.00000000       0.00000000       3.37777778       0.00000000       0.00000000       0.50668222
2
Properties=species:S:1:pos:R:3:forces:R:3 energy=-42.0137561011609 pbc="F F F"
Mo       0.00000000       0.00000000       0.00000000       0.00000000       0.00000000      -0.37545303
Mo       0.00000000       0.00000000       3.43737374       0.00000000       0.00000000       0.37545303
2
Properties=species:S:1:pos:R:3:forces:R:3 energy=-42.02892797212953 pbc="F F F"
Mo       0.00000000       0.00000000       0.00000000       0.00000000       0.00000000      -0.11518290
Mo       0.00000000       0.00000000       3.49696970       0.00000000       0.00000000       0.11518290
2
Properties=species:S:1:pos:R:3:forces:R:3 energy=-42.02598088609331 pbc="F F F"
Mo       0.00000000       0.00000000       0.00000000       0.00000000       0.00000000       0.22015984
Mo       0.00000000       0.00000000       3.55656566       0.00000000       0.00000000      -0.22015984
2
Properties=species:S:1:pos:R:3:forces:R:3 energy=-42.00272875067024 pbc="F F F"
Mo       0.00000000       0.00000000       0.00000000       0.00000000       0.00000000       0.55423582
Mo       0.00000000       0.00000000       3.61616162       0.00000000       0.00000000      -0.55423582
2
Properties=species:S:1:pos:R:3:forces:R:3 energy=-41.96107090654385 pbc="F F F"
Mo       0.00000000       0.00000000       0.00000000       0.00000000       0.00000000       0.83179313
Mo       0.00000000       0.00000000       3.67575758       0.00000000       0.00000000      -0.83179313
2
Properties=species:S:1:pos:R:3:forces:R:3 energy=-41.90507340284679 pbc="F F F"
Mo       0.00000000       0.00000000       0.00000000       0.00000000       0.00000000       1.03540671
Mo       0.00000000       0.00000000       3.73535354       0.00000000       0.00000000      -1.03540671
2
Properties=species:S:1:pos:R:3:forces:R:3 energy=-41.8389319868348 pbc="F F F"
Mo       0.00000000       0.00000000       0.00000000       0.00000000       0.00000000       1.17499733
Mo       0.00000000       0.00000000       3.79494949       0.00000000       0.00000000      -1.17499733
2
Properties=species:S:1:pos:R:3:forces:R:3 energy=-41.76593826390697 pbc="F F F"
Mo       0.00000000       0.00000000       0.00000000       0.00000000       0.00000000       1.26817966
Mo       0.00000000       0.00000000       3.85454545       0.00000000       0.00000000      -1.26817966
2
Properties=species:S:1:pos:R:3:forces:R:3 energy=-41.68843788007172 pbc="F F F"
Mo       0.00000000       0.00000000       0.00000000       0.00000000       0.00000000       1.32781100
Mo       0.00000000       0.00000000       3.91414141       0.00000000       0.00000000      -1.32781100
2
Properties=species:S:1:pos:R:3:forces:R:3 energy=-41.608219448421565 pbc="F F F"
Mo       0.00000000       0.00000000       0.00000000       0.00000000       0.00000000       1.35986245
Mo       0.00000000       0.00000000       3.97373737       0.00000000       0.00000000      -1.35986245
2
Properties=species:S:1:pos:R:3:forces:R:3 energy=-41.526865680263526 pbc="F F F"
Mo       0.00000000       0.00000000       0.00000000       0.00000000       0.00000000       1.36619568
Mo       0.00000000       0.00000000       4.03333333       0.00000000       0.00000000      -1.36619568
2
Properties=species:S:1:pos:R:3:forces:R:3 energy=-41.44589059384345 pbc="F F F"
Mo       0.00000000       0.00000000       0.00000000       0.00000000       0.00000000       1.34694266
Mo       0.00000000       0.00000000       4.09292929       0.00000000       0.00000000      -1.34694266
2
Properties=species:S:1:pos:R:3:forces:R:3 energy=-41.366842565025145 pbc="F F F"
Mo       0.00000000       0.00000000       0.00000000       0.00000000       0.00000000       1.30127645
Mo       0.00000000       0.00000000       4.15252525       0.00000000       0.00000000      -1.30127645
2
Properties=species:S:1:pos:R:3:forces:R:3 energy=-41.291338667485334 pbc="F F F"
Mo       0.00000000       0.00000000       0.00000000       0.00000000       0.00000000       1.22789931
Mo       0.00000000       0.00000000       4.21212121       0.00000000       0.00000000      -1.22789931
2
Properties=species:S:1:pos:R:3:forces:R:3 energy=-41.22104940600502 pbc="F F F"
Mo       0.00000000       0.00000000       0.00000000       0.00000000       0.00000000       1.12627947
Mo       0.00000000       0.00000000       4.27171717       0.00000000       0.00000000      -1.12627947
2
Properties=species:S:1:pos:R:3:forces:R:3 energy=-41.15762244311507 pbc="F F F"
Mo       0.00000000       0.00000000       0.00000000       0.00000000       0.00000000       0.99828941
Mo       0.00000000       0.00000000       4.33131313       0.00000000       0.00000000      -0.99828941
2
Properties=species:S:1:pos:R:3:forces:R:3 energy=-41.10248423325443 pbc="F F F"
Mo       0.00000000       0.00000000       0.00000000       0.00000000       0.00000000       0.84909332
Mo       0.00000000       0.00000000       4.39090909       0.00000000       0.00000000      -0.84909332
2
Properties=species:S:1:pos:R:3:forces:R:3 energy=-41.05667980390107 pbc="F F F"
Mo       0.00000000       0.00000000       0.00000000       0.00000000       0.00000000       0.68669540
Mo       0.00000000       0.00000000       4.45050505       0.00000000       0.00000000      -0.68669540
2
Properties=species:S:1:pos:R:3:forces:R:3 energy=-41.02070875051609 pbc="F F F"
Mo       0.00000000       0.00000000       0.00000000       0.00000000       0.00000000       0.52061856
Mo       0.00000000       0.00000000       4.51010101       0.00000000       0.00000000      -0.52061856
2
Properties=species:S:1:pos:R:3:forces:R:3 energy=-40.99450615038607 pbc="F F F"
Mo       0.00000000       0.00000000       0.00000000       0.00000000       0.00000000       0.36056858
Mo       0.00000000       0.00000000       4.56969697       0.00000000       0.00000000      -0.36056858
2
Properties=species:S:1:pos:R:3:forces:R:3 energy=-40.977434942731996 pbc="F F F"
Mo       0.00000000       0.00000000       0.00000000       0.00000000       0.00000000       0.21547540
Mo       0.00000000       0.00000000       4.62929293       0.00000000       0.00000000      -0.21547540
2
Properties=species:S:1:pos:R:3:forces:R:3 energy=-40.96837750995407 pbc="F F F"
Mo       0.00000000       0.00000000       0.00000000       0.00000000       0.00000000       0.09264951
Mo       0.00000000       0.00000000       4.68888889       0.00000000       0.00000000      -0.09264951
2
Properties=species:S:1:pos:R:3:forces:R:3 energy=-40.96585009003923 pbc="F F F"
Mo       0.00000000       0.00000000       0.00000000       0.00000000       0.00000000      -0.00304518
Mo       0.00000000       0.00000000       4.74848485       0.00000000       0.00000000       0.00304518
2
Properties=species:S:1:pos:R:3:forces:R:3 energy=-40.96816300651767 pbc="F F F"
Mo       0.00000000       0.00000000       0.00000000       0.00000000       0.00000000      -0.06972545
Mo       0.00000000       0.00000000       4.80808081       0.00000000       0.00000000       0.06972545
2
Properties=species:S:1:pos:R:3:forces:R:3 energy=-40.97360379452234 pbc="F F F"
Mo       0.00000000       0.00000000       0.00000000       0.00000000       0.00000000      -0.10831882
Mo       0.00000000       0.00000000       4.86767677       0.00000000       0.00000000       0.10831882
2
Properties=species:S:1:pos:R:3:forces:R:3 energy=-40.98056688940868 pbc="F F F"
Mo       0.00000000       0.00000000       0.00000000       0.00000000       0.00000000      -0.12136120
Mo       0.00000000       0.00000000       4.92727273       0.00000000       0.00000000       0.12136120
2
Properties=species:S:1:pos:R:3:forces:R:3 energy=-40.98761085038137 pbc="F F F"
Mo       0.00000000       0.00000000       0.00000000       0.00000000       0.00000000      -0.11144011
Mo       0.00000000       0.00000000       4.98686869       0.00000000       0.00000000       0.11144011
2
Properties=species:S:1:pos:R:3:forces:R:3 energy=-40.99342784133235 pbc="F F F"
Mo       0.00000000       0.00000000       0.00000000       0.00000000       0.00000000      -0.08038989
Mo       0.00000000       0.00000000       5.04646465       0.00000000       0.00000000       0.08038989
2
Properties=species:S:1:pos:R:3:forces:R:3 energy=-40.996813100591346 pbc="F F F"
Mo       0.00000000       0.00000000       0.00000000       0.00000000       0.00000000      -0.03024482
Mo       0.00000000       0.00000000       5.10606061       0.00000000       0.00000000       0.03024482
2
Properties=species:S:1:pos:R:3:forces:R:3 energy=-40.996748873769214 pbc="F F F"
Mo       0.00000000       0.00000000       0.00000000       0.00000000       0.00000000       0.03395942
Mo       0.00000000       0.00000000       5.16565657       0.00000000       0.00000000      -0.03395942
2
Properties=species:S:1:pos:R:3:forces:R:3 energy=-40.992701958560744 pbc="F F F"
Mo       0.00000000       0.00000000       0.00000000       0.00000000       0.00000000       0.10104442
Mo       0.00000000       0.00000000       5.22525253       0.00000000       0.00000000      -0.10104442
2
Properties=species:S:1:pos:R:3:forces:R:3 energy=-40.984997514982396 pbc="F F F"
Mo       0.00000000       0.00000000       0.00000000       0.00000000       0.00000000       0.15358883
Mo       0.00000000       0.00000000       5.28484848       0.00000000       0.00000000      -0.15358883
2
Properties=species:S:1:pos:R:3:forces:R:3 energy=-40.97500599662565 pbc="F F F"
Mo       0.00000000       0.00000000       0.00000000       0.00000000       0.00000000       0.17620301
Mo       0.00000000       0.00000000       5.34444444       0.00000000       0.00000000      -0.17620301
2
Properties=species:S:1:pos:R:3:forces:R:3 energy=-40.96447174334745 pbc="F F F"
Mo       0.00000000       0.00000000       0.00000000       0.00000000       0.00000000       0.17604880
Mo       0.00000000       0.00000000       5.40404040       0.00000000       0.00000000      -0.17604880
2
Properties=species:S:1:pos:R:3:forces:R:3 energy=-40.95371243782518 pbc="F F F"
Mo       0.00000000       0.00000000       0.00000000       0.00000000       0.00000000       0.19014159
Mo       0.00000000       0.00000000       5.46363636       0.00000000       0.00000000      -0.19014159
2
Properties=species:S:1:pos:R:3:forces:R:3 energy=-40.94143597949706 pbc="F F F"
Mo       0.00000000       0.00000000       0.00000000       0.00000000       0.00000000       0.22013475
Mo       0.00000000       0.00000000       5.52323232       0.00000000       0.00000000      -0.22013475
2
Properties=species:S:1:pos:R:3:forces:R:3 energy=-40.92834919609497 pbc="F F F"
Mo       0.00000000       0.00000000       0.00000000       0.00000000       0.00000000       0.20970416
Mo       0.00000000       0.00000000       5.58282828       0.00000000       0.00000000      -0.20970416
2
Properties=species:S:1:pos:R:3:forces:R:3 energy=-40.91712346385176 pbc="F F F"
Mo       0.00000000       0.00000000       0.00000000       0.00000000       0.00000000       0.16646411
Mo       0.00000000       0.00000000       5.64242424       0.00000000       0.00000000      -0.16646411
2
Properties=species:S:1:pos:R:3:forces:R:3 energy=-40.90802689893098 pbc="F F F"
Mo       0.00000000       0.00000000       0.00000000       0.00000000       0.00000000       0.14545335
Mo       0.00000000       0.00000000       5.70202020       0.00000000       0.00000000      -0.14545335
2
Properties=species:S:1:pos:R:3:forces:R:3 energy=-40.89921424986844 pbc="F F F"
Mo       0.00000000       0.00000000       0.00000000       0.00000000       0.00000000       0.15013236
Mo       0.00000000       0.00000000       5.76161616       0.00000000       0.00000000      -0.15013236
2
Properties=species:S:1:pos:R:3:forces:R:3 energy=-40.89091159988177 pbc="F F F"
Mo       0.00000000       0.00000000       0.00000000       0.00000000       0.00000000       0.11935606
Mo       0.00000000       0.00000000       5.82121212       0.00000000       0.00000000      -0.11935606
2
Properties=species:S:1:pos:R:3:forces:R:3 energy=-40.885599480258705 pbc="F F F"
Mo       0.00000000       0.00000000       0.00000000       0.00000000       0.00000000       0.05974763
Mo       0.00000000       0.00000000       5.88080808       0.00000000       0.00000000      -0.05974763
2
Properties=species:S:1:pos:R:3:forces:R:3 energy=-40.883358916726344 pbc="F F F"
Mo       0.00000000       0.00000000       0.00000000       0.00000000       0.00000000       0.01945720
Mo       0.00000000       0.00000000       5.94040404       0.00000000       0.00000000      -0.01945720
2
Properties=species:S:1:pos:R:3:forces:R:3 energy=-40.88272973079219 pbc="F F F"
Mo       0.00000000       0.00000000       0.00000000       0.00000000       0.00000000       0.00628313
Mo       0.00000000       0.00000000       6.00000000       0.00000000       0.00000000      -0.00628313
