2
Properties=species:S:1:pos:R:3:forces:R:3 energy=-86673.66354868919 pbc="F F F"
Nd       0.00000000       0.00000000       0.00000000       0.00000000       0.00000000 -184839.35937500
Nd       0.00000000       0.00000000       0.18000000       0.00000000       0.00000000  184839.35937500
2
Properties=species:S:1:pos:R:3:forces:R:3 energy=-92830.67136118919 pbc="F F F"
Nd       0.00000000       0.00000000       0.00000000       0.00000000       0.00000000  -49962.83203125
Nd       0.00000000       0.00000000       0.23878788       0.00000000       0.00000000   49962.83203125
2
Properties=species:S:1:pos:R:3:forces:R:3 energy=-93989.21823618919 pbc="F F F"
Nd       0.00000000       0.00000000       0.00000000       0.00000000       0.00000000    5327.33105469
Nd       0.00000000       0.00000000       0.29757576       0.00000000       0.00000000   -5327.33105469
2
Properties=species:S:1:pos:R:3:forces:R:3 energy=-92467.02292368919 pbc="F F F"
Nd       0.00000000       0.00000000       0.00000000       0.00000000       0.00000000   46105.24609375
Nd       0.00000000       0.00000000       0.35636364       0.00000000       0.00000000  -46105.24609375
2
Properties=species:S:1:pos:R:3:forces:R:3 energy=-88512.46823618919 pbc="F F F"
Nd       0.00000000       0.00000000       0.00000000       0.00000000       0.00000000   89360.09375000
Nd       0.00000000       0.00000000       0.41515152       0.00000000       0.00000000  -89360.09375000
2
Properties=species:S:1:pos:R:3:forces:R:3 energy=-80973.17917368602 pbc="F F F"
Nd       0.00000000       0.00000000       0.00000000       0.00000000       0.00000000  212155.98437500
Nd       0.00000000       0.00000000       0.47393939       0.00000000       0.00000000 -212155.98437500
2
Properties=species:S:1:pos:R:3:forces:R:3 energy=-66797.65573618286 pbc="F F F"
Nd       0.00000000       0.00000000       0.00000000       0.00000000       0.00000000  266772.25000000
Nd       0.00000000       0.00000000       0.53272727       0.00000000       0.00000000 -266772.25000000
2
Properties=species:S:1:pos:R:3:forces:R:3 energy=-50193.97604868285 pbc="F F F"
Nd       0.00000000       0.00000000       0.00000000       0.00000000       0.00000000  291657.37500000
Nd       0.00000000       0.00000000       0.59151515       0.00000000       0.00000000 -291657.37500000
2
Properties=species:S:1:pos:R:3:forces:R:3 energy=-33357.343236176515 pbc="F F F"
Nd       0.00000000       0.00000000       0.00000000       0.00000000       0.00000000  273625.93750000
Nd       0.00000000       0.00000000       0.65030303       0.00000000       0.00000000 -273625.93750000
2
Properties=species:S:1:pos:R:3:forces:R:3 energy=-17927.253392417013 pbc="F F F"
Nd       0.00000000       0.00000000       0.00000000       0.00000000       0.00000000  228552.15625000
Nd       0.00000000       0.00000000       0.70909091       0.00000000       0.00000000 -228552.15625000
2
Properties=species:S:1:pos:R:3:forces:R:3 energy=-7374.932103345011 pbc="F F F"
Nd       0.00000000       0.00000000       0.00000000       0.00000000       0.00000000  130479.21875000
Nd       0.00000000       0.00000000       0.76787879       0.00000000       0.00000000 -130479.21875000
2
Properties=species:S:1:pos:R:3:forces:R:3 energy=1154.5365246068518 pbc="F F F"
Nd       0.00000000       0.00000000       0.00000000       0.00000000       0.00000000   73391.32031250
Nd       0.00000000       0.00000000       0.82666667       0.00000000       0.00000000  -73391.32031250
2
Properties=species:S:1:pos:R:3:forces:R:3 energy=1480.6053722852766 pbc="F F F"
Nd       0.00000000       0.00000000       0.00000000       0.00000000       0.00000000  -30321.47851562
Nd       0.00000000       0.00000000       0.88545455       0.00000000       0.00000000   30321.47851562
2
Properties=species:S:1:pos:R:3:forces:R:3 energy=20.68075074125918 pbc="F F F"
Nd       0.00000000       0.00000000       0.00000000       0.00000000       0.00000000   -9784.10058594
Nd       0.00000000       0.00000000       0.94424242       0.00000000       0.00000000    9784.10058594
2
Properties=species:S:1:pos:R:3:forces:R:3 energy=-38.44196802542647 pbc="F F F"
Nd       0.00000000       0.00000000       0.00000000       0.00000000       0.00000000     294.55548096
Nd       0.00000000       0.00000000       1.00303030       0.00000000       0.00000000    -294.55548096
2
Properties=species:S:1:pos:R:3:forces:R:3 energy=210.45600414803138 pbc="F F F"
Nd       0.00000000       0.00000000       0.00000000       0.00000000       0.00000000    2466.42797852
Nd       0.00000000       0.00000000       1.06181818       0.00000000       0.00000000   -2466.42797852
2
Properties=species:S:1:pos:R:3:forces:R:3 energy=121.99135884782041 pbc="F F F"
Nd       0.00000000       0.00000000       0.00000000       0.00000000       0.00000000    -597.21942139
Nd       0.00000000       0.00000000       1.12060606       0.00000000       0.00000000     597.21942139
2
Properties=species:S:1:pos:R:3:forces:R:3 energy=92.97689362666293 pbc="F F F"
Nd       0.00000000       0.00000000       0.00000000       0.00000000       0.00000000    -441.70547485
Nd       0.00000000       0.00000000       1.17939394       0.00000000       0.00000000     441.70547485
2
Properties=species:S:1:pos:R:3:forces:R:3 energy=64.64939437639866 pbc="F F F"
Nd       0.00000000       0.00000000       0.00000000       0.00000000       0.00000000    -547.16741943
Nd       0.00000000       0.00000000       1.23818182       0.00000000       0.00000000     547.16741943
2
Properties=species:S:1:pos:R:3:forces:R:3 energy=28.840488008124392 pbc="F F F"
Nd       0.00000000       0.00000000       0.00000000       0.00000000       0.00000000    -645.56335449
Nd       0.00000000       0.00000000       1.29696970       0.00000000       0.00000000     645.56335449
2
Properties=species:S:1:pos:R:3:forces:R:3 energy=-7.012684066038508 pbc="F F F"
Nd       0.00000000       0.00000000       0.00000000       0.00000000       0.00000000    -551.01898193
Nd       0.00000000       0.00000000       1.35575758       0.00000000       0.00000000     551.01898193
2
Properties=species:S:1:pos:R:3:forces:R:3 energy=-35.47170630290717 pbc="F F F"
Nd       0.00000000       0.00000000       0.00000000       0.00000000       0.00000000    -372.01831055
Nd       0.00000000       0.00000000       1.41454545       0.00000000       0.00000000     372.01831055
2
Properties=species:S:1:pos:R:3:forces:R:3 energy=-45.098918472525156 pbc="F F F"
Nd       0.00000000       0.00000000       0.00000000       0.00000000       0.00000000     -67.19293213
Nd       0.00000000       0.00000000       1.47333333       0.00000000       0.00000000      67.19293213
2
Properties=species:S:1:pos:R:3:forces:R:3 energy=-49.11645039033415 pbc="F F F"
Nd       0.00000000       0.00000000       0.00000000       0.00000000       0.00000000     -69.34597015
Nd       0.00000000       0.00000000       1.53212121       0.00000000       0.00000000      69.34597015
2
Properties=species:S:1:pos:R:3:forces:R:3 energy=-52.99048093137021 pbc="F F F"
Nd       0.00000000       0.00000000       0.00000000       0.00000000       0.00000000     -60.54157639
Nd       0.00000000       0.00000000       1.59090909       0.00000000       0.00000000      60.54157639
2
Properties=species:S:1:pos:R:3:forces:R:3 energy=-56.06055246871022 pbc="F F F"
Nd       0.00000000       0.00000000       0.00000000       0.00000000       0.00000000     -43.25264359
Nd       0.00000000       0.00000000       1.64969697       0.00000000       0.00000000      43.25264359
2
Properties=species:S:1:pos:R:3:forces:R:3 energy=-58.11229425897602 pbc="F F F"
Nd       0.00000000       0.00000000       0.00000000       0.00000000       0.00000000     -27.38472176
Nd       0.00000000       0.00000000       1.70848485       0.00000000       0.00000000      27.38472176
2
Properties=species:S:1:pos:R:3:forces:R:3 energy=-59.38329324875487 pbc="F F F"
Nd       0.00000000       0.00000000       0.00000000       0.00000000       0.00000000     -16.71353912
Nd       0.00000000       0.00000000       1.76727273       0.00000000       0.00000000      16.71353912
2
Properties=species:S:1:pos:R:3:forces:R:3 energy=-60.16791054304524 pbc="F F F"
Nd       0.00000000       0.00000000       0.00000000       0.00000000       0.00000000     -10.58770275
Nd       0.00000000       0.00000000       1.82606061       0.00000000       0.00000000      10.58770275
2
Properties=species:S:1:pos:R:3:forces:R:3 energy=-60.680413840881805 pbc="F F F"
Nd       0.00000000       0.00000000       0.00000000       0.00000000       0.00000000      -7.18208838
Nd       0.00000000       0.00000000       1.88484848       0.00000000       0.00000000       7.18208838
2
Properties=species:S:1:pos:R:3:forces:R:3 energy=-61.04531864403362 pbc="F F F"
Nd       0.00000000       0.00000000       0.00000000       0.00000000       0.00000000      -5.47093487
Nd       0.00000000       0.00000000       1.94363636       0.00000000       0.00000000       5.47093487
2
Properties=species:S:1:pos:R:3:forces:R:3 energy=-61.34657116152109 pbc="F F F"
Nd       0.00000000       0.00000000       0.00000000       0.00000000       0.00000000      -4.92045212
Nd       0.00000000       0.00000000       2.00242424       0.00000000       0.00000000       4.92045212
2
Properties=species:S:1:pos:R:3:forces:R:3 energy=-61.63283543567663 pbc="F F F"
Nd       0.00000000       0.00000000       0.00000000       0.00000000       0.00000000      -4.82446384
Nd       0.00000000       0.00000000       2.06121212       0.00000000       0.00000000       4.82446384
2
Properties=species:S:1:pos:R:3:forces:R:3 energy=-61.90769343555446 pbc="F F F"
Nd       0.00000000       0.00000000       0.00000000       0.00000000       0.00000000      -4.43676567
Nd       0.00000000       0.00000000       2.12000000       0.00000000       0.00000000       4.43676567
2
Properties=species:S:1:pos:R:3:forces:R:3 energy=-62.14363352962883 pbc="F F F"
Nd       0.00000000       0.00000000       0.00000000       0.00000000       0.00000000      -3.51255798
Nd       0.00000000       0.00000000       2.17878788       0.00000000       0.00000000       3.51255798
2
Properties=species:S:1:pos:R:3:forces:R:3 energy=-62.31474623705082 pbc="F F F"
Nd       0.00000000       0.00000000       0.00000000       0.00000000       0.00000000      -2.28615856
Nd       0.00000000       0.00000000       2.23757576       0.00000000       0.00000000       2.28615856
2
Properties=species:S:1:pos:R:3:forces:R:3 energy=-62.4125552561467 pbc="F F F"
Nd       0.00000000       0.00000000       0.00000000       0.00000000       0.00000000      -1.06237006
Nd       0.00000000       0.00000000       2.29636364       0.00000000       0.00000000       1.06237006
2
Properties=species:S:1:pos:R:3:forces:R:3 energy=-62.44379347373734 pbc="F F F"
Nd       0.00000000       0.00000000       0.00000000       0.00000000       0.00000000      -0.04619427
Nd       0.00000000       0.00000000       2.35515152       0.00000000       0.00000000       0.04619427
2
Properties=species:S:1:pos:R:3:forces:R:3 energy=-62.424032420704556 pbc="F F F"
Nd       0.00000000       0.00000000       0.00000000       0.00000000       0.00000000       0.66437489
Nd       0.00000000       0.00000000       2.41393939       0.00000000       0.00000000      -0.66437489
2
Properties=species:S:1:pos:R:3:forces:R:3 energy=-62.37196404079001 pbc="F F F"
Nd       0.00000000       0.00000000       0.00000000       0.00000000       0.00000000       1.05628085
Nd       0.00000000       0.00000000       2.47272727       0.00000000       0.00000000      -1.05628085
2
Properties=species:S:1:pos:R:3:forces:R:3 energy=-62.305235069691506 pbc="F F F"
Nd       0.00000000       0.00000000       0.00000000       0.00000000       0.00000000       1.17382979
Nd       0.00000000       0.00000000       2.53151515       0.00000000       0.00000000      -1.17382979
2
Properties=species:S:1:pos:R:3:forces:R:3 energy=-62.23790639283112 pbc="F F F"
Nd       0.00000000       0.00000000       0.00000000       0.00000000       0.00000000       1.08947253
Nd       0.00000000       0.00000000       2.59030303       0.00000000       0.00000000      -1.08947253
2
Properties=species:S:1:pos:R:3:forces:R:3 energy=-62.17966344103507 pbc="F F F"
Nd       0.00000000       0.00000000       0.00000000       0.00000000       0.00000000       0.87570363
Nd       0.00000000       0.00000000       2.64909091       0.00000000       0.00000000      -0.87570363
2
Properties=species:S:1:pos:R:3:forces:R:3 energy=-62.13635787437763 pbc="F F F"
Nd       0.00000000       0.00000000       0.00000000       0.00000000       0.00000000       0.58916420
Nd       0.00000000       0.00000000       2.70787879       0.00000000       0.00000000      -0.58916420
2
Properties=species:S:1:pos:R:3:forces:R:3 energy=-62.11097650895095 pbc="F F F"
Nd       0.00000000       0.00000000       0.00000000       0.00000000       0.00000000       0.27245486
Nd       0.00000000       0.00000000       2.76666667       0.00000000       0.00000000      -0.27245486
2
Properties=species:S:1:pos:R:3:forces:R:3 energy=-62.10417916700472 pbc="F F F"
Nd       0.00000000       0.00000000       0.00000000       0.00000000       0.00000000      -0.03678609
Nd       0.00000000       0.00000000       2.82545455       0.00000000       0.00000000       0.03678609
2
Properties=species:S:1:pos:R:3:forces:R:3 energy=-62.11444750082476 pbc="F F F"
Nd       0.00000000       0.00000000       0.00000000       0.00000000       0.00000000      -0.30245224
Nd       0.00000000       0.00000000       2.88424242       0.00000000       0.00000000       0.30245224
2
Properties=species:S:1:pos:R:3:forces:R:3 energy=-62.13827947576921 pbc="F F F"
Nd       0.00000000       0.00000000       0.00000000       0.00000000       0.00000000      -0.49407524
Nd       0.00000000       0.00000000       2.94303030       0.00000000       0.00000000       0.49407524
2
Properties=species:S:1:pos:R:3:forces:R:3 energy=-62.17070062206558 pbc="F F F"
Nd       0.00000000       0.00000000       0.00000000       0.00000000       0.00000000      -0.59238935
Nd       0.00000000       0.00000000       3.00181818       0.00000000       0.00000000       0.59238935
2
Properties=species:S:1:pos:R:3:forces:R:3 energy=-62.2059925532894 pbc="F F F"
Nd       0.00000000       0.00000000       0.00000000       0.00000000       0.00000000      -0.59219724
Nd       0.00000000       0.00000000       3.06060606       0.00000000       0.00000000       0.59219724
2
Properties=species:S:1:pos:R:3:forces:R:3 energy=-62.23856278069727 pbc="F F F"
Nd       0.00000000       0.00000000       0.00000000       0.00000000       0.00000000      -0.50241590
Nd       0.00000000       0.00000000       3.11939394       0.00000000       0.00000000       0.50241590
2
Properties=species:S:1:pos:R:3:forces:R:3 energy=-62.26370761783393 pbc="F F F"
Nd       0.00000000       0.00000000       0.00000000       0.00000000       0.00000000      -0.34353501
Nd       0.00000000       0.00000000       3.17818182       0.00000000       0.00000000       0.34353501
2
Properties=species:S:1:pos:R:3:forces:R:3 energy=-62.27812719950915 pbc="F F F"
Nd       0.00000000       0.00000000       0.00000000       0.00000000       0.00000000      -0.14226341
Nd       0.00000000       0.00000000       3.23696970       0.00000000       0.00000000       0.14226341
2
Properties=species:S:1:pos:R:3:forces:R:3 energy=-62.28011615647239 pbc="F F F"
Nd       0.00000000       0.00000000       0.00000000       0.00000000       0.00000000       0.07540993
Nd       0.00000000       0.00000000       3.29575758       0.00000000       0.00000000      -0.07540993
2
Properties=species:S:1:pos:R:3:forces:R:3 energy=-62.2693195286408 pbc="F F F"
Nd       0.00000000       0.00000000       0.00000000       0.00000000       0.00000000       0.29036632
Nd       0.00000000       0.00000000       3.35454545       0.00000000       0.00000000      -0.29036632
2
Properties=species:S:1:pos:R:3:forces:R:3 energy=-62.24620251901146 pbc="F F F"
Nd       0.00000000       0.00000000       0.00000000       0.00000000       0.00000000       0.49415049
Nd       0.00000000       0.00000000       3.41333333       0.00000000       0.00000000      -0.49415049
2
Properties=species:S:1:pos:R:3:forces:R:3 energy=-62.211390497181455 pbc="F F F"
Nd       0.00000000       0.00000000       0.00000000       0.00000000       0.00000000       0.68954349
Nd       0.00000000       0.00000000       3.47212121       0.00000000       0.00000000      -0.68954349
2
Properties=species:S:1:pos:R:3:forces:R:3 energy=-62.16508923505557 pbc="F F F"
Nd       0.00000000       0.00000000       0.00000000       0.00000000       0.00000000       0.88701123
Nd       0.00000000       0.00000000       3.53090909       0.00000000       0.00000000      -0.88701123
2
Properties=species:S:1:pos:R:3:forces:R:3 energy=-62.106852159627955 pbc="F F F"
Nd       0.00000000       0.00000000       0.00000000       0.00000000       0.00000000       1.09677029
Nd       0.00000000       0.00000000       3.58969697       0.00000000       0.00000000      -1.09677029
2
Properties=species:S:1:pos:R:3:forces:R:3 energy=-62.03588172990521 pbc="F F F"
Nd       0.00000000       0.00000000       0.00000000       0.00000000       0.00000000       1.31881583
Nd       0.00000000       0.00000000       3.64848485       0.00000000       0.00000000      -1.31881583
2
Properties=species:S:1:pos:R:3:forces:R:3 energy=-61.95185724205216 pbc="F F F"
Nd       0.00000000       0.00000000       0.00000000       0.00000000       0.00000000       1.53700578
Nd       0.00000000       0.00000000       3.70727273       0.00000000       0.00000000      -1.53700578
2
Properties=species:S:1:pos:R:3:forces:R:3 energy=-61.855804570864876 pbc="F F F"
Nd       0.00000000       0.00000000       0.00000000       0.00000000       0.00000000       1.72255528
Nd       0.00000000       0.00000000       3.76606061       0.00000000       0.00000000      -1.72255528
2
Properties=species:S:1:pos:R:3:forces:R:3 energy=-61.750553917603554 pbc="F F F"
Nd       0.00000000       0.00000000       0.00000000       0.00000000       0.00000000       1.84585536
Nd       0.00000000       0.00000000       3.82484848       0.00000000       0.00000000      -1.84585536
2
Properties=species:S:1:pos:R:3:forces:R:3 energy=-61.640362183473506 pbc="F F F"
Nd       0.00000000       0.00000000       0.00000000       0.00000000       0.00000000       1.88882196
Nd       0.00000000       0.00000000       3.88363636       0.00000000       0.00000000      -1.88882196
2
Properties=species:S:1:pos:R:3:forces:R:3 energy=-61.530081349782236 pbc="F F F"
Nd       0.00000000       0.00000000       0.00000000       0.00000000       0.00000000       1.85027397
Nd       0.00000000       0.00000000       3.94242424       0.00000000       0.00000000      -1.85027397
2
Properties=species:S:1:pos:R:3:forces:R:3 energy=-61.42416664081118 pbc="F F F"
Nd       0.00000000       0.00000000       0.00000000       0.00000000       0.00000000       1.74319851
Nd       0.00000000       0.00000000       4.00121212       0.00000000       0.00000000      -1.74319851
2
Properties=species:S:1:pos:R:3:forces:R:3 energy=-61.32607000278966 pbc="F F F"
Nd       0.00000000       0.00000000       0.00000000       0.00000000       0.00000000       1.58793795
Nd       0.00000000       0.00000000       4.06000000       0.00000000       0.00000000      -1.58793795
2
Properties=species:S:1:pos:R:3:forces:R:3 energy=-61.23798452551369 pbc="F F F"
Nd       0.00000000       0.00000000       0.00000000       0.00000000       0.00000000       1.40595758
Nd       0.00000000       0.00000000       4.11878788       0.00000000       0.00000000      -1.40595758
2
Properties=species:S:1:pos:R:3:forces:R:3 energy=-61.160913094225464 pbc="F F F"
Nd       0.00000000       0.00000000       0.00000000       0.00000000       0.00000000       1.21608877
Nd       0.00000000       0.00000000       4.17757576       0.00000000       0.00000000      -1.21608877
2
Properties=species:S:1:pos:R:3:forces:R:3 energy=-61.094862951845215 pbc="F F F"
Nd       0.00000000       0.00000000       0.00000000       0.00000000       0.00000000       1.03310513
Nd       0.00000000       0.00000000       4.23636364       0.00000000       0.00000000      -1.03310513
2
Properties=species:S:1:pos:R:3:forces:R:3 energy=-61.03909745631943 pbc="F F F"
Nd       0.00000000       0.00000000       0.00000000       0.00000000       0.00000000       0.86760783
Nd       0.00000000       0.00000000       4.29515152       0.00000000       0.00000000      -0.86760783
2
Properties=species:S:1:pos:R:3:forces:R:3 energy=-60.99237260135484 pbc="F F F"
Nd       0.00000000       0.00000000       0.00000000       0.00000000       0.00000000       0.72664976
Nd       0.00000000       0.00000000       4.35393939       0.00000000       0.00000000      -0.72664976
2
Properties=species:S:1:pos:R:3:forces:R:3 energy=-60.95310105790421 pbc="F F F"
Nd       0.00000000       0.00000000       0.00000000       0.00000000       0.00000000       0.61441982
Nd       0.00000000       0.00000000       4.41272727       0.00000000       0.00000000      -0.61441982
2
Properties=species:S:1:pos:R:3:forces:R:3 energy=-60.91952762806593 pbc="F F F"
Nd       0.00000000       0.00000000       0.00000000       0.00000000       0.00000000       0.53296709
Nd       0.00000000       0.00000000       4.47151515       0.00000000       0.00000000      -0.53296709
2
Properties=species:S:1:pos:R:3:forces:R:3 energy=-60.889824634690285 pbc="F F F"
Nd       0.00000000       0.00000000       0.00000000       0.00000000       0.00000000       0.48254529
Nd       0.00000000       0.00000000       4.53030303       0.00000000       0.00000000      -0.48254529
2
Properties=species:S:1:pos:R:3:forces:R:3 energy=-60.8622101801626 pbc="F F F"
Nd       0.00000000       0.00000000       0.00000000       0.00000000       0.00000000       0.46164036
Nd       0.00000000       0.00000000       4.58909091       0.00000000       0.00000000      -0.46164036
2
Properties=species:S:1:pos:R:3:forces:R:3 energy=-60.83503585592992 pbc="F F F"
Nd       0.00000000       0.00000000       0.00000000       0.00000000       0.00000000       0.46678436
Nd       0.00000000       0.00000000       4.64787879       0.00000000       0.00000000      -0.46678436
2
Properties=species:S:1:pos:R:3:forces:R:3 energy=-60.80692412545554 pbc="F F F"
Nd       0.00000000       0.00000000       0.00000000       0.00000000       0.00000000       0.49243462
Nd       0.00000000       0.00000000       4.70666667       0.00000000       0.00000000      -0.49243462
2
Properties=species:S:1:pos:R:3:forces:R:3 energy=-60.77687889341891 pbc="F F F"
Nd       0.00000000       0.00000000       0.00000000       0.00000000       0.00000000       0.53129190
Nd       0.00000000       0.00000000       4.76545455       0.00000000       0.00000000      -0.53129190
2
Properties=species:S:1:pos:R:3:forces:R:3 energy=-60.74435803881669 pbc="F F F"
Nd       0.00000000       0.00000000       0.00000000       0.00000000       0.00000000       0.57510227
Nd       0.00000000       0.00000000       4.82424242       0.00000000       0.00000000      -0.57510227
2
Properties=species:S:1:pos:R:3:forces:R:3 energy=-60.70932679221403 pbc="F F F"
Nd       0.00000000       0.00000000       0.00000000       0.00000000       0.00000000       0.61573404
Nd       0.00000000       0.00000000       4.88303030       0.00000000       0.00000000      -0.61573404
2
Properties=species:S:1:pos:R:3:forces:R:3 energy=-60.67216238415205 pbc="F F F"
Nd       0.00000000       0.00000000       0.00000000       0.00000000       0.00000000       0.64626670
Nd       0.00000000       0.00000000       4.94181818       0.00000000       0.00000000      -0.64626670
2
Properties=species:S:1:pos:R:3:forces:R:3 energy=-60.63363498116501 pbc="F F F"
Nd       0.00000000       0.00000000       0.00000000       0.00000000       0.00000000       0.66167718
Nd       0.00000000       0.00000000       5.00060606       0.00000000       0.00000000      -0.66167718
2
Properties=species:S:1:pos:R:3:forces:R:3 energy=-60.59471311404495 pbc="F F F"
Nd       0.00000000       0.00000000       0.00000000       0.00000000       0.00000000       0.65939546
Nd       0.00000000       0.00000000       5.05939394       0.00000000       0.00000000      -0.65939546
2
Properties=species:S:1:pos:R:3:forces:R:3 energy=-60.55645308646709 pbc="F F F"
Nd       0.00000000       0.00000000       0.00000000       0.00000000       0.00000000       0.63957959
Nd       0.00000000       0.00000000       5.11818182       0.00000000       0.00000000      -0.63957959
2
Properties=species:S:1:pos:R:3:forces:R:3 energy=-60.519800594892864 pbc="F F F"
Nd       0.00000000       0.00000000       0.00000000       0.00000000       0.00000000       0.60540599
Nd       0.00000000       0.00000000       5.17696970       0.00000000       0.00000000      -0.60540599
2
Properties=species:S:1:pos:R:3:forces:R:3 energy=-60.48544197438351 pbc="F F F"
Nd       0.00000000       0.00000000       0.00000000       0.00000000       0.00000000       0.56275731
Nd       0.00000000       0.00000000       5.23575758       0.00000000       0.00000000      -0.56275731
2
Properties=species:S:1:pos:R:3:forces:R:3 energy=-60.453659221097055 pbc="F F F"
Nd       0.00000000       0.00000000       0.00000000       0.00000000       0.00000000       0.51879209
Nd       0.00000000       0.00000000       5.29454545       0.00000000       0.00000000      -0.51879209
2
Properties=species:S:1:pos:R:3:forces:R:3 energy=-60.42435292482139 pbc="F F F"
Nd       0.00000000       0.00000000       0.00000000       0.00000000       0.00000000       0.47903869
Nd       0.00000000       0.00000000       5.35333333       0.00000000       0.00000000      -0.47903869
2
Properties=species:S:1:pos:R:3:forces:R:3 energy=-60.39727110962855 pbc="F F F"
Nd       0.00000000       0.00000000       0.00000000       0.00000000       0.00000000       0.44211799
Nd       0.00000000       0.00000000       5.41212121       0.00000000       0.00000000      -0.44211799
2
Properties=species:S:1:pos:R:3:forces:R:3 energy=-60.372543326337926 pbc="F F F"
Nd       0.00000000       0.00000000       0.00000000       0.00000000       0.00000000       0.39695132
Nd       0.00000000       0.00000000       5.47090909       0.00000000       0.00000000      -0.39695132
2
Properties=species:S:1:pos:R:3:forces:R:3 energy=-60.3507607548232 pbc="F F F"
Nd       0.00000000       0.00000000       0.00000000       0.00000000       0.00000000       0.34414840
Nd       0.00000000       0.00000000       5.52969697       0.00000000       0.00000000      -0.34414840
2
Properties=species:S:1:pos:R:3:forces:R:3 energy=-60.33200728991381 pbc="F F F"
Nd       0.00000000       0.00000000       0.00000000       0.00000000       0.00000000       0.29390848
Nd       0.00000000       0.00000000       5.58848485       0.00000000       0.00000000      -0.29390848
2
Properties=species:S:1:pos:R:3:forces:R:3 energy=-60.316309640826276 pbc="F F F"
Nd       0.00000000       0.00000000       0.00000000       0.00000000       0.00000000       0.23926795
Nd       0.00000000       0.00000000       5.64727273       0.00000000       0.00000000      -0.23926795
2
Properties=species:S:1:pos:R:3:forces:R:3 energy=-60.30393111670658 pbc="F F F"
Nd       0.00000000       0.00000000       0.00000000       0.00000000       0.00000000       0.18293555
Nd       0.00000000       0.00000000       5.70606061       0.00000000       0.00000000      -0.18293555
2
Properties=species:S:1:pos:R:3:forces:R:3 energy=-60.29427678634021 pbc="F F F"
Nd       0.00000000       0.00000000       0.00000000       0.00000000       0.00000000       0.15191515
Nd       0.00000000       0.00000000       5.76484848       0.00000000       0.00000000      -0.15191515
2
Properties=species:S:1:pos:R:3:forces:R:3 energy=-60.285416644161785 pbc="F F F"
Nd       0.00000000       0.00000000       0.00000000       0.00000000       0.00000000       0.14970422
Nd       0.00000000       0.00000000       5.82363636       0.00000000       0.00000000      -0.14970422
2
Properties=species:S:1:pos:R:3:forces:R:3 energy=-60.27750357266939 pbc="F F F"
Nd       0.00000000       0.00000000       0.00000000       0.00000000       0.00000000       0.11084497
Nd       0.00000000       0.00000000       5.88242424       0.00000000       0.00000000      -0.11084497
2
Properties=species:S:1:pos:R:3:forces:R:3 energy=-60.27305184700319 pbc="F F F"
Nd       0.00000000       0.00000000       0.00000000       0.00000000       0.00000000       0.04055646
Nd       0.00000000       0.00000000       5.94121212       0.00000000       0.00000000      -0.04055646
2
Properties=species:S:1:pos:R:3:forces:R:3 energy=-60.27193603198417 pbc="F F F"
Nd       0.00000000       0.00000000       0.00000000       0.00000000       0.00000000       0.00812506
Nd       0.00000000       0.00000000       6.00000000       0.00000000       0.00000000      -0.00812506
