2
Properties=species:S:1:pos:R:3:forces:R:3 energy=-4082.4202244580815 pbc="F F F"
P        0.00000000       0.00000000       0.00000000       0.00000000       0.00000000  -17826.63867188
P        0.00000000       0.00000000       0.18000000       0.00000000       0.00000000   17826.63867188
2
Properties=species:S:1:pos:R:3:forces:R:3 energy=-4321.102841645582 pbc="F F F"
P        0.00000000       0.00000000       0.00000000       0.00000000       0.00000000    6803.16699219
P        0.00000000       0.00000000       0.23878788       0.00000000       0.00000000   -6803.16699219
2
Properties=species:S:1:pos:R:3:forces:R:3 energy=-3416.79180648854 pbc="F F F"
P        0.00000000       0.00000000       0.00000000       0.00000000       0.00000000   23190.42578125
P        0.00000000       0.00000000       0.29757576       0.00000000       0.00000000  -23190.42578125
2
Properties=species:S:1:pos:R:3:forces:R:3 energy=-1832.6880467229148 pbc="F F F"
P        0.00000000       0.00000000       0.00000000       0.00000000       0.00000000   27251.03906250
P        0.00000000       0.00000000       0.35636364       0.00000000       0.00000000  -27251.03906250
2
Properties=species:S:1:pos:R:3:forces:R:3 energy=938.2719752521174 pbc="F F F"
P        0.00000000       0.00000000       0.00000000       0.00000000       0.00000000   37909.82421875
P        0.00000000       0.00000000       0.41515152       0.00000000       0.00000000  -37909.82421875
2
Properties=species:S:1:pos:R:3:forces:R:3 energy=1825.914492344337 pbc="F F F"
P        0.00000000       0.00000000       0.00000000       0.00000000       0.00000000    2971.30053711
P        0.00000000       0.00000000       0.47393939       0.00000000       0.00000000   -2971.30053711
2
Properties=species:S:1:pos:R:3:forces:R:3 energy=1642.4651515303601 pbc="F F F"
P        0.00000000       0.00000000       0.00000000       0.00000000       0.00000000  -11431.07324219
P        0.00000000       0.00000000       0.53272727       0.00000000       0.00000000   11431.07324219
2
Properties=species:S:1:pos:R:3:forces:R:3 energy=480.56051897071234 pbc="F F F"
P        0.00000000       0.00000000       0.00000000       0.00000000       0.00000000  -10462.49023438
P        0.00000000       0.00000000       0.59151515       0.00000000       0.00000000   10462.49023438
2
Properties=species:S:1:pos:R:3:forces:R:3 energy=366.1370875892751 pbc="F F F"
P        0.00000000       0.00000000       0.00000000       0.00000000       0.00000000    2467.77026367
P        0.00000000       0.00000000       0.65030303       0.00000000       0.00000000   -2467.77026367
2
Properties=species:S:1:pos:R:3:forces:R:3 energy=535.4570339020962 pbc="F F F"
P        0.00000000       0.00000000       0.00000000       0.00000000       0.00000000    -350.20162964
P        0.00000000       0.00000000       0.70909091       0.00000000       0.00000000     350.20162964
2
Properties=species:S:1:pos:R:3:forces:R:3 energy=487.2637966338387 pbc="F F F"
P        0.00000000       0.00000000       0.00000000       0.00000000       0.00000000   -1070.02026367
P        0.00000000       0.00000000       0.76787879       0.00000000       0.00000000    1070.02026367
2
Properties=species:S:1:pos:R:3:forces:R:3 energy=454.8463467365198 pbc="F F F"
P        0.00000000       0.00000000       0.00000000       0.00000000       0.00000000    -486.04241943
P        0.00000000       0.00000000       0.82666667       0.00000000       0.00000000     486.04241943
2
Properties=species:S:1:pos:R:3:forces:R:3 energy=362.272494274277 pbc="F F F"
P        0.00000000       0.00000000       0.00000000       0.00000000       0.00000000   -2406.87719727
P        0.00000000       0.00000000       0.88545455       0.00000000       0.00000000    2406.87719727
2
Properties=species:S:1:pos:R:3:forces:R:3 energy=208.29098803353475 pbc="F F F"
P        0.00000000       0.00000000       0.00000000       0.00000000       0.00000000   -2278.54956055
P        0.00000000       0.00000000       0.94424242       0.00000000       0.00000000    2278.54956055
2
Properties=species:S:1:pos:R:3:forces:R:3 energy=91.74402925749864 pbc="F F F"
P        0.00000000       0.00000000       0.00000000       0.00000000       0.00000000    -963.58837891
P        0.00000000       0.00000000       1.00303030       0.00000000       0.00000000     963.58837891
2
Properties=species:S:1:pos:R:3:forces:R:3 energy=59.59756033848463 pbc="F F F"
P        0.00000000       0.00000000       0.00000000       0.00000000       0.00000000    -507.14944458
P        0.00000000       0.00000000       1.06181818       0.00000000       0.00000000     507.14944458
2
Properties=species:S:1:pos:R:3:forces:R:3 energy=30.174138739296787 pbc="F F F"
P        0.00000000       0.00000000       0.00000000       0.00000000       0.00000000    -370.93624878
P        0.00000000       0.00000000       1.12060606       0.00000000       0.00000000     370.93624878
2
Properties=species:S:1:pos:R:3:forces:R:3 energy=17.48450666406618 pbc="F F F"
P        0.00000000       0.00000000       0.00000000       0.00000000       0.00000000    -129.24732971
P        0.00000000       0.00000000       1.17939394       0.00000000       0.00000000     129.24732971
2
Properties=species:S:1:pos:R:3:forces:R:3 energy=10.341949958644511 pbc="F F F"
P        0.00000000       0.00000000       0.00000000       0.00000000       0.00000000    -123.12526703
P        0.00000000       0.00000000       1.23818182       0.00000000       0.00000000     123.12526703
2
Properties=species:S:1:pos:R:3:forces:R:3 energy=3.5788651500938435 pbc="F F F"
P        0.00000000       0.00000000       0.00000000       0.00000000       0.00000000     -95.24877167
P        0.00000000       0.00000000       1.29696970       0.00000000       0.00000000      95.24877167
2
Properties=species:S:1:pos:R:3:forces:R:3 energy=-1.012560997598785 pbc="F F F"
P        0.00000000       0.00000000       0.00000000       0.00000000       0.00000000     -70.12186432
P        0.00000000       0.00000000       1.35575758       0.00000000       0.00000000      70.12186432
2
Properties=species:S:1:pos:R:3:forces:R:3 energy=-5.133853668049159 pbc="F F F"
P        0.00000000       0.00000000       0.00000000       0.00000000       0.00000000     -68.86373901
P        0.00000000       0.00000000       1.41454545       0.00000000       0.00000000      68.86373901
2
Properties=species:S:1:pos:R:3:forces:R:3 energy=-8.787534818932928 pbc="F F F"
P        0.00000000       0.00000000       0.00000000       0.00000000       0.00000000     -53.40055466
P        0.00000000       0.00000000       1.47333333       0.00000000       0.00000000      53.40055466
2
Properties=species:S:1:pos:R:3:forces:R:3 energy=-11.400139541783343 pbc="F F F"
P        0.00000000       0.00000000       0.00000000       0.00000000       0.00000000     -36.61129761
P        0.00000000       0.00000000       1.53212121       0.00000000       0.00000000      36.61129761
2
Properties=species:S:1:pos:R:3:forces:R:3 energy=-13.214700728492167 pbc="F F F"
P        0.00000000       0.00000000       0.00000000       0.00000000       0.00000000     -25.78029442
P        0.00000000       0.00000000       1.59090909       0.00000000       0.00000000      25.78029442
2
Properties=species:S:1:pos:R:3:forces:R:3 energy=-14.479824056523661 pbc="F F F"
P        0.00000000       0.00000000       0.00000000       0.00000000       0.00000000     -17.57206345
P        0.00000000       0.00000000       1.64969697       0.00000000       0.00000000      17.57206345
2
Properties=species:S:1:pos:R:3:forces:R:3 energy=-15.31587270908239 pbc="F F F"
P        0.00000000       0.00000000       0.00000000       0.00000000       0.00000000     -11.15632343
P        0.00000000       0.00000000       1.70848485       0.00000000       0.00000000      11.15632343
2
Properties=species:S:1:pos:R:3:forces:R:3 energy=-15.822276708624338 pbc="F F F"
P        0.00000000       0.00000000       0.00000000       0.00000000       0.00000000      -6.30774307
P        0.00000000       0.00000000       1.76727273       0.00000000       0.00000000       6.30774307
2
Properties=species:S:1:pos:R:3:forces:R:3 energy=-16.082227860268308 pbc="F F F"
P        0.00000000       0.00000000       0.00000000       0.00000000       0.00000000      -2.71805954
P        0.00000000       0.00000000       1.82606061       0.00000000       0.00000000       2.71805954
2
Properties=species:S:1:pos:R:3:forces:R:3 energy=-16.159605104215913 pbc="F F F"
P        0.00000000       0.00000000       0.00000000       0.00000000       0.00000000      -0.03656993
P        0.00000000       0.00000000       1.88484848       0.00000000       0.00000000       0.03656993
2
Properties=species:S:1:pos:R:3:forces:R:3 energy=-16.09877329047082 pbc="F F F"
P        0.00000000       0.00000000       0.00000000       0.00000000       0.00000000       2.01129889
P        0.00000000       0.00000000       1.94363636       0.00000000       0.00000000      -2.01129889
2
Properties=species:S:1:pos:R:3:forces:R:3 energy=-15.934055076901023 pbc="F F F"
P        0.00000000       0.00000000       0.00000000       0.00000000       0.00000000       3.50136828
P        0.00000000       0.00000000       2.00242424       0.00000000       0.00000000      -3.50136828
2
Properties=species:S:1:pos:R:3:forces:R:3 energy=-15.697083748714874 pbc="F F F"
P        0.00000000       0.00000000       0.00000000       0.00000000       0.00000000       4.48496199
P        0.00000000       0.00000000       2.06121212       0.00000000       0.00000000      -4.48496199
2
Properties=species:S:1:pos:R:3:forces:R:3 energy=-15.414380907080213 pbc="F F F"
P        0.00000000       0.00000000       0.00000000       0.00000000       0.00000000       5.07664871
P        0.00000000       0.00000000       2.12000000       0.00000000       0.00000000      -5.07664871
2
Properties=species:S:1:pos:R:3:forces:R:3 energy=-15.106240653543098 pbc="F F F"
P        0.00000000       0.00000000       0.00000000       0.00000000       0.00000000       5.35696697
P        0.00000000       0.00000000       2.17878788       0.00000000       0.00000000      -5.35696697
2
Properties=species:S:1:pos:R:3:forces:R:3 energy=-14.790456576182818 pbc="F F F"
P        0.00000000       0.00000000       0.00000000       0.00000000       0.00000000       5.33416939
P        0.00000000       0.00000000       2.23757576       0.00000000       0.00000000      -5.33416939
2
Properties=species:S:1:pos:R:3:forces:R:3 energy=-14.485229491515232 pbc="F F F"
P        0.00000000       0.00000000       0.00000000       0.00000000       0.00000000       4.99967480
P        0.00000000       0.00000000       2.29636364       0.00000000       0.00000000      -4.99967480
2
Properties=species:S:1:pos:R:3:forces:R:3 energy=-14.207596784075337 pbc="F F F"
P        0.00000000       0.00000000       0.00000000       0.00000000       0.00000000       4.41517258
P        0.00000000       0.00000000       2.35515152       0.00000000       0.00000000      -4.41517258
2
Properties=species:S:1:pos:R:3:forces:R:3 energy=-13.967576838986936 pbc="F F F"
P        0.00000000       0.00000000       0.00000000       0.00000000       0.00000000       3.76016283
P        0.00000000       0.00000000       2.41393939       0.00000000       0.00000000      -3.76016283
2
Properties=species:S:1:pos:R:3:forces:R:3 energy=-13.760997487922948 pbc="F F F"
P        0.00000000       0.00000000       0.00000000       0.00000000       0.00000000       3.33731079
P        0.00000000       0.00000000       2.47272727       0.00000000       0.00000000      -3.33731079
2
Properties=species:S:1:pos:R:3:forces:R:3 energy=-13.563997221991452 pbc="F F F"
P        0.00000000       0.00000000       0.00000000       0.00000000       0.00000000       3.47211576
P        0.00000000       0.00000000       2.53151515       0.00000000       0.00000000      -3.47211576
2
Properties=species:S:1:pos:R:3:forces:R:3 energy=-13.342607928262753 pbc="F F F"
P        0.00000000       0.00000000       0.00000000       0.00000000       0.00000000       4.10153627
P        0.00000000       0.00000000       2.59030303       0.00000000       0.00000000      -4.10153627
2
Properties=species:S:1:pos:R:3:forces:R:3 energy=-13.08428002948148 pbc="F F F"
P        0.00000000       0.00000000       0.00000000       0.00000000       0.00000000       4.60601091
P        0.00000000       0.00000000       2.64909091       0.00000000       0.00000000      -4.60601091
2
Properties=species:S:1:pos:R:3:forces:R:3 energy=-12.81429793023543 pbc="F F F"
P        0.00000000       0.00000000       0.00000000       0.00000000       0.00000000       4.46017981
P        0.00000000       0.00000000       2.70787879       0.00000000       0.00000000      -4.46017981
2
Properties=species:S:1:pos:R:3:forces:R:3 energy=-12.570713546820595 pbc="F F F"
P        0.00000000       0.00000000       0.00000000       0.00000000       0.00000000       3.77287626
P        0.00000000       0.00000000       2.76666667       0.00000000       0.00000000      -3.77287626
2
Properties=species:S:1:pos:R:3:forces:R:3 energy=-12.372339191364091 pbc="F F F"
P        0.00000000       0.00000000       0.00000000       0.00000000       0.00000000       2.99460077
P        0.00000000       0.00000000       2.82545455       0.00000000       0.00000000      -2.99460077
2
Properties=species:S:1:pos:R:3:forces:R:3 energy=-12.214412647049915 pbc="F F F"
P        0.00000000       0.00000000       0.00000000       0.00000000       0.00000000       2.42136192
P        0.00000000       0.00000000       2.88424242       0.00000000       0.00000000      -2.42136192
2
Properties=species:S:1:pos:R:3:forces:R:3 energy=-12.0829401463322 pbc="F F F"
P        0.00000000       0.00000000       0.00000000       0.00000000       0.00000000       2.08434367
P        0.00000000       0.00000000       2.94303030       0.00000000       0.00000000      -2.08434367
2
Properties=species:S:1:pos:R:3:forces:R:3 energy=-11.9665426039514 pbc="F F F"
P        0.00000000       0.00000000       0.00000000       0.00000000       0.00000000       1.89068639
P        0.00000000       0.00000000       3.00181818       0.00000000       0.00000000      -1.89068639
2
Properties=species:S:1:pos:R:3:forces:R:3 energy=-11.859671554955577 pbc="F F F"
P        0.00000000       0.00000000       0.00000000       0.00000000       0.00000000       1.74828458
P        0.00000000       0.00000000       3.06060606       0.00000000       0.00000000      -1.74828458
2
Properties=species:S:1:pos:R:3:forces:R:3 energy=-11.760958952193713 pbc="F F F"
P        0.00000000       0.00000000       0.00000000       0.00000000       0.00000000       1.60867786
P        0.00000000       0.00000000       3.11939394       0.00000000       0.00000000      -1.60867786
2
Properties=species:S:1:pos:R:3:forces:R:3 energy=-11.670689284260456 pbc="F F F"
P        0.00000000       0.00000000       0.00000000       0.00000000       0.00000000       1.46145177
P        0.00000000       0.00000000       3.17818182       0.00000000       0.00000000      -1.46145177
2
Properties=species:S:1:pos:R:3:forces:R:3 energy=-11.589123359451474 pbc="F F F"
P        0.00000000       0.00000000       0.00000000       0.00000000       0.00000000       1.31447613
P        0.00000000       0.00000000       3.23696970       0.00000000       0.00000000      -1.31447613
2
Properties=species:S:1:pos:R:3:forces:R:3 energy=-11.51593821098761 pbc="F F F"
P        0.00000000       0.00000000       0.00000000       0.00000000       0.00000000       1.17754734
P        0.00000000       0.00000000       3.29575758       0.00000000       0.00000000      -1.17754734
2
Properties=species:S:1:pos:R:3:forces:R:3 energy=-11.450386620387135 pbc="F F F"
P        0.00000000       0.00000000       0.00000000       0.00000000       0.00000000       1.05493557
P        0.00000000       0.00000000       3.35454545       0.00000000       0.00000000      -1.05493557
2
Properties=species:S:1:pos:R:3:forces:R:3 energy=-11.391648719017729 pbc="F F F"
P        0.00000000       0.00000000       0.00000000       0.00000000       0.00000000       0.94523144
P        0.00000000       0.00000000       3.41333333       0.00000000       0.00000000      -0.94523144
2
Properties=species:S:1:pos:R:3:forces:R:3 energy=-11.339075667643504 pbc="F F F"
P        0.00000000       0.00000000       0.00000000       0.00000000       0.00000000       0.84445411
P        0.00000000       0.00000000       3.47212121       0.00000000       0.00000000      -0.84445411
2
Properties=species:S:1:pos:R:3:forces:R:3 energy=-11.292255732385543 pbc="F F F"
P        0.00000000       0.00000000       0.00000000       0.00000000       0.00000000       0.74910730
P        0.00000000       0.00000000       3.53090909       0.00000000       0.00000000      -0.74910730
2
Properties=species:S:1:pos:R:3:forces:R:3 energy=-11.250925775160251 pbc="F F F"
P        0.00000000       0.00000000       0.00000000       0.00000000       0.00000000       0.65754724
P        0.00000000       0.00000000       3.58969697       0.00000000       0.00000000      -0.65754724
2
Properties=species:S:1:pos:R:3:forces:R:3 energy=-11.21486834713611 pbc="F F F"
P        0.00000000       0.00000000       0.00000000       0.00000000       0.00000000       0.56985617
P        0.00000000       0.00000000       3.64848485       0.00000000       0.00000000      -0.56985617
2
Properties=species:S:1:pos:R:3:forces:R:3 energy=-11.183831629192342 pbc="F F F"
P        0.00000000       0.00000000       0.00000000       0.00000000       0.00000000       0.48693171
P        0.00000000       0.00000000       3.70727273       0.00000000       0.00000000      -0.48693171
2
Properties=species:S:1:pos:R:3:forces:R:3 energy=-11.157507536215466 pbc="F F F"
P        0.00000000       0.00000000       0.00000000       0.00000000       0.00000000       0.40959936
P        0.00000000       0.00000000       3.76606061       0.00000000       0.00000000      -0.40959936
2
Properties=species:S:1:pos:R:3:forces:R:3 energy=-11.13555748610471 pbc="F F F"
P        0.00000000       0.00000000       0.00000000       0.00000000       0.00000000       0.33813953
P        0.00000000       0.00000000       3.82484848       0.00000000       0.00000000      -0.33813953
2
Properties=species:S:1:pos:R:3:forces:R:3 energy=-11.117641019504983 pbc="F F F"
P        0.00000000       0.00000000       0.00000000       0.00000000       0.00000000       0.27224484
P        0.00000000       0.00000000       3.88363636       0.00000000       0.00000000      -0.27224484
2
Properties=species:S:1:pos:R:3:forces:R:3 energy=-11.103451108723293 pbc="F F F"
P        0.00000000       0.00000000       0.00000000       0.00000000       0.00000000       0.21129714
P        0.00000000       0.00000000       3.94242424       0.00000000       0.00000000      -0.21129714
2
Properties=species:S:1:pos:R:3:forces:R:3 energy=-11.092713207222245 pbc="F F F"
P        0.00000000       0.00000000       0.00000000       0.00000000       0.00000000       0.15470085
P        0.00000000       0.00000000       4.00121212       0.00000000       0.00000000      -0.15470085
2
Properties=species:S:1:pos:R:3:forces:R:3 energy=-11.085182387805137 pbc="F F F"
P        0.00000000       0.00000000       0.00000000       0.00000000       0.00000000       0.10218160
P        0.00000000       0.00000000       4.06000000       0.00000000       0.00000000      -0.10218160
2
Properties=species:S:1:pos:R:3:forces:R:3 energy=-11.080615706651638 pbc="F F F"
P        0.00000000       0.00000000       0.00000000       0.00000000       0.00000000       0.05392255
P        0.00000000       0.00000000       4.11878788       0.00000000       0.00000000      -0.05392255
2
Properties=species:S:1:pos:R:3:forces:R:3 energy=-11.078747397490133 pbc="F F F"
P        0.00000000       0.00000000       0.00000000       0.00000000       0.00000000       0.01051363
P        0.00000000       0.00000000       4.17757576       0.00000000       0.00000000      -0.01051363
2
Properties=species:S:1:pos:R:3:forces:R:3 energy=-11.079267889970799 pbc="F F F"
P        0.00000000       0.00000000       0.00000000       0.00000000       0.00000000      -0.02721056
P        0.00000000       0.00000000       4.23636364       0.00000000       0.00000000       0.02721056
2
Properties=species:S:1:pos:R:3:forces:R:3 energy=-11.081819052381414 pbc="F F F"
P        0.00000000       0.00000000       0.00000000       0.00000000       0.00000000      -0.05842385
P        0.00000000       0.00000000       4.29515152       0.00000000       0.00000000       0.05842385
2
Properties=species:S:1:pos:R:3:forces:R:3 energy=-11.085998003176792 pbc="F F F"
P        0.00000000       0.00000000       0.00000000       0.00000000       0.00000000      -0.08251695
P        0.00000000       0.00000000       4.35393939       0.00000000       0.00000000       0.08251695
2
Properties=species:S:1:pos:R:3:forces:R:3 energy=-11.09137712230032 pbc="F F F"
P        0.00000000       0.00000000       0.00000000       0.00000000       0.00000000      -0.09927364
P        0.00000000       0.00000000       4.41272727       0.00000000       0.00000000       0.09927364
2
Properties=species:S:1:pos:R:3:forces:R:3 energy=-11.0975298003905 pbc="F F F"
P        0.00000000       0.00000000       0.00000000       0.00000000       0.00000000      -0.10891696
P        0.00000000       0.00000000       4.47151515       0.00000000       0.00000000       0.10891696
2
Properties=species:S:1:pos:R:3:forces:R:3 energy=-11.104056184027714 pbc="F F F"
P        0.00000000       0.00000000       0.00000000       0.00000000       0.00000000      -0.11211129
P        0.00000000       0.00000000       4.53030303       0.00000000       0.00000000       0.11211129
2
Properties=species:S:1:pos:R:3:forces:R:3 energy=-11.11060509994808 pbc="F F F"
P        0.00000000       0.00000000       0.00000000       0.00000000       0.00000000      -0.10987957
P        0.00000000       0.00000000       4.58909091       0.00000000       0.00000000       0.10987957
2
Properties=species:S:1:pos:R:3:forces:R:3 energy=-11.116894066364985 pbc="F F F"
P        0.00000000       0.00000000       0.00000000       0.00000000       0.00000000      -0.10351587
P        0.00000000       0.00000000       4.64787879       0.00000000       0.00000000       0.10351587
2
Properties=species:S:1:pos:R:3:forces:R:3 energy=-11.122722640449737 pbc="F F F"
P        0.00000000       0.00000000       0.00000000       0.00000000       0.00000000      -0.09444849
P        0.00000000       0.00000000       4.70666667       0.00000000       0.00000000       0.09444849
2
Properties=species:S:1:pos:R:3:forces:R:3 energy=-11.127974310633046 pbc="F F F"
P        0.00000000       0.00000000       0.00000000       0.00000000       0.00000000      -0.08410101
P        0.00000000       0.00000000       4.76545455       0.00000000       0.00000000       0.08410101
2
Properties=species:S:1:pos:R:3:forces:R:3 energy=-11.132610760699897 pbc="F F F"
P        0.00000000       0.00000000       0.00000000       0.00000000       0.00000000      -0.07371230
P        0.00000000       0.00000000       4.82424242       0.00000000       0.00000000       0.07371230
2
Properties=species:S:1:pos:R:3:forces:R:3 energy=-11.136657564278833 pbc="F F F"
P        0.00000000       0.00000000       0.00000000       0.00000000       0.00000000      -0.06415793
P        0.00000000       0.00000000       4.88303030       0.00000000       0.00000000       0.06415793
2
Properties=species:S:1:pos:R:3:forces:R:3 energy=-11.140178405541095 pbc="F F F"
P        0.00000000       0.00000000       0.00000000       0.00000000       0.00000000      -0.05581232
P        0.00000000       0.00000000       4.94181818       0.00000000       0.00000000       0.05581232
2
Properties=species:S:1:pos:R:3:forces:R:3 energy=-11.143240753260883 pbc="F F F"
P        0.00000000       0.00000000       0.00000000       0.00000000       0.00000000      -0.04853460
P        0.00000000       0.00000000       5.00060606       0.00000000       0.00000000       0.04853460
2
Properties=species:S:1:pos:R:3:forces:R:3 energy=-11.14589582217135 pbc="F F F"
P        0.00000000       0.00000000       0.00000000       0.00000000       0.00000000      -0.04183627
P        0.00000000       0.00000000       5.05939394       0.00000000       0.00000000       0.04183627
2
Properties=species:S:1:pos:R:3:forces:R:3 energy=-11.148161394551602 pbc="F F F"
P        0.00000000       0.00000000       0.00000000       0.00000000       0.00000000      -0.03521127
P        0.00000000       0.00000000       5.11818182       0.00000000       0.00000000       0.03521127
2
Properties=species:S:1:pos:R:3:forces:R:3 energy=-11.150032307872324 pbc="F F F"
P        0.00000000       0.00000000       0.00000000       0.00000000       0.00000000      -0.02843371
P        0.00000000       0.00000000       5.17696970       0.00000000       0.00000000       0.02843371
2
Properties=species:S:1:pos:R:3:forces:R:3 energy=-11.15150238732518 pbc="F F F"
P        0.00000000       0.00000000       0.00000000       0.00000000       0.00000000      -0.02155559
P        0.00000000       0.00000000       5.23575758       0.00000000       0.00000000       0.02155559
2
Properties=species:S:1:pos:R:3:forces:R:3 energy=-11.152562532930483 pbc="F F F"
P        0.00000000       0.00000000       0.00000000       0.00000000       0.00000000      -0.01440631
P        0.00000000       0.00000000       5.29454545       0.00000000       0.00000000       0.01440631
2
Properties=species:S:1:pos:R:3:forces:R:3 energy=-11.153179743057997 pbc="F F F"
P        0.00000000       0.00000000       0.00000000       0.00000000       0.00000000      -0.00647999
P        0.00000000       0.00000000       5.35333333       0.00000000       0.00000000       0.00647999
2
Properties=species:S:1:pos:R:3:forces:R:3 energy=-11.15334002185161 pbc="F F F"
P        0.00000000       0.00000000       0.00000000       0.00000000       0.00000000       0.00037085
P        0.00000000       0.00000000       5.41212121       0.00000000       0.00000000      -0.00037085
2
Properties=species:S:1:pos:R:3:forces:R:3 energy=-11.153309695495507 pbc="F F F"
P        0.00000000       0.00000000       0.00000000       0.00000000       0.00000000      -0.00153942
P        0.00000000       0.00000000       5.47090909       0.00000000       0.00000000       0.00153942
2
Properties=species:S:1:pos:R:3:forces:R:3 energy=-11.153758435013044 pbc="F F F"
P        0.00000000       0.00000000       0.00000000       0.00000000       0.00000000      -0.01472508
P        0.00000000       0.00000000       5.52969697       0.00000000       0.00000000       0.01472508
2
Properties=species:S:1:pos:R:3:forces:R:3 energy=-11.154979152259843 pbc="F F F"
P        0.00000000       0.00000000       0.00000000       0.00000000       0.00000000      -0.02517854
P        0.00000000       0.00000000       5.58848485       0.00000000       0.00000000       0.02517854
2
Properties=species:S:1:pos:R:3:forces:R:3 energy=-11.15654659877372 pbc="F F F"
P        0.00000000       0.00000000       0.00000000       0.00000000       0.00000000      -0.02761015
P        0.00000000       0.00000000       5.64727273       0.00000000       0.00000000       0.02761015
2
Properties=species:S:1:pos:R:3:forces:R:3 energy=-11.158331110287651 pbc="F F F"
P        0.00000000       0.00000000       0.00000000       0.00000000       0.00000000      -0.03535163
P        0.00000000       0.00000000       5.70606061       0.00000000       0.00000000       0.03535163
2
Properties=species:S:1:pos:R:3:forces:R:3 energy=-11.160978320552058 pbc="F F F"
P        0.00000000       0.00000000       0.00000000       0.00000000       0.00000000      -0.05549144
P        0.00000000       0.00000000       5.76484848       0.00000000       0.00000000       0.05549144
2
Properties=species:S:1:pos:R:3:forces:R:3 energy=-11.164622661413585 pbc="F F F"
P        0.00000000       0.00000000       0.00000000       0.00000000       0.00000000      -0.06401262
P        0.00000000       0.00000000       5.82363636       0.00000000       0.00000000       0.06401262
2
Properties=species:S:1:pos:R:3:forces:R:3 energy=-11.167861200737136 pbc="F F F"
P        0.00000000       0.00000000       0.00000000       0.00000000       0.00000000      -0.04221310
P        0.00000000       0.00000000       5.88242424       0.00000000       0.00000000       0.04221310
2
Properties=species:S:1:pos:R:3:forces:R:3 energy=-11.169403518772137 pbc="F F F"
P        0.00000000       0.00000000       0.00000000       0.00000000       0.00000000      -0.01107328
P        0.00000000       0.00000000       5.94121212       0.00000000       0.00000000       0.01107328
2
Properties=species:S:1:pos:R:3:forces:R:3 energy=-11.16953750141909 pbc="F F F"
P        0.00000000       0.00000000       0.00000000       0.00000000       0.00000000       0.00213214
P        0.00000000       0.00000000       6.00000000       0.00000000       0.00000000      -0.00213214
