2
Properties=species:S:1:pos:R:3:forces:R:3 energy=4899.712801513828 pbc="F F F"
Pd       0.00000000       0.00000000       0.00000000       0.00000000       0.00000000 -126537.61718750
Pd       0.00000000       0.00000000       0.18000000       0.00000000       0.00000000  126537.61718750
2
Properties=species:S:1:pos:R:3:forces:R:3 energy=439.39322143570325 pbc="F F F"
Pd       0.00000000       0.00000000       0.00000000       0.00000000       0.00000000  -42173.34375000
Pd       0.00000000       0.00000000       0.23878788       0.00000000       0.00000000   42173.34375000
2
Properties=species:S:1:pos:R:3:forces:R:3 energy=-1085.7078527830467 pbc="F F F"
Pd       0.00000000       0.00000000       0.00000000       0.00000000       0.00000000  -14018.36816406
Pd       0.00000000       0.00000000       0.29757576       0.00000000       0.00000000   14018.36816406
2
Properties=species:S:1:pos:R:3:forces:R:3 energy=-1499.2970861814842 pbc="F F F"
Pd       0.00000000       0.00000000       0.00000000       0.00000000       0.00000000   -1457.44433594
Pd       0.00000000       0.00000000       0.35636364       0.00000000       0.00000000    1457.44433594
2
Properties=species:S:1:pos:R:3:forces:R:3 energy=-1369.6673254377129 pbc="F F F"
Pd       0.00000000       0.00000000       0.00000000       0.00000000       0.00000000    5140.88964844
Pd       0.00000000       0.00000000       0.41515152       0.00000000       0.00000000   -5140.88964844
2
Properties=species:S:1:pos:R:3:forces:R:3 energy=-978.3134436009834 pbc="F F F"
Pd       0.00000000       0.00000000       0.00000000       0.00000000       0.00000000    7321.93017578
Pd       0.00000000       0.00000000       0.47393939       0.00000000       0.00000000   -7321.93017578
2
Properties=species:S:1:pos:R:3:forces:R:3 energy=-561.9911779728155 pbc="F F F"
Pd       0.00000000       0.00000000       0.00000000       0.00000000       0.00000000    6298.28808594
Pd       0.00000000       0.00000000       0.53272727       0.00000000       0.00000000   -6298.28808594
2
Properties=species:S:1:pos:R:3:forces:R:3 energy=-279.33865111180313 pbc="F F F"
Pd       0.00000000       0.00000000       0.00000000       0.00000000       0.00000000    3222.37939453
Pd       0.00000000       0.00000000       0.59151515       0.00000000       0.00000000   -3222.37939453
2
Properties=species:S:1:pos:R:3:forces:R:3 energy=-163.33770505816975 pbc="F F F"
Pd       0.00000000       0.00000000       0.00000000       0.00000000       0.00000000    1066.02331543
Pd       0.00000000       0.00000000       0.65030303       0.00000000       0.00000000   -1066.02331543
2
Properties=species:S:1:pos:R:3:forces:R:3 energy=-126.808286099394 pbc="F F F"
Pd       0.00000000       0.00000000       0.00000000       0.00000000       0.00000000     311.80722046
Pd       0.00000000       0.00000000       0.70909091       0.00000000       0.00000000    -311.80722046
2
Properties=species:S:1:pos:R:3:forces:R:3 energy=-123.98069513800425 pbc="F F F"
Pd       0.00000000       0.00000000       0.00000000       0.00000000       0.00000000     149.04133606
Pd       0.00000000       0.00000000       0.76787879       0.00000000       0.00000000    -149.04133606
2
Properties=species:S:1:pos:R:3:forces:R:3 energy=-100.53305564257792 pbc="F F F"
Pd       0.00000000       0.00000000       0.00000000       0.00000000       0.00000000     591.17822266
Pd       0.00000000       0.00000000       0.82666667       0.00000000       0.00000000    -591.17822266
2
Properties=species:S:1:pos:R:3:forces:R:3 energy=-64.58715563564145 pbc="F F F"
Pd       0.00000000       0.00000000       0.00000000       0.00000000       0.00000000     593.81854248
Pd       0.00000000       0.00000000       0.88545455       0.00000000       0.00000000    -593.81854248
2
Properties=species:S:1:pos:R:3:forces:R:3 energy=-32.89593624720276 pbc="F F F"
Pd       0.00000000       0.00000000       0.00000000       0.00000000       0.00000000     472.16912842
Pd       0.00000000       0.00000000       0.94424242       0.00000000       0.00000000    -472.16912842
2
Properties=species:S:1:pos:R:3:forces:R:3 energy=-10.018744621260284 pbc="F F F"
Pd       0.00000000       0.00000000       0.00000000       0.00000000       0.00000000     293.36627197
Pd       0.00000000       0.00000000       1.00303030       0.00000000       0.00000000    -293.36627197
2
Properties=species:S:1:pos:R:3:forces:R:3 energy=1.8375348604065702 pbc="F F F"
Pd       0.00000000       0.00000000       0.00000000       0.00000000       0.00000000     129.10107422
Pd       0.00000000       0.00000000       1.06181818       0.00000000       0.00000000    -129.10107422
2
Properties=species:S:1:pos:R:3:forces:R:3 energy=6.574580294212327 pbc="F F F"
Pd       0.00000000       0.00000000       0.00000000       0.00000000       0.00000000      40.61461258
Pd       0.00000000       0.00000000       1.12060606       0.00000000       0.00000000     -40.61461258
2
Properties=species:S:1:pos:R:3:forces:R:3 energy=7.089068703704544 pbc="F F F"
Pd       0.00000000       0.00000000       0.00000000       0.00000000       0.00000000     -51.53789902
Pd       0.00000000       0.00000000       1.17939394       0.00000000       0.00000000      51.53789902
2
Properties=species:S:1:pos:R:3:forces:R:3 energy=0.20092731475481546 pbc="F F F"
Pd       0.00000000       0.00000000       0.00000000       0.00000000       0.00000000    -139.37147522
Pd       0.00000000       0.00000000       1.23818182       0.00000000       0.00000000     139.37147522
2
Properties=species:S:1:pos:R:3:forces:R:3 energy=-7.688379396893341 pbc="F F F"
Pd       0.00000000       0.00000000       0.00000000       0.00000000       0.00000000    -125.51309967
Pd       0.00000000       0.00000000       1.29696970       0.00000000       0.00000000     125.51309967
2
Properties=species:S:1:pos:R:3:forces:R:3 energy=-14.222264961477853 pbc="F F F"
Pd       0.00000000       0.00000000       0.00000000       0.00000000       0.00000000     -96.33358002
Pd       0.00000000       0.00000000       1.35575758       0.00000000       0.00000000      96.33358002
2
Properties=species:S:1:pos:R:3:forces:R:3 energy=-19.16776198882649 pbc="F F F"
Pd       0.00000000       0.00000000       0.00000000       0.00000000       0.00000000     -73.46348572
Pd       0.00000000       0.00000000       1.41454545       0.00000000       0.00000000      73.46348572
2
Properties=species:S:1:pos:R:3:forces:R:3 energy=-22.990007934494177 pbc="F F F"
Pd       0.00000000       0.00000000       0.00000000       0.00000000       0.00000000     -57.42311096
Pd       0.00000000       0.00000000       1.47333333       0.00000000       0.00000000      57.42311096
2
Properties=species:S:1:pos:R:3:forces:R:3 energy=-26.012391860537146 pbc="F F F"
Pd       0.00000000       0.00000000       0.00000000       0.00000000       0.00000000     -46.15750122
Pd       0.00000000       0.00000000       1.53212121       0.00000000       0.00000000      46.15750122
2
Properties=species:S:1:pos:R:3:forces:R:3 energy=-28.49503413741831 pbc="F F F"
Pd       0.00000000       0.00000000       0.00000000       0.00000000       0.00000000     -38.82986450
Pd       0.00000000       0.00000000       1.59090909       0.00000000       0.00000000      38.82986450
2
Properties=species:S:1:pos:R:3:forces:R:3 energy=-30.62158956692497 pbc="F F F"
Pd       0.00000000       0.00000000       0.00000000       0.00000000       0.00000000     -33.74707031
Pd       0.00000000       0.00000000       1.64969697       0.00000000       0.00000000      33.74707031
2
Properties=species:S:1:pos:R:3:forces:R:3 energy=-32.47724041977801 pbc="F F F"
Pd       0.00000000       0.00000000       0.00000000       0.00000000       0.00000000     -29.42633629
Pd       0.00000000       0.00000000       1.70848485       0.00000000       0.00000000      29.42633629
2
Properties=species:S:1:pos:R:3:forces:R:3 energy=-34.082475632979985 pbc="F F F"
Pd       0.00000000       0.00000000       0.00000000       0.00000000       0.00000000     -25.18569183
Pd       0.00000000       0.00000000       1.76727273       0.00000000       0.00000000      25.18569183
2
Properties=species:S:1:pos:R:3:forces:R:3 energy=-35.440358817876195 pbc="F F F"
Pd       0.00000000       0.00000000       0.00000000       0.00000000       0.00000000     -21.04536629
Pd       0.00000000       0.00000000       1.82606061       0.00000000       0.00000000      21.04536629
2
Properties=species:S:1:pos:R:3:forces:R:3 energy=-36.5625981451903 pbc="F F F"
Pd       0.00000000       0.00000000       0.00000000       0.00000000       0.00000000     -17.19012260
Pd       0.00000000       0.00000000       1.88484848       0.00000000       0.00000000      17.19012260
2
Properties=species:S:1:pos:R:3:forces:R:3 energy=-37.46850898653861 pbc="F F F"
Pd       0.00000000       0.00000000       0.00000000       0.00000000       0.00000000     -13.69277382
Pd       0.00000000       0.00000000       1.94363636       0.00000000       0.00000000      13.69277382
2
Properties=species:S:1:pos:R:3:forces:R:3 energy=-38.18051312364967 pbc="F F F"
Pd       0.00000000       0.00000000       0.00000000       0.00000000       0.00000000     -10.60249805
Pd       0.00000000       0.00000000       2.00242424       0.00000000       0.00000000      10.60249805
2
Properties=species:S:1:pos:R:3:forces:R:3 energy=-38.72389537118438 pbc="F F F"
Pd       0.00000000       0.00000000       0.00000000       0.00000000       0.00000000      -7.95819235
Pd       0.00000000       0.00000000       2.06121212       0.00000000       0.00000000       7.95819235
2
Properties=species:S:1:pos:R:3:forces:R:3 energy=-39.12453122648186 pbc="F F F"
Pd       0.00000000       0.00000000       0.00000000       0.00000000       0.00000000      -5.73767328
Pd       0.00000000       0.00000000       2.12000000       0.00000000       0.00000000       5.73767328
2
Properties=species:S:1:pos:R:3:forces:R:3 energy=-39.405611838387436 pbc="F F F"
Pd       0.00000000       0.00000000       0.00000000       0.00000000       0.00000000      -3.88020706
Pd       0.00000000       0.00000000       2.17878788       0.00000000       0.00000000       3.88020706
2
Properties=species:S:1:pos:R:3:forces:R:3 energy=-39.586865071852536 pbc="F F F"
Pd       0.00000000       0.00000000       0.00000000       0.00000000       0.00000000      -2.33557177
Pd       0.00000000       0.00000000       2.23757576       0.00000000       0.00000000       2.33557177
2
Properties=species:S:1:pos:R:3:forces:R:3 energy=-39.68581149779399 pbc="F F F"
Pd       0.00000000       0.00000000       0.00000000       0.00000000       0.00000000      -1.07681501
Pd       0.00000000       0.00000000       2.29636364       0.00000000       0.00000000       1.07681501
2
Properties=species:S:1:pos:R:3:forces:R:3 energy=-39.71872177391492 pbc="F F F"
Pd       0.00000000       0.00000000       0.00000000       0.00000000       0.00000000      -0.08536451
Pd       0.00000000       0.00000000       2.35515152       0.00000000       0.00000000       0.08536451
2
Properties=species:S:1:pos:R:3:forces:R:3 energy=-39.70052636811584 pbc="F F F"
Pd       0.00000000       0.00000000       0.00000000       0.00000000       0.00000000       0.66809994
Pd       0.00000000       0.00000000       2.41393939       0.00000000       0.00000000      -0.66809994
2
Properties=species:S:1:pos:R:3:forces:R:3 energy=-39.64395950457084 pbc="F F F"
Pd       0.00000000       0.00000000       0.00000000       0.00000000       0.00000000       1.22804952
Pd       0.00000000       0.00000000       2.47272727       0.00000000       0.00000000      -1.22804952
2
Properties=species:S:1:pos:R:3:forces:R:3 energy=-39.55908344410619 pbc="F F F"
Pd       0.00000000       0.00000000       0.00000000       0.00000000       0.00000000       1.63673079
Pd       0.00000000       0.00000000       2.53151515       0.00000000       0.00000000      -1.63673079
2
Properties=species:S:1:pos:R:3:forces:R:3 energy=-39.45408424370889 pbc="F F F"
Pd       0.00000000       0.00000000       0.00000000       0.00000000       0.00000000       1.91380048
Pd       0.00000000       0.00000000       2.59030303       0.00000000       0.00000000      -1.91380048
2
Properties=species:S:1:pos:R:3:forces:R:3 energy=-39.336716387828226 pbc="F F F"
Pd       0.00000000       0.00000000       0.00000000       0.00000000       0.00000000       2.05535269
Pd       0.00000000       0.00000000       2.64909091       0.00000000       0.00000000      -2.05535269
2
Properties=species:S:1:pos:R:3:forces:R:3 energy=-39.21528927611109 pbc="F F F"
Pd       0.00000000       0.00000000       0.00000000       0.00000000       0.00000000       2.05141973
Pd       0.00000000       0.00000000       2.70787879       0.00000000       0.00000000      -2.05141973
2
Properties=species:S:1:pos:R:3:forces:R:3 energy=-39.09816859317971 pbc="F F F"
Pd       0.00000000       0.00000000       0.00000000       0.00000000       0.00000000       1.91339171
Pd       0.00000000       0.00000000       2.76666667       0.00000000       0.00000000      -1.91339171
2
Properties=species:S:1:pos:R:3:forces:R:3 energy=-38.99211577425229 pbc="F F F"
Pd       0.00000000       0.00000000       0.00000000       0.00000000       0.00000000       1.68428886
Pd       0.00000000       0.00000000       2.82545455       0.00000000       0.00000000      -1.68428886
2
Properties=species:S:1:pos:R:3:forces:R:3 energy=-38.90072063164811 pbc="F F F"
Pd       0.00000000       0.00000000       0.00000000       0.00000000       0.00000000       1.42562294
Pd       0.00000000       0.00000000       2.88424242       0.00000000       0.00000000      -1.42562294
2
Properties=species:S:1:pos:R:3:forces:R:3 energy=-38.823840795504466 pbc="F F F"
Pd       0.00000000       0.00000000       0.00000000       0.00000000       0.00000000       1.19997680
Pd       0.00000000       0.00000000       2.94303030       0.00000000       0.00000000      -1.19997680
2
Properties=species:S:1:pos:R:3:forces:R:3 energy=-38.758055487489045 pbc="F F F"
Pd       0.00000000       0.00000000       0.00000000       0.00000000       0.00000000       1.05370843
Pd       0.00000000       0.00000000       3.00181818       0.00000000       0.00000000      -1.05370843
2
Properties=species:S:1:pos:R:3:forces:R:3 energy=-38.69804216617575 pbc="F F F"
Pd       0.00000000       0.00000000       0.00000000       0.00000000       0.00000000       1.00374401
Pd       0.00000000       0.00000000       3.06060606       0.00000000       0.00000000      -1.00374401
2
Properties=species:S:1:pos:R:3:forces:R:3 energy=-38.638412154788575 pbc="F F F"
Pd       0.00000000       0.00000000       0.00000000       0.00000000       0.00000000       1.03603840
Pd       0.00000000       0.00000000       3.11939394       0.00000000       0.00000000      -1.03603840
2
Properties=species:S:1:pos:R:3:forces:R:3 energy=-38.57528994106928 pbc="F F F"
Pd       0.00000000       0.00000000       0.00000000       0.00000000       0.00000000       1.11601233
Pd       0.00000000       0.00000000       3.17818182       0.00000000       0.00000000      -1.11601233
2
Properties=species:S:1:pos:R:3:forces:R:3 energy=-38.50705018838218 pbc="F F F"
Pd       0.00000000       0.00000000       0.00000000       0.00000000       0.00000000       1.20388234
Pd       0.00000000       0.00000000       3.23696970       0.00000000       0.00000000      -1.20388234
2
Properties=species:S:1:pos:R:3:forces:R:3 energy=-38.43422662647488 pbc="F F F"
Pd       0.00000000       0.00000000       0.00000000       0.00000000       0.00000000       1.26761115
Pd       0.00000000       0.00000000       3.29575758       0.00000000       0.00000000      -1.26761115
2
Properties=species:S:1:pos:R:3:forces:R:3 energy=-38.35883301794195 pbc="F F F"
Pd       0.00000000       0.00000000       0.00000000       0.00000000       0.00000000       1.28962696
Pd       0.00000000       0.00000000       3.35454545       0.00000000       0.00000000      -1.28962696
2
Properties=species:S:1:pos:R:3:forces:R:3 energy=-38.2834819536531 pbc="F F F"
Pd       0.00000000       0.00000000       0.00000000       0.00000000       0.00000000       1.26684165
Pd       0.00000000       0.00000000       3.41333333       0.00000000       0.00000000      -1.26684165
2
Properties=species:S:1:pos:R:3:forces:R:3 energy=-38.21063351103125 pbc="F F F"
Pd       0.00000000       0.00000000       0.00000000       0.00000000       0.00000000       1.20604646
Pd       0.00000000       0.00000000       3.47212121       0.00000000       0.00000000      -1.20604646
2
Properties=species:S:1:pos:R:3:forces:R:3 energy=-38.142209838164064 pbc="F F F"
Pd       0.00000000       0.00000000       0.00000000       0.00000000       0.00000000       1.11826062
Pd       0.00000000       0.00000000       3.53090909       0.00000000       0.00000000      -1.11826062
2
Properties=species:S:1:pos:R:3:forces:R:3 energy=-38.07945785796452 pbc="F F F"
Pd       0.00000000       0.00000000       0.00000000       0.00000000       0.00000000       1.01479447
Pd       0.00000000       0.00000000       3.58969697       0.00000000       0.00000000      -1.01479447
2
Properties=species:S:1:pos:R:3:forces:R:3 energy=-38.02300274045691 pbc="F F F"
Pd       0.00000000       0.00000000       0.00000000       0.00000000       0.00000000       0.90563470
Pd       0.00000000       0.00000000       3.64848485       0.00000000       0.00000000      -0.90563470
2
Properties=species:S:1:pos:R:3:forces:R:3 energy=-37.972927955982506 pbc="F F F"
Pd       0.00000000       0.00000000       0.00000000       0.00000000       0.00000000       0.79905039
Pd       0.00000000       0.00000000       3.70727273       0.00000000       0.00000000      -0.79905039
2
Properties=species:S:1:pos:R:3:forces:R:3 energy=-37.92887829895224 pbc="F F F"
Pd       0.00000000       0.00000000       0.00000000       0.00000000       0.00000000       0.70145386
Pd       0.00000000       0.00000000       3.76606061       0.00000000       0.00000000      -0.70145386
2
Properties=species:S:1:pos:R:3:forces:R:3 energy=-37.89018953686856 pbc="F F F"
Pd       0.00000000       0.00000000       0.00000000       0.00000000       0.00000000       0.61720270
Pd       0.00000000       0.00000000       3.82484848       0.00000000       0.00000000      -0.61720270
2
Properties=species:S:1:pos:R:3:forces:R:3 energy=-37.85600299379544 pbc="F F F"
Pd       0.00000000       0.00000000       0.00000000       0.00000000       0.00000000       0.54841912
Pd       0.00000000       0.00000000       3.88363636       0.00000000       0.00000000      -0.54841912
2
Properties=species:S:1:pos:R:3:forces:R:3 energy=-37.82540270998139 pbc="F F F"
Pd       0.00000000       0.00000000       0.00000000       0.00000000       0.00000000       0.49510726
Pd       0.00000000       0.00000000       3.94242424       0.00000000       0.00000000      -0.49510726
2
Properties=species:S:1:pos:R:3:forces:R:3 energy=-37.79752240860624 pbc="F F F"
Pd       0.00000000       0.00000000       0.00000000       0.00000000       0.00000000       0.45552057
Pd       0.00000000       0.00000000       4.00121212       0.00000000       0.00000000      -0.45552057
2
Properties=species:S:1:pos:R:3:forces:R:3 energy=-37.77163316412612 pbc="F F F"
Pd       0.00000000       0.00000000       0.00000000       0.00000000       0.00000000       0.42673084
Pd       0.00000000       0.00000000       4.06000000       0.00000000       0.00000000      -0.42673084
2
Properties=species:S:1:pos:R:3:forces:R:3 energy=-37.747204439013665 pbc="F F F"
Pd       0.00000000       0.00000000       0.00000000       0.00000000       0.00000000       0.40526351
Pd       0.00000000       0.00000000       4.11878788       0.00000000       0.00000000      -0.40526351
2
Properties=species:S:1:pos:R:3:forces:R:3 energy=-37.72390795547602 pbc="F F F"
Pd       0.00000000       0.00000000       0.00000000       0.00000000       0.00000000       0.38764861
Pd       0.00000000       0.00000000       4.17757576       0.00000000       0.00000000      -0.38764861
2
Properties=species:S:1:pos:R:3:forces:R:3 energy=-37.70161000428784 pbc="F F F"
Pd       0.00000000       0.00000000       0.00000000       0.00000000       0.00000000       0.37083861
Pd       0.00000000       0.00000000       4.23636364       0.00000000       0.00000000      -0.37083861
2
Properties=species:S:1:pos:R:3:forces:R:3 energy=-37.6803371917114 pbc="F F F"
Pd       0.00000000       0.00000000       0.00000000       0.00000000       0.00000000       0.35246959
Pd       0.00000000       0.00000000       4.29515152       0.00000000       0.00000000      -0.35246959
2
Properties=species:S:1:pos:R:3:forces:R:3 energy=-37.660230636202954 pbc="F F F"
Pd       0.00000000       0.00000000       0.00000000       0.00000000       0.00000000       0.33098435
Pd       0.00000000       0.00000000       4.35393939       0.00000000       0.00000000      -0.33098435
2
Properties=species:S:1:pos:R:3:forces:R:3 energy=-37.64150018729379 pbc="F F F"
Pd       0.00000000       0.00000000       0.00000000       0.00000000       0.00000000       0.30562285
Pd       0.00000000       0.00000000       4.41272727       0.00000000       0.00000000      -0.30562285
2
Properties=species:S:1:pos:R:3:forces:R:3 energy=-37.62437484719711 pbc="F F F"
Pd       0.00000000       0.00000000       0.00000000       0.00000000       0.00000000       0.27637643
Pd       0.00000000       0.00000000       4.47151515       0.00000000       0.00000000      -0.27637643
2
Properties=species:S:1:pos:R:3:forces:R:3 energy=-37.60906848129816 pbc="F F F"
Pd       0.00000000       0.00000000       0.00000000       0.00000000       0.00000000       0.24384676
Pd       0.00000000       0.00000000       4.53030303       0.00000000       0.00000000      -0.24384676
2
Properties=species:S:1:pos:R:3:forces:R:3 energy=-37.59574923563583 pbc="F F F"
Pd       0.00000000       0.00000000       0.00000000       0.00000000       0.00000000       0.20907934
Pd       0.00000000       0.00000000       4.58909091       0.00000000       0.00000000      -0.20907934
2
Properties=species:S:1:pos:R:3:forces:R:3 energy=-37.58450526164802 pbc="F F F"
Pd       0.00000000       0.00000000       0.00000000       0.00000000       0.00000000       0.17338170
Pd       0.00000000       0.00000000       4.64787879       0.00000000       0.00000000      -0.17338170
2
Properties=species:S:1:pos:R:3:forces:R:3 energy=-37.5753523202236 pbc="F F F"
Pd       0.00000000       0.00000000       0.00000000       0.00000000       0.00000000       0.13812022
Pd       0.00000000       0.00000000       4.70666667       0.00000000       0.00000000      -0.13812022
2
Properties=species:S:1:pos:R:3:forces:R:3 energy=-37.56822998442817 pbc="F F F"
Pd       0.00000000       0.00000000       0.00000000       0.00000000       0.00000000       0.10456312
Pd       0.00000000       0.00000000       4.76545455       0.00000000       0.00000000      -0.10456312
2
Properties=species:S:1:pos:R:3:forces:R:3 energy=-37.563005428858766 pbc="F F F"
Pd       0.00000000       0.00000000       0.00000000       0.00000000       0.00000000       0.07373238
Pd       0.00000000       0.00000000       4.82424242       0.00000000       0.00000000      -0.07373238
2
Properties=species:S:1:pos:R:3:forces:R:3 energy=-37.559496340002156 pbc="F F F"
Pd       0.00000000       0.00000000       0.00000000       0.00000000       0.00000000       0.04636811
Pd       0.00000000       0.00000000       4.88303030       0.00000000       0.00000000      -0.04636811
2
Properties=species:S:1:pos:R:3:forces:R:3 energy=-37.55747851395121 pbc="F F F"
Pd       0.00000000       0.00000000       0.00000000       0.00000000       0.00000000       0.02292092
Pd       0.00000000       0.00000000       4.94181818       0.00000000       0.00000000      -0.02292092
2
Properties=species:S:1:pos:R:3:forces:R:3 energy=-37.55671637715082 pbc="F F F"
Pd       0.00000000       0.00000000       0.00000000       0.00000000       0.00000000       0.00365181
Pd       0.00000000       0.00000000       5.00060606       0.00000000       0.00000000      -0.00365181
2
Properties=species:S:1:pos:R:3:forces:R:3 energy=-37.55696298639789 pbc="F F F"
Pd       0.00000000       0.00000000       0.00000000       0.00000000       0.00000000      -0.01134100
Pd       0.00000000       0.00000000       5.05939394       0.00000000       0.00000000       0.01134100
2
Properties=species:S:1:pos:R:3:forces:R:3 energy=-37.55796762814158 pbc="F F F"
Pd       0.00000000       0.00000000       0.00000000       0.00000000       0.00000000      -0.02215197
Pd       0.00000000       0.00000000       5.11818182       0.00000000       0.00000000       0.02215197
2
Properties=species:S:1:pos:R:3:forces:R:3 energy=-37.559494888801794 pbc="F F F"
Pd       0.00000000       0.00000000       0.00000000       0.00000000       0.00000000      -0.02924149
Pd       0.00000000       0.00000000       5.17696970       0.00000000       0.00000000       0.02924149
2
Properties=species:S:1:pos:R:3:forces:R:3 energy=-37.56135515571624 pbc="F F F"
Pd       0.00000000       0.00000000       0.00000000       0.00000000       0.00000000      -0.03370338
Pd       0.00000000       0.00000000       5.23575758       0.00000000       0.00000000       0.03370338
2
Properties=species:S:1:pos:R:3:forces:R:3 energy=-37.563442756985516 pbc="F F F"
Pd       0.00000000       0.00000000       0.00000000       0.00000000       0.00000000      -0.03734850
Pd       0.00000000       0.00000000       5.29454545       0.00000000       0.00000000       0.03734850
2
Properties=species:S:1:pos:R:3:forces:R:3 energy=-37.565762644555015 pbc="F F F"
Pd       0.00000000       0.00000000       0.00000000       0.00000000       0.00000000      -0.04165217
Pd       0.00000000       0.00000000       5.35333333       0.00000000       0.00000000       0.04165217
2
Properties=species:S:1:pos:R:3:forces:R:3 energy=-37.56830830885536 pbc="F F F"
Pd       0.00000000       0.00000000       0.00000000       0.00000000       0.00000000      -0.04411143
Pd       0.00000000       0.00000000       5.41212121       0.00000000       0.00000000       0.04411143
2
Properties=species:S:1:pos:R:3:forces:R:3 energy=-37.57074514546601 pbc="F F F"
Pd       0.00000000       0.00000000       0.00000000       0.00000000       0.00000000      -0.03649404
Pd       0.00000000       0.00000000       5.47090909       0.00000000       0.00000000       0.03649404
2
Properties=species:S:1:pos:R:3:forces:R:3 energy=-37.57238756138809 pbc="F F F"
Pd       0.00000000       0.00000000       0.00000000       0.00000000       0.00000000      -0.01882614
Pd       0.00000000       0.00000000       5.52969697       0.00000000       0.00000000       0.01882614
2
Properties=species:S:1:pos:R:3:forces:R:3 energy=-37.573076329280845 pbc="F F F"
Pd       0.00000000       0.00000000       0.00000000       0.00000000       0.00000000      -0.00659800
Pd       0.00000000       0.00000000       5.58848485       0.00000000       0.00000000       0.00659800
2
Properties=species:S:1:pos:R:3:forces:R:3 energy=-37.5733426344913 pbc="F F F"
Pd       0.00000000       0.00000000       0.00000000       0.00000000       0.00000000      -0.00280136
Pd       0.00000000       0.00000000       5.64727273       0.00000000       0.00000000       0.00280136
2
Properties=species:S:1:pos:R:3:forces:R:3 energy=-37.57328270609871 pbc="F F F"
Pd       0.00000000       0.00000000       0.00000000       0.00000000       0.00000000       0.00711309
Pd       0.00000000       0.00000000       5.70606061       0.00000000       0.00000000      -0.00711309
2
Properties=species:S:1:pos:R:3:forces:R:3 energy=-37.572233566063105 pbc="F F F"
Pd       0.00000000       0.00000000       0.00000000       0.00000000       0.00000000       0.02946073
Pd       0.00000000       0.00000000       5.76484848       0.00000000       0.00000000      -0.02946073
2
Properties=species:S:1:pos:R:3:forces:R:3 energy=-37.57001664904428 pbc="F F F"
Pd       0.00000000       0.00000000       0.00000000       0.00000000       0.00000000       0.04227316
Pd       0.00000000       0.00000000       5.82363636       0.00000000       0.00000000      -0.04227316
2
Properties=species:S:1:pos:R:3:forces:R:3 energy=-37.56775409059582 pbc="F F F"
Pd       0.00000000       0.00000000       0.00000000       0.00000000       0.00000000       0.03166486
Pd       0.00000000       0.00000000       5.88242424       0.00000000       0.00000000      -0.03166486
2
Properties=species:S:1:pos:R:3:forces:R:3 energy=-37.56644206840164 pbc="F F F"
Pd       0.00000000       0.00000000       0.00000000       0.00000000       0.00000000       0.01346063
Pd       0.00000000       0.00000000       5.94121212       0.00000000       0.00000000      -0.01346063
2
Properties=species:S:1:pos:R:3:forces:R:3 energy=-37.565958974651274 pbc="F F F"
Pd       0.00000000       0.00000000       0.00000000       0.00000000       0.00000000       0.00548033
Pd       0.00000000       0.00000000       6.00000000       0.00000000       0.00000000      -0.00548033
