2
Properties=species:S:1:pos:R:3:forces:R:3 energy=-21914.7283643155 pbc="F F F"
Pm       0.00000000       0.00000000       0.00000000       0.00000000       0.00000000 -192627.26562500
Pm       0.00000000       0.00000000       0.18000000       0.00000000       0.00000000  192627.26562500
2
Properties=species:S:1:pos:R:3:forces:R:3 energy=-28551.5408643155 pbc="F F F"
Pm       0.00000000       0.00000000       0.00000000       0.00000000       0.00000000  -59752.14843750
Pm       0.00000000       0.00000000       0.23878788       0.00000000       0.00000000   59752.14843750
2
Properties=species:S:1:pos:R:3:forces:R:3 energy=-30513.0018018155 pbc="F F F"
Pm       0.00000000       0.00000000       0.00000000       0.00000000       0.00000000  -13273.03613281
Pm       0.00000000       0.00000000       0.29757576       0.00000000       0.00000000   13273.03613281
2
Properties=species:S:1:pos:R:3:forces:R:3 energy=-30501.0076611905 pbc="F F F"
Pm       0.00000000       0.00000000       0.00000000       0.00000000       0.00000000   12168.29199219
Pm       0.00000000       0.00000000       0.35636364       0.00000000       0.00000000  -12168.29199219
2
Properties=species:S:1:pos:R:3:forces:R:3 energy=-29163.8123486905 pbc="F F F"
Pm       0.00000000       0.00000000       0.00000000       0.00000000       0.00000000   33096.95312500
Pm       0.00000000       0.00000000       0.41515152       0.00000000       0.00000000  -33096.95312500
2
Properties=species:S:1:pos:R:3:forces:R:3 energy=-26616.50570806233 pbc="F F F"
Pm       0.00000000       0.00000000       0.00000000       0.00000000       0.00000000   53489.15625000
Pm       0.00000000       0.00000000       0.47393939       0.00000000       0.00000000  -53489.15625000
2
Properties=species:S:1:pos:R:3:forces:R:3 energy=-22907.97445806233 pbc="F F F"
Pm       0.00000000       0.00000000       0.00000000       0.00000000       0.00000000   72096.10937500
Pm       0.00000000       0.00000000       0.53272727       0.00000000       0.00000000  -72096.10937500
2
Properties=species:S:1:pos:R:3:forces:R:3 energy=-18256.29867681233 pbc="F F F"
Pm       0.00000000       0.00000000       0.00000000       0.00000000       0.00000000   84742.42187500
Pm       0.00000000       0.00000000       0.59151515       0.00000000       0.00000000  -84742.42187500
2
Properties=species:S:1:pos:R:3:forces:R:3 energy=-13157.872895555996 pbc="F F F"
Pm       0.00000000       0.00000000       0.00000000       0.00000000       0.00000000   86576.62500000
Pm       0.00000000       0.00000000       0.65030303       0.00000000       0.00000000  -86576.62500000
2
Properties=species:S:1:pos:R:3:forces:R:3 energy=-8336.938325233992 pbc="F F F"
Pm       0.00000000       0.00000000       0.00000000       0.00000000       0.00000000   75332.59375000
Pm       0.00000000       0.00000000       0.70909091       0.00000000       0.00000000  -75332.59375000
2
Properties=species:S:1:pos:R:3:forces:R:3 energy=-4499.088715849489 pbc="F F F"
Pm       0.00000000       0.00000000       0.00000000       0.00000000       0.00000000   54146.44921875
Pm       0.00000000       0.00000000       0.76787879       0.00000000       0.00000000  -54146.44921875
2
Properties=species:S:1:pos:R:3:forces:R:3 energy=-2009.2150586039197 pbc="F F F"
Pm       0.00000000       0.00000000       0.00000000       0.00000000       0.00000000   30982.98828125
Pm       0.00000000       0.00000000       0.82666667       0.00000000       0.00000000  -30982.98828125
2
Properties=species:S:1:pos:R:3:forces:R:3 energy=-739.5191967653387 pbc="F F F"
Pm       0.00000000       0.00000000       0.00000000       0.00000000       0.00000000   13569.16210938
Pm       0.00000000       0.00000000       0.88545455       0.00000000       0.00000000  -13569.16210938
2
Properties=species:S:1:pos:R:3:forces:R:3 energy=-250.52262995803173 pbc="F F F"
Pm       0.00000000       0.00000000       0.00000000       0.00000000       0.00000000    4310.69335938
Pm       0.00000000       0.00000000       0.94424242       0.00000000       0.00000000   -4310.69335938
2
Properties=species:S:1:pos:R:3:forces:R:3 energy=-81.86293142418629 pbc="F F F"
Pm       0.00000000       0.00000000       0.00000000       0.00000000       0.00000000    1155.23840332
Pm       0.00000000       0.00000000       1.00303030       0.00000000       0.00000000   -1155.23840332
2
Properties=species:S:1:pos:R:3:forces:R:3 energy=-60.92227279466172 pbc="F F F"
Pm       0.00000000       0.00000000       0.00000000       0.00000000       0.00000000     103.27392578
Pm       0.00000000       0.00000000       1.06181818       0.00000000       0.00000000    -103.27392578
2
Properties=species:S:1:pos:R:3:forces:R:3 energy=-56.07721427113624 pbc="F F F"
Pm       0.00000000       0.00000000       0.00000000       0.00000000       0.00000000      67.56418610
Pm       0.00000000       0.00000000       1.12060606       0.00000000       0.00000000     -67.56418610
2
Properties=species:S:1:pos:R:3:forces:R:3 energy=-52.8939026946923 pbc="F F F"
Pm       0.00000000       0.00000000       0.00000000       0.00000000       0.00000000      44.05440903
Pm       0.00000000       0.00000000       1.17939394       0.00000000       0.00000000     -44.05440903
2
Properties=species:S:1:pos:R:3:forces:R:3 energy=-50.75356747546814 pbc="F F F"
Pm       0.00000000       0.00000000       0.00000000       0.00000000       0.00000000      26.90083504
Pm       0.00000000       0.00000000       1.23818182       0.00000000       0.00000000     -26.90083504
2
Properties=species:S:1:pos:R:3:forces:R:3 energy=-49.8408895300097 pbc="F F F"
Pm       0.00000000       0.00000000       0.00000000       0.00000000       0.00000000       5.71780634
Pm       0.00000000       0.00000000       1.29696970       0.00000000       0.00000000      -5.71780634
2
Properties=species:S:1:pos:R:3:forces:R:3 energy=-49.86713442544964 pbc="F F F"
Pm       0.00000000       0.00000000       0.00000000       0.00000000       0.00000000      -6.00671864
Pm       0.00000000       0.00000000       1.35575758       0.00000000       0.00000000       6.00671864
2
Properties=species:S:1:pos:R:3:forces:R:3 energy=-50.57601552485512 pbc="F F F"
Pm       0.00000000       0.00000000       0.00000000       0.00000000       0.00000000     -18.22361946
Pm       0.00000000       0.00000000       1.41454545       0.00000000       0.00000000      18.22361946
2
Properties=species:S:1:pos:R:3:forces:R:3 energy=-51.93480653404869 pbc="F F F"
Pm       0.00000000       0.00000000       0.00000000       0.00000000       0.00000000     -26.94727135
Pm       0.00000000       0.00000000       1.47333333       0.00000000       0.00000000      26.94727135
2
Properties=species:S:1:pos:R:3:forces:R:3 energy=-53.63599324334959 pbc="F F F"
Pm       0.00000000       0.00000000       0.00000000       0.00000000       0.00000000     -30.25296593
Pm       0.00000000       0.00000000       1.53212121       0.00000000       0.00000000      30.25296593
2
Properties=species:S:1:pos:R:3:forces:R:3 energy=-55.43637343378168 pbc="F F F"
Pm       0.00000000       0.00000000       0.00000000       0.00000000       0.00000000     -30.67033958
Pm       0.00000000       0.00000000       1.59090909       0.00000000       0.00000000      30.67033958
2
Properties=species:S:1:pos:R:3:forces:R:3 energy=-57.212476789445034 pbc="F F F"
Pm       0.00000000       0.00000000       0.00000000       0.00000000       0.00000000     -29.53639984
Pm       0.00000000       0.00000000       1.64969697       0.00000000       0.00000000      29.53639984
2
Properties=species:S:1:pos:R:3:forces:R:3 energy=-58.88188293270815 pbc="F F F"
Pm       0.00000000       0.00000000       0.00000000       0.00000000       0.00000000     -26.99810982
Pm       0.00000000       0.00000000       1.70848485       0.00000000       0.00000000      26.99810982
2
Properties=species:S:1:pos:R:3:forces:R:3 energy=-60.35554536946043 pbc="F F F"
Pm       0.00000000       0.00000000       0.00000000       0.00000000       0.00000000     -22.90253639
Pm       0.00000000       0.00000000       1.76727273       0.00000000       0.00000000      22.90253639
2
Properties=species:S:1:pos:R:3:forces:R:3 energy=-61.557212097052364 pbc="F F F"
Pm       0.00000000       0.00000000       0.00000000       0.00000000       0.00000000     -17.93627930
Pm       0.00000000       0.00000000       1.82606061       0.00000000       0.00000000      17.93627930
2
Properties=species:S:1:pos:R:3:forces:R:3 energy=-62.47158233307331 pbc="F F F"
Pm       0.00000000       0.00000000       0.00000000       0.00000000       0.00000000     -13.31882668
Pm       0.00000000       0.00000000       1.88484848       0.00000000       0.00000000      13.31882668
2
Properties=species:S:1:pos:R:3:forces:R:3 energy=-63.146644950117896 pbc="F F F"
Pm       0.00000000       0.00000000       0.00000000       0.00000000       0.00000000      -9.87356377
Pm       0.00000000       0.00000000       1.94363636       0.00000000       0.00000000       9.87356377
2
Properties=species:S:1:pos:R:3:forces:R:3 energy=-63.65816743359775 pbc="F F F"
Pm       0.00000000       0.00000000       0.00000000       0.00000000       0.00000000      -7.72065020
Pm       0.00000000       0.00000000       2.00242424       0.00000000       0.00000000       7.72065020
2
Properties=species:S:1:pos:R:3:forces:R:3 energy=-64.07191894105563 pbc="F F F"
Pm       0.00000000       0.00000000       0.00000000       0.00000000       0.00000000      -6.45945215
Pm       0.00000000       0.00000000       2.06121212       0.00000000       0.00000000       6.45945215
2
Properties=species:S:1:pos:R:3:forces:R:3 energy=-64.42546276162012 pbc="F F F"
Pm       0.00000000       0.00000000       0.00000000       0.00000000       0.00000000      -5.60573244
Pm       0.00000000       0.00000000       2.12000000       0.00000000       0.00000000       5.60573244
2
Properties=species:S:1:pos:R:3:forces:R:3 energy=-64.73345110630679 pbc="F F F"
Pm       0.00000000       0.00000000       0.00000000       0.00000000       0.00000000      -4.88280392
Pm       0.00000000       0.00000000       2.17878788       0.00000000       0.00000000       4.88280392
2
Properties=species:S:1:pos:R:3:forces:R:3 energy=-65.00033949400456 pbc="F F F"
Pm       0.00000000       0.00000000       0.00000000       0.00000000       0.00000000      -4.20195055
Pm       0.00000000       0.00000000       2.23757576       0.00000000       0.00000000       4.20195055
2
Properties=species:S:1:pos:R:3:forces:R:3 energy=-65.22803522899673 pbc="F F F"
Pm       0.00000000       0.00000000       0.00000000       0.00000000       0.00000000      -3.54882240
Pm       0.00000000       0.00000000       2.29636364       0.00000000       0.00000000       3.54882240
2
Properties=species:S:1:pos:R:3:forces:R:3 energy=-65.41807939512564 pbc="F F F"
Pm       0.00000000       0.00000000       0.00000000       0.00000000       0.00000000      -2.92022967
Pm       0.00000000       0.00000000       2.35515152       0.00000000       0.00000000       2.92022967
2
Properties=species:S:1:pos:R:3:forces:R:3 energy=-65.571761290375 pbc="F F F"
Pm       0.00000000       0.00000000       0.00000000       0.00000000       0.00000000      -2.31105042
Pm       0.00000000       0.00000000       2.41393939       0.00000000       0.00000000       2.31105042
2
Properties=species:S:1:pos:R:3:forces:R:3 energy=-65.69019475566117 pbc="F F F"
Pm       0.00000000       0.00000000       0.00000000       0.00000000       0.00000000      -1.72228122
Pm       0.00000000       0.00000000       2.47272727       0.00000000       0.00000000       1.72228122
2
Properties=species:S:1:pos:R:3:forces:R:3 energy=-65.77489796446818 pbc="F F F"
Pm       0.00000000       0.00000000       0.00000000       0.00000000       0.00000000      -1.16606510
Pm       0.00000000       0.00000000       2.53151515       0.00000000       0.00000000       1.16606510
2
Properties=species:S:1:pos:R:3:forces:R:3 energy=-65.82827410321345 pbc="F F F"
Pm       0.00000000       0.00000000       0.00000000       0.00000000       0.00000000      -0.65943873
Pm       0.00000000       0.00000000       2.59030303       0.00000000       0.00000000       0.65943873
2
Properties=species:S:1:pos:R:3:forces:R:3 energy=-65.85364950554923 pbc="F F F"
Pm       0.00000000       0.00000000       0.00000000       0.00000000       0.00000000      -0.21469322
Pm       0.00000000       0.00000000       2.64909091       0.00000000       0.00000000       0.21469322
2
Properties=species:S:1:pos:R:3:forces:R:3 energy=-65.85480825929618 pbc="F F F"
Pm       0.00000000       0.00000000       0.00000000       0.00000000       0.00000000       0.16410513
Pm       0.00000000       0.00000000       2.70787879       0.00000000       0.00000000      -0.16410513
2
Properties=species:S:1:pos:R:3:forces:R:3 energy=-65.83563363123604 pbc="F F F"
Pm       0.00000000       0.00000000       0.00000000       0.00000000       0.00000000       0.47734600
Pm       0.00000000       0.00000000       2.76666667       0.00000000       0.00000000      -0.47734600
2
Properties=species:S:1:pos:R:3:forces:R:3 energy=-65.79997836740459 pbc="F F F"
Pm       0.00000000       0.00000000       0.00000000       0.00000000       0.00000000       0.72457010
Pm       0.00000000       0.00000000       2.82545455       0.00000000       0.00000000      -0.72457010
2
Properties=species:S:1:pos:R:3:forces:R:3 energy=-65.75178675390075 pbc="F F F"
Pm       0.00000000       0.00000000       0.00000000       0.00000000       0.00000000       0.90344179
Pm       0.00000000       0.00000000       2.88424242       0.00000000       0.00000000      -0.90344179
2
Properties=species:S:1:pos:R:3:forces:R:3 energy=-65.69510987884333 pbc="F F F"
Pm       0.00000000       0.00000000       0.00000000       0.00000000       0.00000000       1.01359308
Pm       0.00000000       0.00000000       2.94303030       0.00000000       0.00000000      -1.01359308
2
Properties=species:S:1:pos:R:3:forces:R:3 energy=-65.63384623929277 pbc="F F F"
Pm       0.00000000       0.00000000       0.00000000       0.00000000       0.00000000       1.06106663
Pm       0.00000000       0.00000000       3.00181818       0.00000000       0.00000000      -1.06106663
2
Properties=species:S:1:pos:R:3:forces:R:3 energy=-65.57132210871266 pbc="F F F"
Pm       0.00000000       0.00000000       0.00000000       0.00000000       0.00000000       1.05908394
Pm       0.00000000       0.00000000       3.06060606       0.00000000       0.00000000      -1.05908394
2
Properties=species:S:1:pos:R:3:forces:R:3 energy=-65.50995586895309 pbc="F F F"
Pm       0.00000000       0.00000000       0.00000000       0.00000000       0.00000000       1.02489650
Pm       0.00000000       0.00000000       3.11939394       0.00000000       0.00000000      -1.02489650
2
Properties=species:S:1:pos:R:3:forces:R:3 energy=-65.4511130200762 pbc="F F F"
Pm       0.00000000       0.00000000       0.00000000       0.00000000       0.00000000       0.97560960
Pm       0.00000000       0.00000000       3.17818182       0.00000000       0.00000000      -0.97560960
2
Properties=species:S:1:pos:R:3:forces:R:3 energy=-65.39525116736277 pbc="F F F"
Pm       0.00000000       0.00000000       0.00000000       0.00000000       0.00000000       0.92576772
Pm       0.00000000       0.00000000       3.23696970       0.00000000       0.00000000      -0.92576772
2
Properties=species:S:1:pos:R:3:forces:R:3 energy=-65.34204206628209 pbc="F F F"
Pm       0.00000000       0.00000000       0.00000000       0.00000000       0.00000000       0.88732278
Pm       0.00000000       0.00000000       3.29575758       0.00000000       0.00000000      -0.88732278
2
Properties=species:S:1:pos:R:3:forces:R:3 energy=-65.29050135070942 pbc="F F F"
Pm       0.00000000       0.00000000       0.00000000       0.00000000       0.00000000       0.87071615
Pm       0.00000000       0.00000000       3.35454545       0.00000000       0.00000000      -0.87071615
2
Properties=species:S:1:pos:R:3:forces:R:3 energy=-65.23905711511335 pbc="F F F"
Pm       0.00000000       0.00000000       0.00000000       0.00000000       0.00000000       0.88511723
Pm       0.00000000       0.00000000       3.41333333       0.00000000       0.00000000      -0.88511723
2
Properties=species:S:1:pos:R:3:forces:R:3 energy=-65.18569503144307 pbc="F F F"
Pm       0.00000000       0.00000000       0.00000000       0.00000000       0.00000000       0.93671042
Pm       0.00000000       0.00000000       3.47212121       0.00000000       0.00000000      -0.93671042
2
Properties=species:S:1:pos:R:3:forces:R:3 energy=-65.12818706940534 pbc="F F F"
Pm       0.00000000       0.00000000       0.00000000       0.00000000       0.00000000       1.02570236
Pm       0.00000000       0.00000000       3.53090909       0.00000000       0.00000000      -1.02570236
2
Properties=species:S:1:pos:R:3:forces:R:3 energy=-65.06451882492159 pbc="F F F"
Pm       0.00000000       0.00000000       0.00000000       0.00000000       0.00000000       1.14401197
Pm       0.00000000       0.00000000       3.58969697       0.00000000       0.00000000      -1.14401197
2
Properties=species:S:1:pos:R:3:forces:R:3 energy=-64.99341592934368 pbc="F F F"
Pm       0.00000000       0.00000000       0.00000000       0.00000000       0.00000000       1.27530551
Pm       0.00000000       0.00000000       3.64848485       0.00000000       0.00000000      -1.27530551
2
Properties=species:S:1:pos:R:3:forces:R:3 energy=-64.91474842320318 pbc="F F F"
Pm       0.00000000       0.00000000       0.00000000       0.00000000       0.00000000       1.39768004
Pm       0.00000000       0.00000000       3.70727273       0.00000000       0.00000000      -1.39768004
2
Properties=species:S:1:pos:R:3:forces:R:3 energy=-64.82971384900878 pbc="F F F"
Pm       0.00000000       0.00000000       0.00000000       0.00000000       0.00000000       1.48800814
Pm       0.00000000       0.00000000       3.76606061       0.00000000       0.00000000      -1.48800814
2
Properties=species:S:1:pos:R:3:forces:R:3 energy=-64.74080672416474 pbc="F F F"
Pm       0.00000000       0.00000000       0.00000000       0.00000000       0.00000000       1.52677310
Pm       0.00000000       0.00000000       3.82484848       0.00000000       0.00000000      -1.52677310
2
Properties=species:S:1:pos:R:3:forces:R:3 energy=-64.65144472598142 pbc="F F F"
Pm       0.00000000       0.00000000       0.00000000       0.00000000       0.00000000       1.50244570
Pm       0.00000000       0.00000000       3.88363636       0.00000000       0.00000000      -1.50244570
2
Properties=species:S:1:pos:R:3:forces:R:3 energy=-64.5654117300354 pbc="F F F"
Pm       0.00000000       0.00000000       0.00000000       0.00000000       0.00000000       1.41458046
Pm       0.00000000       0.00000000       3.94242424       0.00000000       0.00000000      -1.41458046
2
Properties=species:S:1:pos:R:3:forces:R:3 energy=-64.48616350358888 pbc="F F F"
Pm       0.00000000       0.00000000       0.00000000       0.00000000       0.00000000       1.27436864
Pm       0.00000000       0.00000000       4.00121212       0.00000000       0.00000000      -1.27436864
2
Properties=species:S:1:pos:R:3:forces:R:3 energy=-64.41620979432481 pbc="F F F"
Pm       0.00000000       0.00000000       0.00000000       0.00000000       0.00000000       1.10189855
Pm       0.00000000       0.00000000       4.06000000       0.00000000       0.00000000      -1.10189855
2
Properties=species:S:1:pos:R:3:forces:R:3 energy=-64.35677094423646 pbc="F F F"
Pm       0.00000000       0.00000000       0.00000000       0.00000000       0.00000000       0.92073655
Pm       0.00000000       0.00000000       4.11878788       0.00000000       0.00000000      -0.92073655
2
Properties=species:S:1:pos:R:3:forces:R:3 energy=-64.30770162102472 pbc="F F F"
Pm       0.00000000       0.00000000       0.00000000       0.00000000       0.00000000       0.75213325
Pm       0.00000000       0.00000000       4.17757576       0.00000000       0.00000000      -0.75213325
2
Properties=species:S:1:pos:R:3:forces:R:3 energy=-64.26779600655063 pbc="F F F"
Pm       0.00000000       0.00000000       0.00000000       0.00000000       0.00000000       0.61109966
Pm       0.00000000       0.00000000       4.23636364       0.00000000       0.00000000      -0.61109966
2
Properties=species:S:1:pos:R:3:forces:R:3 energy=-64.23516162132832 pbc="F F F"
Pm       0.00000000       0.00000000       0.00000000       0.00000000       0.00000000       0.50514638
Pm       0.00000000       0.00000000       4.29515152       0.00000000       0.00000000      -0.50514638
2
Properties=species:S:1:pos:R:3:forces:R:3 energy=-64.20769235015375 pbc="F F F"
Pm       0.00000000       0.00000000       0.00000000       0.00000000       0.00000000       0.43518674
Pm       0.00000000       0.00000000       4.35393939       0.00000000       0.00000000      -0.43518674
2
Properties=species:S:1:pos:R:3:forces:R:3 energy=-64.18336599482708 pbc="F F F"
Pm       0.00000000       0.00000000       0.00000000       0.00000000       0.00000000       0.39738262
Pm       0.00000000       0.00000000       4.41272727       0.00000000       0.00000000      -0.39738262
2
Properties=species:S:1:pos:R:3:forces:R:3 energy=-64.16046552025846 pbc="F F F"
Pm       0.00000000       0.00000000       0.00000000       0.00000000       0.00000000       0.38513130
Pm       0.00000000       0.00000000       4.47151515       0.00000000       0.00000000      -0.38513130
2
Properties=species:S:1:pos:R:3:forces:R:3 energy=-64.13773166453332 pbc="F F F"
Pm       0.00000000       0.00000000       0.00000000       0.00000000       0.00000000       0.39057693
Pm       0.00000000       0.00000000       4.53030303       0.00000000       0.00000000      -0.39057693
2
Properties=species:S:1:pos:R:3:forces:R:3 energy=-64.11435526833625 pbc="F F F"
Pm       0.00000000       0.00000000       0.00000000       0.00000000       0.00000000       0.40564606
Pm       0.00000000       0.00000000       4.58909091       0.00000000       0.00000000      -0.40564606
2
Properties=species:S:1:pos:R:3:forces:R:3 energy=-64.09000022015537 pbc="F F F"
Pm       0.00000000       0.00000000       0.00000000       0.00000000       0.00000000       0.42265528
Pm       0.00000000       0.00000000       4.64787879       0.00000000       0.00000000      -0.42265528
2
Properties=species:S:1:pos:R:3:forces:R:3 energy=-64.0647652617923 pbc="F F F"
Pm       0.00000000       0.00000000       0.00000000       0.00000000       0.00000000       0.43469331
Pm       0.00000000       0.00000000       4.70666667       0.00000000       0.00000000      -0.43469331
2
Properties=species:S:1:pos:R:3:forces:R:3 energy=-64.03910010620405 pbc="F F F"
Pm       0.00000000       0.00000000       0.00000000       0.00000000       0.00000000       0.43608153
Pm       0.00000000       0.00000000       4.76545455       0.00000000       0.00000000      -0.43608153
2
Properties=species:S:1:pos:R:3:forces:R:3 energy=-64.01377107354935 pbc="F F F"
Pm       0.00000000       0.00000000       0.00000000       0.00000000       0.00000000       0.42304602
Pm       0.00000000       0.00000000       4.82424242       0.00000000       0.00000000      -0.42304602
2
Properties=species:S:1:pos:R:3:forces:R:3 energy=-63.98967039433931 pbc="F F F"
Pm       0.00000000       0.00000000       0.00000000       0.00000000       0.00000000       0.39458117
Pm       0.00000000       0.00000000       4.88303030       0.00000000       0.00000000      -0.39458117
2
Properties=species:S:1:pos:R:3:forces:R:3 energy=-63.96763689649114 pbc="F F F"
Pm       0.00000000       0.00000000       0.00000000       0.00000000       0.00000000       0.35316184
Pm       0.00000000       0.00000000       4.94181818       0.00000000       0.00000000      -0.35316184
2
Properties=species:S:1:pos:R:3:forces:R:3 energy=-63.9482805260861 pbc="F F F"
Pm       0.00000000       0.00000000       0.00000000       0.00000000       0.00000000       0.30494693
Pm       0.00000000       0.00000000       5.00060606       0.00000000       0.00000000      -0.30494693
2
Properties=species:S:1:pos:R:3:forces:R:3 energy=-63.93174206262347 pbc="F F F"
Pm       0.00000000       0.00000000       0.00000000       0.00000000       0.00000000       0.25888568
Pm       0.00000000       0.00000000       5.05939394       0.00000000       0.00000000      -0.25888568
2
Properties=species:S:1:pos:R:3:forces:R:3 energy=-63.917609167170305 pbc="F F F"
Pm       0.00000000       0.00000000       0.00000000       0.00000000       0.00000000       0.22455260
Pm       0.00000000       0.00000000       5.11818182       0.00000000       0.00000000      -0.22455260
2
Properties=species:S:1:pos:R:3:forces:R:3 energy=-63.90497360598824 pbc="F F F"
Pm       0.00000000       0.00000000       0.00000000       0.00000000       0.00000000       0.20859055
Pm       0.00000000       0.00000000       5.17696970       0.00000000       0.00000000      -0.20859055
2
Properties=species:S:1:pos:R:3:forces:R:3 energy=-63.89272501390116 pbc="F F F"
Pm       0.00000000       0.00000000       0.00000000       0.00000000       0.00000000       0.21056007
Pm       0.00000000       0.00000000       5.23575758       0.00000000       0.00000000      -0.21056007
2
Properties=species:S:1:pos:R:3:forces:R:3 energy=-63.88005822052114 pbc="F F F"
Pm       0.00000000       0.00000000       0.00000000       0.00000000       0.00000000       0.22058336
Pm       0.00000000       0.00000000       5.29454545       0.00000000       0.00000000      -0.22058336
2
Properties=species:S:1:pos:R:3:forces:R:3 energy=-63.866896713323136 pbc="F F F"
Pm       0.00000000       0.00000000       0.00000000       0.00000000       0.00000000       0.22578844
Pm       0.00000000       0.00000000       5.35333333       0.00000000       0.00000000      -0.22578844
2
Properties=species:S:1:pos:R:3:forces:R:3 energy=-63.853522596171125 pbc="F F F"
Pm       0.00000000       0.00000000       0.00000000       0.00000000       0.00000000       0.23146908
Pm       0.00000000       0.00000000       5.41212121       0.00000000       0.00000000      -0.23146908
2
Properties=species:S:1:pos:R:3:forces:R:3 energy=-63.83910794670992 pbc="F F F"
Pm       0.00000000       0.00000000       0.00000000       0.00000000       0.00000000       0.26493463
Pm       0.00000000       0.00000000       5.47090909       0.00000000       0.00000000      -0.26493463
2
Properties=species:S:1:pos:R:3:forces:R:3 energy=-63.82201236591977 pbc="F F F"
Pm       0.00000000       0.00000000       0.00000000       0.00000000       0.00000000       0.31436822
Pm       0.00000000       0.00000000       5.52969697       0.00000000       0.00000000      -0.31436822
2
Properties=species:S:1:pos:R:3:forces:R:3 energy=-63.80296063360984 pbc="F F F"
Pm       0.00000000       0.00000000       0.00000000       0.00000000       0.00000000       0.32498398
Pm       0.00000000       0.00000000       5.58848485       0.00000000       0.00000000      -0.32498398
2
Properties=species:S:1:pos:R:3:forces:R:3 energy=-63.784512436987946 pbc="F F F"
Pm       0.00000000       0.00000000       0.00000000       0.00000000       0.00000000       0.30240303
Pm       0.00000000       0.00000000       5.64727273       0.00000000       0.00000000      -0.30240303
2
Properties=species:S:1:pos:R:3:forces:R:3 energy=-63.76670602756488 pbc="F F F"
Pm       0.00000000       0.00000000       0.00000000       0.00000000       0.00000000       0.31426424
Pm       0.00000000       0.00000000       5.70606061       0.00000000       0.00000000      -0.31426424
2
Properties=species:S:1:pos:R:3:forces:R:3 energy=-63.74639826902398 pbc="F F F"
Pm       0.00000000       0.00000000       0.00000000       0.00000000       0.00000000       0.37699950
Pm       0.00000000       0.00000000       5.76484848       0.00000000       0.00000000      -0.37699950
2
Properties=species:S:1:pos:R:3:forces:R:3 energy=-63.723696213643166 pbc="F F F"
Pm       0.00000000       0.00000000       0.00000000       0.00000000       0.00000000       0.37356472
Pm       0.00000000       0.00000000       5.82363636       0.00000000       0.00000000      -0.37356472
2
Properties=species:S:1:pos:R:3:forces:R:3 energy=-63.705302594964714 pbc="F F F"
Pm       0.00000000       0.00000000       0.00000000       0.00000000       0.00000000       0.23792823
Pm       0.00000000       0.00000000       5.88242424       0.00000000       0.00000000      -0.23792823
2
Properties=species:S:1:pos:R:3:forces:R:3 energy=-63.69627608803714 pbc="F F F"
Pm       0.00000000       0.00000000       0.00000000       0.00000000       0.00000000       0.07540592
Pm       0.00000000       0.00000000       5.94121212       0.00000000       0.00000000      -0.07540592
2
Properties=species:S:1:pos:R:3:forces:R:3 energy=-63.69448855745609 pbc="F F F"
Pm       0.00000000       0.00000000       0.00000000       0.00000000       0.00000000       0.00786583
Pm       0.00000000       0.00000000       6.00000000       0.00000000       0.00000000      -0.00786583
