2
Properties=species:S:1:pos:R:3:forces:R:3 energy=57060.23358783064 pbc="F F F"
S        0.00000000       0.00000000       0.00000000       0.00000000       0.00000000 -145045.26562500
S        0.00000000       0.00000000       0.10000000       0.00000000       0.00000000  145045.26562500
2
Properties=species:S:1:pos:R:3:forces:R:3 energy=52011.31171283064 pbc="F F F"
S        0.00000000       0.00000000       0.00000000       0.00000000       0.00000000  -56475.06640625
S        0.00000000       0.00000000       0.15959596       0.00000000       0.00000000   56475.06640625
2
Properties=species:S:1:pos:R:3:forces:R:3 energy=48405.75311908064 pbc="F F F"
S        0.00000000       0.00000000       0.00000000       0.00000000       0.00000000  -74008.00781250
S        0.00000000       0.00000000       0.21919192       0.00000000       0.00000000   74008.00781250
2
Properties=species:S:1:pos:R:3:forces:R:3 energy=42366.44061908064 pbc="F F F"
S        0.00000000       0.00000000       0.00000000       0.00000000       0.00000000 -133131.95312500
S        0.00000000       0.00000000       0.27878788       0.00000000       0.00000000  133131.95312500
2
Properties=species:S:1:pos:R:3:forces:R:3 energy=32439.59686908143 pbc="F F F"
S        0.00000000       0.00000000       0.00000000       0.00000000       0.00000000 -196094.15625000
S        0.00000000       0.00000000       0.33838384       0.00000000       0.00000000  196094.15625000
2
Properties=species:S:1:pos:R:3:forces:R:3 energy=20292.157415957223 pbc="F F F"
S        0.00000000       0.00000000       0.00000000       0.00000000       0.00000000 -195915.79687500
S        0.00000000       0.00000000       0.39797980       0.00000000       0.00000000  195915.79687500
2
Properties=species:S:1:pos:R:3:forces:R:3 energy=9958.267767522098 pbc="F F F"
S        0.00000000       0.00000000       0.00000000       0.00000000       0.00000000 -131948.12500000
S        0.00000000       0.00000000       0.45757576       0.00000000       0.00000000  131948.12500000
2
Properties=species:S:1:pos:R:3:forces:R:3 energy=4816.86347065185 pbc="F F F"
S        0.00000000       0.00000000       0.00000000       0.00000000       0.00000000  -49225.12109375
S        0.00000000       0.00000000       0.51717172       0.00000000       0.00000000   49225.12109375
2
Properties=species:S:1:pos:R:3:forces:R:3 energy=2407.560003862894 pbc="F F F"
S        0.00000000       0.00000000       0.00000000       0.00000000       0.00000000  -42050.33203125
S        0.00000000       0.00000000       0.57676768       0.00000000       0.00000000   42050.33203125
2
Properties=species:S:1:pos:R:3:forces:R:3 energy=715.8077455755761 pbc="F F F"
S        0.00000000       0.00000000       0.00000000       0.00000000       0.00000000  -19200.41406250
S        0.00000000       0.00000000       0.63636364       0.00000000       0.00000000   19200.41406250
2
Properties=species:S:1:pos:R:3:forces:R:3 energy=185.29758324265126 pbc="F F F"
S        0.00000000       0.00000000       0.00000000       0.00000000       0.00000000    -424.35821533
S        0.00000000       0.00000000       0.69595960       0.00000000       0.00000000     424.35821533
2
Properties=species:S:1:pos:R:3:forces:R:3 energy=140.76560085403838 pbc="F F F"
S        0.00000000       0.00000000       0.00000000       0.00000000       0.00000000    -856.85302734
S        0.00000000       0.00000000       0.75555556       0.00000000       0.00000000     856.85302734
2
Properties=species:S:1:pos:R:3:forces:R:3 energy=74.06567261865627 pbc="F F F"
S        0.00000000       0.00000000       0.00000000       0.00000000       0.00000000   -1007.73876953
S        0.00000000       0.00000000       0.81515152       0.00000000       0.00000000    1007.73876953
2
Properties=species:S:1:pos:R:3:forces:R:3 energy=42.91161995397336 pbc="F F F"
S        0.00000000       0.00000000       0.00000000       0.00000000       0.00000000    -179.57806396
S        0.00000000       0.00000000       0.87474747       0.00000000       0.00000000     179.57806396
2
Properties=species:S:1:pos:R:3:forces:R:3 energy=35.83336916795803 pbc="F F F"
S        0.00000000       0.00000000       0.00000000       0.00000000       0.00000000     -64.77208710
S        0.00000000       0.00000000       0.93434343       0.00000000       0.00000000      64.77208710
2
Properties=species:S:1:pos:R:3:forces:R:3 energy=33.43709092282673 pbc="F F F"
S        0.00000000       0.00000000       0.00000000       0.00000000       0.00000000      -9.28520966
S        0.00000000       0.00000000       0.99393939       0.00000000       0.00000000       9.28520966
2
Properties=species:S:1:pos:R:3:forces:R:3 energy=32.362593883660026 pbc="F F F"
S        0.00000000       0.00000000       0.00000000       0.00000000       0.00000000     -52.60607529
S        0.00000000       0.00000000       1.05353535       0.00000000       0.00000000      52.60607529
2
Properties=species:S:1:pos:R:3:forces:R:3 energy=26.795833112320537 pbc="F F F"
S        0.00000000       0.00000000       0.00000000       0.00000000       0.00000000    -126.19319153
S        0.00000000       0.00000000       1.11313131       0.00000000       0.00000000     126.19319153
2
Properties=species:S:1:pos:R:3:forces:R:3 energy=18.515930021197295 pbc="F F F"
S        0.00000000       0.00000000       0.00000000       0.00000000       0.00000000    -144.44287109
S        0.00000000       0.00000000       1.17272727       0.00000000       0.00000000     144.44287109
2
Properties=species:S:1:pos:R:3:forces:R:3 energy=9.985345148764441 pbc="F F F"
S        0.00000000       0.00000000       0.00000000       0.00000000       0.00000000    -137.53004456
S        0.00000000       0.00000000       1.23232323       0.00000000       0.00000000     137.53004456
2
Properties=species:S:1:pos:R:3:forces:R:3 energy=2.663819151969866 pbc="F F F"
S        0.00000000       0.00000000       0.00000000       0.00000000       0.00000000    -106.51280975
S        0.00000000       0.00000000       1.29191919       0.00000000       0.00000000     106.51280975
2
Properties=species:S:1:pos:R:3:forces:R:3 energy=-2.77335211327895 pbc="F F F"
S        0.00000000       0.00000000       0.00000000       0.00000000       0.00000000     -77.07646942
S        0.00000000       0.00000000       1.35151515       0.00000000       0.00000000      77.07646942
2
Properties=species:S:1:pos:R:3:forces:R:3 energy=-6.646152099248537 pbc="F F F"
S        0.00000000       0.00000000       0.00000000       0.00000000       0.00000000     -53.98646164
S        0.00000000       0.00000000       1.41111111       0.00000000       0.00000000      53.98646164
2
Properties=species:S:1:pos:R:3:forces:R:3 energy=-9.349080555384099 pbc="F F F"
S        0.00000000       0.00000000       0.00000000       0.00000000       0.00000000     -37.89636230
S        0.00000000       0.00000000       1.47070707       0.00000000       0.00000000      37.89636230
2
Properties=species:S:1:pos:R:3:forces:R:3 energy=-11.282330657296315 pbc="F F F"
S        0.00000000       0.00000000       0.00000000       0.00000000       0.00000000     -27.72819901
S        0.00000000       0.00000000       1.53030303       0.00000000       0.00000000      27.72819901
2
Properties=species:S:1:pos:R:3:forces:R:3 energy=-12.710301891514964 pbc="F F F"
S        0.00000000       0.00000000       0.00000000       0.00000000       0.00000000     -20.44875908
S        0.00000000       0.00000000       1.58989899       0.00000000       0.00000000      20.44875908
2
Properties=species:S:1:pos:R:3:forces:R:3 energy=-13.740016494400228 pbc="F F F"
S        0.00000000       0.00000000       0.00000000       0.00000000       0.00000000     -14.26519871
S        0.00000000       0.00000000       1.64949495       0.00000000       0.00000000      14.26519871
2
Properties=species:S:1:pos:R:3:forces:R:3 energy=-14.432119517137629 pbc="F F F"
S        0.00000000       0.00000000       0.00000000       0.00000000       0.00000000      -9.15937710
S        0.00000000       0.00000000       1.70909091       0.00000000       0.00000000       9.15937710
2
Properties=species:S:1:pos:R:3:forces:R:3 energy=-14.856064142939244 pbc="F F F"
S        0.00000000       0.00000000       0.00000000       0.00000000       0.00000000      -5.27088213
S        0.00000000       0.00000000       1.76868687       0.00000000       0.00000000       5.27088213
2
Properties=species:S:1:pos:R:3:forces:R:3 energy=-15.082304903545905 pbc="F F F"
S        0.00000000       0.00000000       0.00000000       0.00000000       0.00000000      -2.47307444
S        0.00000000       0.00000000       1.82828283       0.00000000       0.00000000       2.47307444
2
Properties=species:S:1:pos:R:3:forces:R:3 energy=-15.164372424695594 pbc="F F F"
S        0.00000000       0.00000000       0.00000000       0.00000000       0.00000000      -0.36736867
S        0.00000000       0.00000000       1.88787879       0.00000000       0.00000000       0.36736867
2
Properties=species:S:1:pos:R:3:forces:R:3 energy=-15.135937069238862 pbc="F F F"
S        0.00000000       0.00000000       0.00000000       0.00000000       0.00000000       1.23203599
S        0.00000000       0.00000000       1.94747475       0.00000000       0.00000000      -1.23203599
2
Properties=species:S:1:pos:R:3:forces:R:3 energy=-15.028911568757655 pbc="F F F"
S        0.00000000       0.00000000       0.00000000       0.00000000       0.00000000       2.26726055
S        0.00000000       0.00000000       2.00707071       0.00000000       0.00000000      -2.26726055
2
Properties=species:S:1:pos:R:3:forces:R:3 energy=-14.874694637840626 pbc="F F F"
S        0.00000000       0.00000000       0.00000000       0.00000000       0.00000000       2.85507560
S        0.00000000       0.00000000       2.06666667       0.00000000       0.00000000      -2.85507560
2
Properties=species:S:1:pos:R:3:forces:R:3 energy=-14.69201924960783 pbc="F F F"
S        0.00000000       0.00000000       0.00000000       0.00000000       0.00000000       3.26947713
S        0.00000000       0.00000000       2.12626263       0.00000000       0.00000000      -3.26947713
2
Properties=species:S:1:pos:R:3:forces:R:3 energy=-14.484030588692645 pbc="F F F"
S        0.00000000       0.00000000       0.00000000       0.00000000       0.00000000       3.72092128
S        0.00000000       0.00000000       2.18585859       0.00000000       0.00000000      -3.72092128
2
Properties=species:S:1:pos:R:3:forces:R:3 energy=-14.249182733189063 pbc="F F F"
S        0.00000000       0.00000000       0.00000000       0.00000000       0.00000000       4.14033079
S        0.00000000       0.00000000       2.24545455       0.00000000       0.00000000      -4.14033079
2
Properties=species:S:1:pos:R:3:forces:R:3 energy=-13.989385899880448 pbc="F F F"
S        0.00000000       0.00000000       0.00000000       0.00000000       0.00000000       4.65577984
S        0.00000000       0.00000000       2.30505051       0.00000000       0.00000000      -4.65577984
2
Properties=species:S:1:pos:R:3:forces:R:3 energy=-13.68213440618557 pbc="F F F"
S        0.00000000       0.00000000       0.00000000       0.00000000       0.00000000       5.65180826
S        0.00000000       0.00000000       2.36464646       0.00000000       0.00000000      -5.65180826
2
Properties=species:S:1:pos:R:3:forces:R:3 energy=-13.347409886639722 pbc="F F F"
S        0.00000000       0.00000000       0.00000000       0.00000000       0.00000000       5.13644075
S        0.00000000       0.00000000       2.42424242       0.00000000       0.00000000      -5.13644075
2
Properties=species:S:1:pos:R:3:forces:R:3 energy=-13.102018136937655 pbc="F F F"
S        0.00000000       0.00000000       0.00000000       0.00000000       0.00000000       3.15935898
S        0.00000000       0.00000000       2.48383838       0.00000000       0.00000000      -3.15935898
2
Properties=species:S:1:pos:R:3:forces:R:3 energy=-12.937832672994197 pbc="F F F"
S        0.00000000       0.00000000       0.00000000       0.00000000       0.00000000       2.66004300
S        0.00000000       0.00000000       2.54343434       0.00000000       0.00000000      -2.66004300
2
Properties=species:S:1:pos:R:3:forces:R:3 energy=-12.763774676693389 pbc="F F F"
S        0.00000000       0.00000000       0.00000000       0.00000000       0.00000000       3.21915340
S        0.00000000       0.00000000       2.60303030       0.00000000       0.00000000      -3.21915340
2
Properties=species:S:1:pos:R:3:forces:R:3 energy=-12.558929471870458 pbc="F F F"
S        0.00000000       0.00000000       0.00000000       0.00000000       0.00000000       3.58635139
S        0.00000000       0.00000000       2.66262626       0.00000000       0.00000000      -3.58635139
2
Properties=species:S:1:pos:R:3:forces:R:3 energy=-12.342179847691712 pbc="F F F"
S        0.00000000       0.00000000       0.00000000       0.00000000       0.00000000       3.66990018
S        0.00000000       0.00000000       2.72222222       0.00000000       0.00000000      -3.66990018
2
Properties=species:S:1:pos:R:3:forces:R:3 energy=-12.120482748068252 pbc="F F F"
S        0.00000000       0.00000000       0.00000000       0.00000000       0.00000000       3.79213095
S        0.00000000       0.00000000       2.78181818       0.00000000       0.00000000      -3.79213095
2
Properties=species:S:1:pos:R:3:forces:R:3 energy=-11.888558397892604 pbc="F F F"
S        0.00000000       0.00000000       0.00000000       0.00000000       0.00000000       3.98619175
S        0.00000000       0.00000000       2.84141414       0.00000000       0.00000000      -3.98619175
2
Properties=species:S:1:pos:R:3:forces:R:3 energy=-11.64854330497781 pbc="F F F"
S        0.00000000       0.00000000       0.00000000       0.00000000       0.00000000       4.02479124
S        0.00000000       0.00000000       2.90101010       0.00000000       0.00000000      -4.02479124
2
Properties=species:S:1:pos:R:3:forces:R:3 energy=-11.414674340519825 pbc="F F F"
S        0.00000000       0.00000000       0.00000000       0.00000000       0.00000000       3.77739835
S        0.00000000       0.00000000       2.96060606       0.00000000       0.00000000      -3.77739835
2
Properties=species:S:1:pos:R:3:forces:R:3 energy=-11.202648306957121 pbc="F F F"
S        0.00000000       0.00000000       0.00000000       0.00000000       0.00000000       3.31316161
S        0.00000000       0.00000000       3.02020202       0.00000000       0.00000000      -3.31316161
2
Properties=species:S:1:pos:R:3:forces:R:3 energy=-11.021425296658387 pbc="F F F"
S        0.00000000       0.00000000       0.00000000       0.00000000       0.00000000       2.76407933
S        0.00000000       0.00000000       3.07979798       0.00000000       0.00000000      -2.76407933
2
Properties=species:S:1:pos:R:3:forces:R:3 energy=-10.872934235433917 pbc="F F F"
S        0.00000000       0.00000000       0.00000000       0.00000000       0.00000000       2.22648191
S        0.00000000       0.00000000       3.13939394       0.00000000       0.00000000      -2.22648191
2
Properties=species:S:1:pos:R:3:forces:R:3 energy=-10.754778740091329 pbc="F F F"
S        0.00000000       0.00000000       0.00000000       0.00000000       0.00000000       1.75178075
S        0.00000000       0.00000000       3.19898990       0.00000000       0.00000000      -1.75178075
2
Properties=species:S:1:pos:R:3:forces:R:3 energy=-10.6624393369578 pbc="F F F"
S        0.00000000       0.00000000       0.00000000       0.00000000       0.00000000       1.36190557
S        0.00000000       0.00000000       3.25858586       0.00000000       0.00000000      -1.36190557
2
Properties=species:S:1:pos:R:3:forces:R:3 energy=-10.590692639344685 pbc="F F F"
S        0.00000000       0.00000000       0.00000000       0.00000000       0.00000000       1.06007326
S        0.00000000       0.00000000       3.31818182       0.00000000       0.00000000      -1.06007326
2
Properties=species:S:1:pos:R:3:forces:R:3 energy=-10.534506901583606 pbc="F F F"
S        0.00000000       0.00000000       0.00000000       0.00000000       0.00000000       0.83757067
S        0.00000000       0.00000000       3.37777778       0.00000000       0.00000000      -0.83757067
2
Properties=species:S:1:pos:R:3:forces:R:3 energy=-10.489580873525622 pbc="F F F"
S        0.00000000       0.00000000       0.00000000       0.00000000       0.00000000       0.67946959
S        0.00000000       0.00000000       3.43737374       0.00000000       0.00000000      -0.67946959
2
Properties=species:S:1:pos:R:3:forces:R:3 energy=-10.452568881143138 pbc="F F F"
S        0.00000000       0.00000000       0.00000000       0.00000000       0.00000000       0.56929088
S        0.00000000       0.00000000       3.49696970       0.00000000       0.00000000      -0.56929088
2
Properties=species:S:1:pos:R:3:forces:R:3 energy=-10.4210732288136 pbc="F F F"
S        0.00000000       0.00000000       0.00000000       0.00000000       0.00000000       0.49208230
S        0.00000000       0.00000000       3.55656566       0.00000000       0.00000000      -0.49208230
2
Properties=species:S:1:pos:R:3:forces:R:3 energy=-10.393500189745987 pbc="F F F"
S        0.00000000       0.00000000       0.00000000       0.00000000       0.00000000       0.43596345
S        0.00000000       0.00000000       3.61616162       0.00000000       0.00000000      -0.43596345
2
Properties=species:S:1:pos:R:3:forces:R:3 energy=-10.368861653602327 pbc="F F F"
S        0.00000000       0.00000000       0.00000000       0.00000000       0.00000000       0.39248458
S        0.00000000       0.00000000       3.67575758       0.00000000       0.00000000      -0.39248458
2
Properties=species:S:1:pos:R:3:forces:R:3 energy=-10.346576762239884 pbc="F F F"
S        0.00000000       0.00000000       0.00000000       0.00000000       0.00000000       0.35628846
S        0.00000000       0.00000000       3.73535354       0.00000000       0.00000000      -0.35628846
2
Properties=species:S:1:pos:R:3:forces:R:3 energy=-10.326310761718402 pbc="F F F"
S        0.00000000       0.00000000       0.00000000       0.00000000       0.00000000       0.32438448
S        0.00000000       0.00000000       3.79494949       0.00000000       0.00000000      -0.32438448
2
Properties=species:S:1:pos:R:3:forces:R:3 energy=-10.307856737181396 pbc="F F F"
S        0.00000000       0.00000000       0.00000000       0.00000000       0.00000000       0.29533190
S        0.00000000       0.00000000       3.85454545       0.00000000       0.00000000      -0.29533190
2
Properties=species:S:1:pos:R:3:forces:R:3 energy=-10.291065054419988 pbc="F F F"
S        0.00000000       0.00000000       0.00000000       0.00000000       0.00000000       0.26851439
S        0.00000000       0.00000000       3.91414141       0.00000000       0.00000000      -0.26851439
2
Properties=species:S:1:pos:R:3:forces:R:3 energy=-10.275813791217365 pbc="F F F"
S        0.00000000       0.00000000       0.00000000       0.00000000       0.00000000       0.24362695
S        0.00000000       0.00000000       3.97373737       0.00000000       0.00000000      -0.24362695
2
Properties=species:S:1:pos:R:3:forces:R:3 energy=-10.261993488855135 pbc="F F F"
S        0.00000000       0.00000000       0.00000000       0.00000000       0.00000000       0.22039095
S        0.00000000       0.00000000       4.03333333       0.00000000       0.00000000      -0.22039095
2
Properties=species:S:1:pos:R:3:forces:R:3 energy=-10.249517641738853 pbc="F F F"
S        0.00000000       0.00000000       0.00000000       0.00000000       0.00000000       0.19847725
S        0.00000000       0.00000000       4.09292929       0.00000000       0.00000000      -0.19847725
2
Properties=species:S:1:pos:R:3:forces:R:3 energy=-10.238316020489874 pbc="F F F"
S        0.00000000       0.00000000       0.00000000       0.00000000       0.00000000       0.17760485
S        0.00000000       0.00000000       4.15252525       0.00000000       0.00000000      -0.17760485
2
Properties=species:S:1:pos:R:3:forces:R:3 energy=-10.228329904761706 pbc="F F F"
S        0.00000000       0.00000000       0.00000000       0.00000000       0.00000000       0.15766475
S        0.00000000       0.00000000       4.21212121       0.00000000       0.00000000      -0.15766475
2
Properties=species:S:1:pos:R:3:forces:R:3 energy=-10.219502540953155 pbc="F F F"
S        0.00000000       0.00000000       0.00000000       0.00000000       0.00000000       0.13878705
S        0.00000000       0.00000000       4.27171717       0.00000000       0.00000000      -0.13878705
2
Properties=species:S:1:pos:R:3:forces:R:3 energy=-10.211761018436532 pbc="F F F"
S        0.00000000       0.00000000       0.00000000       0.00000000       0.00000000       0.12128964
S        0.00000000       0.00000000       4.33131313       0.00000000       0.00000000      -0.12128964
2
Properties=species:S:1:pos:R:3:forces:R:3 energy=-10.205011494454455 pbc="F F F"
S        0.00000000       0.00000000       0.00000000       0.00000000       0.00000000       0.10549936
S        0.00000000       0.00000000       4.39090909       0.00000000       0.00000000      -0.10549936
2
Properties=species:S:1:pos:R:3:forces:R:3 energy=-10.199148726903235 pbc="F F F"
S        0.00000000       0.00000000       0.00000000       0.00000000       0.00000000       0.09156672
S        0.00000000       0.00000000       4.45050505       0.00000000       0.00000000      -0.09156672
2
Properties=species:S:1:pos:R:3:forces:R:3 energy=-10.19406369145209 pbc="F F F"
S        0.00000000       0.00000000       0.00000000       0.00000000       0.00000000       0.07935154
S        0.00000000       0.00000000       4.51010101       0.00000000       0.00000000      -0.07935154
2
Properties=species:S:1:pos:R:3:forces:R:3 energy=-10.189664546539003 pbc="F F F"
S        0.00000000       0.00000000       0.00000000       0.00000000       0.00000000       0.06843867
S        0.00000000       0.00000000       4.56969697       0.00000000       0.00000000      -0.06843867
2
Properties=species:S:1:pos:R:3:forces:R:3 energy=-10.185890944029152 pbc="F F F"
S        0.00000000       0.00000000       0.00000000       0.00000000       0.00000000       0.05826844
S        0.00000000       0.00000000       4.62929293       0.00000000       0.00000000      -0.05826844
2
Properties=species:S:1:pos:R:3:forces:R:3 energy=-10.182715908845102 pbc="F F F"
S        0.00000000       0.00000000       0.00000000       0.00000000       0.00000000       0.04829396
S        0.00000000       0.00000000       4.68888889       0.00000000       0.00000000      -0.04829396
2
Properties=species:S:1:pos:R:3:forces:R:3 energy=-10.180139162850606 pbc="F F F"
S        0.00000000       0.00000000       0.00000000       0.00000000       0.00000000       0.03810374
S        0.00000000       0.00000000       4.74848485       0.00000000       0.00000000      -0.03810374
2
Properties=species:S:1:pos:R:3:forces:R:3 energy=-10.17818329312631 pbc="F F F"
S        0.00000000       0.00000000       0.00000000       0.00000000       0.00000000       0.02747025
S        0.00000000       0.00000000       4.80808081       0.00000000       0.00000000      -0.02747025
2
Properties=species:S:1:pos:R:3:forces:R:3 energy=-10.176875631365764 pbc="F F F"
S        0.00000000       0.00000000       0.00000000       0.00000000       0.00000000       0.01631572
S        0.00000000       0.00000000       4.86767677       0.00000000       0.00000000      -0.01631572
2
Properties=species:S:1:pos:R:3:forces:R:3 energy=-10.176248238036331 pbc="F F F"
S        0.00000000       0.00000000       0.00000000       0.00000000       0.00000000       0.00466755
S        0.00000000       0.00000000       4.92727273       0.00000000       0.00000000      -0.00466755
2
Properties=species:S:1:pos:R:3:forces:R:3 energy=-10.176327406813988 pbc="F F F"
S        0.00000000       0.00000000       0.00000000       0.00000000       0.00000000      -0.00737156
S        0.00000000       0.00000000       4.98686869       0.00000000       0.00000000       0.00737156
2
Properties=species:S:1:pos:R:3:forces:R:3 energy=-10.177130803956347 pbc="F F F"
S        0.00000000       0.00000000       0.00000000       0.00000000       0.00000000      -0.01960709
S        0.00000000       0.00000000       5.04646465       0.00000000       0.00000000       0.01960709
2
Properties=species:S:1:pos:R:3:forces:R:3 energy=-10.178661727645817 pbc="F F F"
S        0.00000000       0.00000000       0.00000000       0.00000000       0.00000000      -0.03172702
S        0.00000000       0.00000000       5.10606061       0.00000000       0.00000000       0.03172702
2
Properties=species:S:1:pos:R:3:forces:R:3 energy=-10.180900539175944 pbc="F F F"
S        0.00000000       0.00000000       0.00000000       0.00000000       0.00000000      -0.04322621
S        0.00000000       0.00000000       5.16565657       0.00000000       0.00000000       0.04322621
2
Properties=species:S:1:pos:R:3:forces:R:3 energy=-10.18378367617679 pbc="F F F"
S        0.00000000       0.00000000       0.00000000       0.00000000       0.00000000      -0.05314067
S        0.00000000       0.00000000       5.22525253       0.00000000       0.00000000       0.05314067
2
Properties=species:S:1:pos:R:3:forces:R:3 energy=-10.187165498118688 pbc="F F F"
S        0.00000000       0.00000000       0.00000000       0.00000000       0.00000000      -0.05956256
S        0.00000000       0.00000000       5.28484848       0.00000000       0.00000000       0.05956256
2
Properties=species:S:1:pos:R:3:forces:R:3 energy=-10.19076393637969 pbc="F F F"
S        0.00000000       0.00000000       0.00000000       0.00000000       0.00000000      -0.06010101
S        0.00000000       0.00000000       5.34444444       0.00000000       0.00000000       0.06010101
2
Properties=species:S:1:pos:R:3:forces:R:3 energy=-10.194246325725992 pbc="F F F"
S        0.00000000       0.00000000       0.00000000       0.00000000       0.00000000      -0.05694491
S        0.00000000       0.00000000       5.40404040       0.00000000       0.00000000       0.05694491
2
Properties=species:S:1:pos:R:3:forces:R:3 energy=-10.197741529399726 pbc="F F F"
S        0.00000000       0.00000000       0.00000000       0.00000000       0.00000000      -0.06318527
S        0.00000000       0.00000000       5.46363636       0.00000000       0.00000000       0.06318527
2
Properties=species:S:1:pos:R:3:forces:R:3 energy=-10.202082178335 pbc="F F F"
S        0.00000000       0.00000000       0.00000000       0.00000000       0.00000000      -0.08324332
S        0.00000000       0.00000000       5.52323232       0.00000000       0.00000000       0.08324332
2
Properties=species:S:1:pos:R:3:forces:R:3 energy=-10.207388465787984 pbc="F F F"
S        0.00000000       0.00000000       0.00000000       0.00000000       0.00000000      -0.09043506
S        0.00000000       0.00000000       5.58282828       0.00000000       0.00000000       0.09043506
2
Properties=species:S:1:pos:R:3:forces:R:3 energy=-10.212425375203397 pbc="F F F"
S        0.00000000       0.00000000       0.00000000       0.00000000       0.00000000      -0.07727690
S        0.00000000       0.00000000       5.64242424       0.00000000       0.00000000       0.07727690
2
Properties=species:S:1:pos:R:3:forces:R:3 energy=-10.216818074957002 pbc="F F F"
S        0.00000000       0.00000000       0.00000000       0.00000000       0.00000000      -0.07460062
S        0.00000000       0.00000000       5.70202020       0.00000000       0.00000000       0.07460062
2
Properties=species:S:1:pos:R:3:forces:R:3 energy=-10.221894966451313 pbc="F F F"
S        0.00000000       0.00000000       0.00000000       0.00000000       0.00000000      -0.09867165
S        0.00000000       0.00000000       5.76161616       0.00000000       0.00000000       0.09867165
2
Properties=species:S:1:pos:R:3:forces:R:3 energy=-10.228307315793678 pbc="F F F"
S        0.00000000       0.00000000       0.00000000       0.00000000       0.00000000      -0.10920070
S        0.00000000       0.00000000       5.82121212       0.00000000       0.00000000       0.10920070
2
Properties=species:S:1:pos:R:3:forces:R:3 energy=-10.233882542809509 pbc="F F F"
S        0.00000000       0.00000000       0.00000000       0.00000000       0.00000000      -0.07184563
S        0.00000000       0.00000000       5.88080808       0.00000000       0.00000000       0.07184563
2
Properties=species:S:1:pos:R:3:forces:R:3 energy=-10.236607309552248 pbc="F F F"
S        0.00000000       0.00000000       0.00000000       0.00000000       0.00000000      -0.02041205
S        0.00000000       0.00000000       5.94040404       0.00000000       0.00000000       0.02041205
2
Properties=species:S:1:pos:R:3:forces:R:3 energy=-10.236947822784481 pbc="F F F"
S        0.00000000       0.00000000       0.00000000       0.00000000       0.00000000       0.00152876
S        0.00000000       0.00000000       6.00000000       0.00000000       0.00000000      -0.00152876
