2
Properties=species:S:1:pos:R:3:forces:R:3 energy=3604172.7364824214 pbc="F F F"
Sb       0.00000000       0.00000000       0.00000000       0.00000000       0.00000000 -1471591.75000000
Sb       0.00000000       0.00000000       0.18000000       0.00000000       0.00000000 1471591.75000000
2
Properties=species:S:1:pos:R:3:forces:R:3 energy=3463758.7364824214 pbc="F F F"
Sb       0.00000000       0.00000000       0.00000000       0.00000000       0.00000000 -3554777.00000000
Sb       0.00000000       0.00000000       0.23878788       0.00000000       0.00000000 3554777.00000000
2
Properties=species:S:1:pos:R:3:forces:R:3 energy=3157675.7364824214 pbc="F F F"
Sb       0.00000000       0.00000000       0.00000000       0.00000000       0.00000000 -7066529.50000000
Sb       0.00000000       0.00000000       0.29757576       0.00000000       0.00000000 7066529.50000000
2
Properties=species:S:1:pos:R:3:forces:R:3 energy=2619230.9864824214 pbc="F F F"
Sb       0.00000000       0.00000000       0.00000000       0.00000000       0.00000000 -11227541.00000000
Sb       0.00000000       0.00000000       0.35636364       0.00000000       0.00000000 11227541.00000000
2
Properties=species:S:1:pos:R:3:forces:R:3 energy=1865005.6114824214 pbc="F F F"
Sb       0.00000000       0.00000000       0.00000000       0.00000000       0.00000000 -13969534.00000000
Sb       0.00000000       0.00000000       0.41515152       0.00000000       0.00000000 13969534.00000000
2
Properties=species:S:1:pos:R:3:forces:R:3 energy=1053296.2364824247 pbc="F F F"
Sb       0.00000000       0.00000000       0.00000000       0.00000000       0.00000000 -12890837.00000000
Sb       0.00000000       0.00000000       0.47393939       0.00000000       0.00000000 12890837.00000000
2
Properties=species:S:1:pos:R:3:forces:R:3 energy=426513.1739824261 pbc="F F F"
Sb       0.00000000       0.00000000       0.00000000       0.00000000       0.00000000 -8024523.00000000
Sb       0.00000000       0.00000000       0.53272727       0.00000000       0.00000000 8024523.00000000
2
Properties=species:S:1:pos:R:3:forces:R:3 energy=112162.69741993089 pbc="F F F"
Sb       0.00000000       0.00000000       0.00000000       0.00000000       0.00000000 -3050393.25000000
Sb       0.00000000       0.00000000       0.59151515       0.00000000       0.00000000 3050393.25000000
2
Properties=species:S:1:pos:R:3:forces:R:3 energy=20221.38687306381 pbc="F F F"
Sb       0.00000000       0.00000000       0.00000000       0.00000000       0.00000000 -502803.59375000
Sb       0.00000000       0.00000000       0.65030303       0.00000000       0.00000000  502803.59375000
2
Properties=species:S:1:pos:R:3:forces:R:3 energy=6878.465486354562 pbc="F F F"
Sb       0.00000000       0.00000000       0.00000000       0.00000000       0.00000000  -52685.08984375
Sb       0.00000000       0.00000000       0.70909091       0.00000000       0.00000000   52685.08984375
2
Properties=species:S:1:pos:R:3:forces:R:3 energy=5579.39077934232 pbc="F F F"
Sb       0.00000000       0.00000000       0.00000000       0.00000000       0.00000000  -27468.62695312
Sb       0.00000000       0.00000000       0.76787879       0.00000000       0.00000000   27468.62695312
2
Properties=species:S:1:pos:R:3:forces:R:3 energy=4300.896638741077 pbc="F F F"
Sb       0.00000000       0.00000000       0.00000000       0.00000000       0.00000000  -16877.11132812
Sb       0.00000000       0.00000000       0.82666667       0.00000000       0.00000000   16877.11132812
2
Properties=species:S:1:pos:R:3:forces:R:3 energy=3245.3998126072165 pbc="F F F"
Sb       0.00000000       0.00000000       0.00000000       0.00000000       0.00000000  -19139.68945312
Sb       0.00000000       0.00000000       0.88545455       0.00000000       0.00000000   19139.68945312
2
Properties=species:S:1:pos:R:3:forces:R:3 energy=2181.996736484443 pbc="F F F"
Sb       0.00000000       0.00000000       0.00000000       0.00000000       0.00000000  -16001.17675781
Sb       0.00000000       0.00000000       0.94424242       0.00000000       0.00000000   16001.17675781
2
Properties=species:S:1:pos:R:3:forces:R:3 energy=1404.671052960385 pbc="F F F"
Sb       0.00000000       0.00000000       0.00000000       0.00000000       0.00000000  -10637.14746094
Sb       0.00000000       0.00000000       1.00303030       0.00000000       0.00000000   10637.14746094
2
Properties=species:S:1:pos:R:3:forces:R:3 energy=888.9500447530545 pbc="F F F"
Sb       0.00000000       0.00000000       0.00000000       0.00000000       0.00000000   -7341.73828125
Sb       0.00000000       0.00000000       1.06181818       0.00000000       0.00000000    7341.73828125
2
Properties=species:S:1:pos:R:3:forces:R:3 energy=531.4771444859746 pbc="F F F"
Sb       0.00000000       0.00000000       0.00000000       0.00000000       0.00000000   -4962.76025391
Sb       0.00000000       0.00000000       1.12060606       0.00000000       0.00000000    4962.76025391
2
Properties=species:S:1:pos:R:3:forces:R:3 energy=287.00235216706477 pbc="F F F"
Sb       0.00000000       0.00000000       0.00000000       0.00000000       0.00000000   -3330.45947266
Sb       0.00000000       0.00000000       1.17939394       0.00000000       0.00000000    3330.45947266
2
Properties=species:S:1:pos:R:3:forces:R:3 energy=136.59543098942225 pbc="F F F"
Sb       0.00000000       0.00000000       0.00000000       0.00000000       0.00000000   -1863.02624512
Sb       0.00000000       0.00000000       1.23818182       0.00000000       0.00000000    1863.02624512
2
Properties=species:S:1:pos:R:3:forces:R:3 energy=56.70332996609361 pbc="F F F"
Sb       0.00000000       0.00000000       0.00000000       0.00000000       0.00000000    -940.55957031
Sb       0.00000000       0.00000000       1.29696970       0.00000000       0.00000000     940.55957031
2
Properties=species:S:1:pos:R:3:forces:R:3 energy=17.45157935267002 pbc="F F F"
Sb       0.00000000       0.00000000       0.00000000       0.00000000       0.00000000    -473.99810791
Sb       0.00000000       0.00000000       1.35575758       0.00000000       0.00000000     473.99810791
2
Properties=species:S:1:pos:R:3:forces:R:3 energy=-4.560501377001603 pbc="F F F"
Sb       0.00000000       0.00000000       0.00000000       0.00000000       0.00000000    -288.38171387
Sb       0.00000000       0.00000000       1.41454545       0.00000000       0.00000000     288.38171387
2
Properties=species:S:1:pos:R:3:forces:R:3 energy=-17.53359389665133 pbc="F F F"
Sb       0.00000000       0.00000000       0.00000000       0.00000000       0.00000000    -164.01176453
Sb       0.00000000       0.00000000       1.47333333       0.00000000       0.00000000     164.01176453
2
Properties=species:S:1:pos:R:3:forces:R:3 energy=-25.00167760158187 pbc="F F F"
Sb       0.00000000       0.00000000       0.00000000       0.00000000       0.00000000     -96.90692902
Sb       0.00000000       0.00000000       1.53212121       0.00000000       0.00000000      96.90692902
2
Properties=species:S:1:pos:R:3:forces:R:3 energy=-29.526842391246326 pbc="F F F"
Sb       0.00000000       0.00000000       0.00000000       0.00000000       0.00000000     -61.66369247
Sb       0.00000000       0.00000000       1.59090909       0.00000000       0.00000000      61.66369247
2
Properties=species:S:1:pos:R:3:forces:R:3 energy=-32.73990757206821 pbc="F F F"
Sb       0.00000000       0.00000000       0.00000000       0.00000000       0.00000000     -50.40314102
Sb       0.00000000       0.00000000       1.64969697       0.00000000       0.00000000      50.40314102
2
Properties=species:S:1:pos:R:3:forces:R:3 energy=-35.57567611348295 pbc="F F F"
Sb       0.00000000       0.00000000       0.00000000       0.00000000       0.00000000     -46.03523254
Sb       0.00000000       0.00000000       1.70848485       0.00000000       0.00000000      46.03523254
2
Properties=species:S:1:pos:R:3:forces:R:3 energy=-38.11437870145468 pbc="F F F"
Sb       0.00000000       0.00000000       0.00000000       0.00000000       0.00000000     -39.99633026
Sb       0.00000000       0.00000000       1.76727273       0.00000000       0.00000000      39.99633026
2
Properties=species:S:1:pos:R:3:forces:R:3 energy=-40.261540505489066 pbc="F F F"
Sb       0.00000000       0.00000000       0.00000000       0.00000000       0.00000000     -33.12815857
Sb       0.00000000       0.00000000       1.82606061       0.00000000       0.00000000      33.12815857
2
Properties=species:S:1:pos:R:3:forces:R:3 energy=-42.03446498287951 pbc="F F F"
Sb       0.00000000       0.00000000       0.00000000       0.00000000       0.00000000     -27.45134735
Sb       0.00000000       0.00000000       1.88484848       0.00000000       0.00000000      27.45134735
2
Properties=species:S:1:pos:R:3:forces:R:3 energy=-43.51570210009078 pbc="F F F"
Sb       0.00000000       0.00000000       0.00000000       0.00000000       0.00000000     -23.10909081
Sb       0.00000000       0.00000000       1.94363636       0.00000000       0.00000000      23.10909081
2
Properties=species:S:1:pos:R:3:forces:R:3 energy=-44.7654897353087 pbc="F F F"
Sb       0.00000000       0.00000000       0.00000000       0.00000000       0.00000000     -19.49426651
Sb       0.00000000       0.00000000       2.00242424       0.00000000       0.00000000      19.49426651
2
Properties=species:S:1:pos:R:3:forces:R:3 energy=-45.81573013365751 pbc="F F F"
Sb       0.00000000       0.00000000       0.00000000       0.00000000       0.00000000     -16.29099083
Sb       0.00000000       0.00000000       2.06121212       0.00000000       0.00000000      16.29099083
2
Properties=species:S:1:pos:R:3:forces:R:3 energy=-46.68596975799287 pbc="F F F"
Sb       0.00000000       0.00000000       0.00000000       0.00000000       0.00000000     -13.34495735
Sb       0.00000000       0.00000000       2.12000000       0.00000000       0.00000000      13.34495735
2
Properties=species:S:1:pos:R:3:forces:R:3 energy=-47.387042294696165 pbc="F F F"
Sb       0.00000000       0.00000000       0.00000000       0.00000000       0.00000000     -10.52086830
Sb       0.00000000       0.00000000       2.17878788       0.00000000       0.00000000      10.52086830
2
Properties=species:S:1:pos:R:3:forces:R:3 energy=-47.92579505249929 pbc="F F F"
Sb       0.00000000       0.00000000       0.00000000       0.00000000       0.00000000      -7.84933615
Sb       0.00000000       0.00000000       2.23757576       0.00000000       0.00000000       7.84933615
2
Properties=species:S:1:pos:R:3:forces:R:3 energy=-48.317624087793774 pbc="F F F"
Sb       0.00000000       0.00000000       0.00000000       0.00000000       0.00000000      -5.56894064
Sb       0.00000000       0.00000000       2.29636364       0.00000000       0.00000000       5.56894064
2
Properties=species:S:1:pos:R:3:forces:R:3 energy=-48.59239081592888 pbc="F F F"
Sb       0.00000000       0.00000000       0.00000000       0.00000000       0.00000000      -3.88203788
Sb       0.00000000       0.00000000       2.35515152       0.00000000       0.00000000       3.88203788
2
Properties=species:S:1:pos:R:3:forces:R:3 energy=-48.78484322876599 pbc="F F F"
Sb       0.00000000       0.00000000       0.00000000       0.00000000       0.00000000      -2.73930907
Sb       0.00000000       0.00000000       2.41393939       0.00000000       0.00000000       2.73930907
2
Properties=species:S:1:pos:R:3:forces:R:3 energy=-48.92074193417428 pbc="F F F"
Sb       0.00000000       0.00000000       0.00000000       0.00000000       0.00000000      -1.91816199
Sb       0.00000000       0.00000000       2.47272727       0.00000000       0.00000000       1.91816199
2
Properties=species:S:1:pos:R:3:forces:R:3 energy=-49.01270208690992 pbc="F F F"
Sb       0.00000000       0.00000000       0.00000000       0.00000000       0.00000000      -1.21991599
Sb       0.00000000       0.00000000       2.53151515       0.00000000       0.00000000       1.21991599
2
Properties=species:S:1:pos:R:3:forces:R:3 energy=-49.0646604212889 pbc="F F F"
Sb       0.00000000       0.00000000       0.00000000       0.00000000       0.00000000      -0.54886740
Sb       0.00000000       0.00000000       2.59030303       0.00000000       0.00000000       0.54886740
2
Properties=species:S:1:pos:R:3:forces:R:3 energy=-49.07737988151609 pbc="F F F"
Sb       0.00000000       0.00000000       0.00000000       0.00000000       0.00000000       0.11372058
Sb       0.00000000       0.00000000       2.64909091       0.00000000       0.00000000      -0.11372058
2
Properties=species:S:1:pos:R:3:forces:R:3 energy=-49.05186374881144 pbc="F F F"
Sb       0.00000000       0.00000000       0.00000000       0.00000000       0.00000000       0.74627888
Sb       0.00000000       0.00000000       2.70787879       0.00000000       0.00000000      -0.74627888
2
Properties=species:S:1:pos:R:3:forces:R:3 energy=-48.99097687666057 pbc="F F F"
Sb       0.00000000       0.00000000       0.00000000       0.00000000       0.00000000       1.31056011
Sb       0.00000000       0.00000000       2.76666667       0.00000000       0.00000000      -1.31056011
2
Properties=species:S:1:pos:R:3:forces:R:3 energy=-48.89973566165985 pbc="F F F"
Sb       0.00000000       0.00000000       0.00000000       0.00000000       0.00000000       1.77582431
Sb       0.00000000       0.00000000       2.82545455       0.00000000       0.00000000      -1.77582431
2
Properties=species:S:1:pos:R:3:forces:R:3 energy=-48.784194185177014 pbc="F F F"
Sb       0.00000000       0.00000000       0.00000000       0.00000000       0.00000000       2.13945127
Sb       0.00000000       0.00000000       2.88424242       0.00000000       0.00000000      -2.13945127
2
Properties=species:S:1:pos:R:3:forces:R:3 energy=-48.6496817994558 pbc="F F F"
Sb       0.00000000       0.00000000       0.00000000       0.00000000       0.00000000       2.42682838
Sb       0.00000000       0.00000000       2.94303030       0.00000000       0.00000000      -2.42682838
2
Properties=species:S:1:pos:R:3:forces:R:3 energy=-48.499750557858476 pbc="F F F"
Sb       0.00000000       0.00000000       0.00000000       0.00000000       0.00000000       2.66785836
Sb       0.00000000       0.00000000       3.00181818       0.00000000       0.00000000      -2.66785836
2
Properties=species:S:1:pos:R:3:forces:R:3 energy=-48.33670951006975 pbc="F F F"
Sb       0.00000000       0.00000000       0.00000000       0.00000000       0.00000000       2.87239361
Sb       0.00000000       0.00000000       3.06060606       0.00000000       0.00000000      -2.87239361
2
Properties=species:S:1:pos:R:3:forces:R:3 energy=-48.16297944865233 pbc="F F F"
Sb       0.00000000       0.00000000       0.00000000       0.00000000       0.00000000       3.02821088
Sb       0.00000000       0.00000000       3.11939394       0.00000000       0.00000000      -3.02821088
2
Properties=species:S:1:pos:R:3:forces:R:3 energy=-47.98200099548156 pbc="F F F"
Sb       0.00000000       0.00000000       0.00000000       0.00000000       0.00000000       3.11597848
Sb       0.00000000       0.00000000       3.17818182       0.00000000       0.00000000      -3.11597848
2
Properties=species:S:1:pos:R:3:forces:R:3 energy=-47.798249212714886 pbc="F F F"
Sb       0.00000000       0.00000000       0.00000000       0.00000000       0.00000000       3.12060213
Sb       0.00000000       0.00000000       3.23696970       0.00000000       0.00000000      -3.12060213
2
Properties=species:S:1:pos:R:3:forces:R:3 energy=-47.61687586928068 pbc="F F F"
Sb       0.00000000       0.00000000       0.00000000       0.00000000       0.00000000       3.03451228
Sb       0.00000000       0.00000000       3.29575758       0.00000000       0.00000000      -3.03451228
2
Properties=species:S:1:pos:R:3:forces:R:3 energy=-47.44320522514855 pbc="F F F"
Sb       0.00000000       0.00000000       0.00000000       0.00000000       0.00000000       2.85992694
Sb       0.00000000       0.00000000       3.35454545       0.00000000       0.00000000      -2.85992694
2
Properties=species:S:1:pos:R:3:forces:R:3 energy=-47.28207779252589 pbc="F F F"
Sb       0.00000000       0.00000000       0.00000000       0.00000000       0.00000000       2.61117506
Sb       0.00000000       0.00000000       3.41333333       0.00000000       0.00000000      -2.61117506
2
Properties=species:S:1:pos:R:3:forces:R:3 energy=-47.13716308560116 pbc="F F F"
Sb       0.00000000       0.00000000       0.00000000       0.00000000       0.00000000       2.31314492
Sb       0.00000000       0.00000000       3.47212121       0.00000000       0.00000000      -2.31314492
2
Properties=species:S:1:pos:R:3:forces:R:3 energy=-47.0104931206287 pbc="F F F"
Sb       0.00000000       0.00000000       0.00000000       0.00000000       0.00000000       1.99554491
Sb       0.00000000       0.00000000       3.53090909       0.00000000       0.00000000      -1.99554491
2
Properties=species:S:1:pos:R:3:forces:R:3 energy=-46.90237420271838 pbc="F F F"
Sb       0.00000000       0.00000000       0.00000000       0.00000000       0.00000000       1.68607724
Sb       0.00000000       0.00000000       3.58969697       0.00000000       0.00000000      -1.68607724
2
Properties=species:S:1:pos:R:3:forces:R:3 energy=-46.811672943238634 pbc="F F F"
Sb       0.00000000       0.00000000       0.00000000       0.00000000       0.00000000       1.40565538
Sb       0.00000000       0.00000000       3.64848485       0.00000000       0.00000000      -1.40565538
2
Properties=species:S:1:pos:R:3:forces:R:3 energy=-46.7362868414705 pbc="F F F"
Sb       0.00000000       0.00000000       0.00000000       0.00000000       0.00000000       1.16656685
Sb       0.00000000       0.00000000       3.70727273       0.00000000       0.00000000      -1.16656685
2
Properties=species:S:1:pos:R:3:forces:R:3 energy=-46.673620323474616 pbc="F F F"
Sb       0.00000000       0.00000000       0.00000000       0.00000000       0.00000000       0.97298425
Sb       0.00000000       0.00000000       3.76606061       0.00000000       0.00000000      -0.97298425
2
Properties=species:S:1:pos:R:3:forces:R:3 energy=-46.62103499516189 pbc="F F F"
Sb       0.00000000       0.00000000       0.00000000       0.00000000       0.00000000       0.82283419
Sb       0.00000000       0.00000000       3.82484848       0.00000000       0.00000000      -0.82283419
2
Properties=species:S:1:pos:R:3:forces:R:3 energy=-46.57613980320801 pbc="F F F"
Sb       0.00000000       0.00000000       0.00000000       0.00000000       0.00000000       0.71002030
Sb       0.00000000       0.00000000       3.88363636       0.00000000       0.00000000      -0.71002030
2
Properties=species:S:1:pos:R:3:forces:R:3 energy=-46.53697437098123 pbc="F F F"
Sb       0.00000000       0.00000000       0.00000000       0.00000000       0.00000000       0.62660545
Sb       0.00000000       0.00000000       3.94242424       0.00000000       0.00000000      -0.62660545
2
Properties=species:S:1:pos:R:3:forces:R:3 energy=-46.502051114643635 pbc="F F F"
Sb       0.00000000       0.00000000       0.00000000       0.00000000       0.00000000       0.56445038
Sb       0.00000000       0.00000000       4.00121212       0.00000000       0.00000000      -0.56445038
2
Properties=species:S:1:pos:R:3:forces:R:3 energy=-46.4703362662834 pbc="F F F"
Sb       0.00000000       0.00000000       0.00000000       0.00000000       0.00000000       0.51623982
Sb       0.00000000       0.00000000       4.06000000       0.00000000       0.00000000      -0.51623982
2
Properties=species:S:1:pos:R:3:forces:R:3 energy=-46.44120034620677 pbc="F F F"
Sb       0.00000000       0.00000000       0.00000000       0.00000000       0.00000000       0.47591776
Sb       0.00000000       0.00000000       4.11878788       0.00000000       0.00000000      -0.47591776
2
Properties=species:S:1:pos:R:3:forces:R:3 energy=-46.414322827976584 pbc="F F F"
Sb       0.00000000       0.00000000       0.00000000       0.00000000       0.00000000       0.43870389
Sb       0.00000000       0.00000000       4.17757576       0.00000000       0.00000000      -0.43870389
2
Properties=species:S:1:pos:R:3:forces:R:3 energy=-46.38963110008822 pbc="F F F"
Sb       0.00000000       0.00000000       0.00000000       0.00000000       0.00000000       0.40094551
Sb       0.00000000       0.00000000       4.23636364       0.00000000       0.00000000      -0.40094551
2
Properties=species:S:1:pos:R:3:forces:R:3 energy=-46.36724331837053 pbc="F F F"
Sb       0.00000000       0.00000000       0.00000000       0.00000000       0.00000000       0.36001742
Sb       0.00000000       0.00000000       4.29515152       0.00000000       0.00000000      -0.36001742
2
Properties=species:S:1:pos:R:3:forces:R:3 energy=-46.34739590456299 pbc="F F F"
Sb       0.00000000       0.00000000       0.00000000       0.00000000       0.00000000       0.31435740
Sb       0.00000000       0.00000000       4.35393939       0.00000000       0.00000000      -0.31435740
2
Properties=species:S:1:pos:R:3:forces:R:3 energy=-46.33038251195145 pbc="F F F"
Sb       0.00000000       0.00000000       0.00000000       0.00000000       0.00000000       0.26358423
Sb       0.00000000       0.00000000       4.41272727       0.00000000       0.00000000      -0.26358423
2
Properties=species:S:1:pos:R:3:forces:R:3 energy=-46.31648541150252 pbc="F F F"
Sb       0.00000000       0.00000000       0.00000000       0.00000000       0.00000000       0.20863689
Sb       0.00000000       0.00000000       4.47151515       0.00000000       0.00000000      -0.20863689
2
Properties=species:S:1:pos:R:3:forces:R:3 energy=-46.30589150595918 pbc="F F F"
Sb       0.00000000       0.00000000       0.00000000       0.00000000       0.00000000       0.15171745
Sb       0.00000000       0.00000000       4.53030303       0.00000000       0.00000000      -0.15171745
2
Properties=species:S:1:pos:R:3:forces:R:3 energy=-46.29862373814996 pbc="F F F"
Sb       0.00000000       0.00000000       0.00000000       0.00000000       0.00000000       0.09597176
Sb       0.00000000       0.00000000       4.58909091       0.00000000       0.00000000      -0.09597176
2
Properties=species:S:1:pos:R:3:forces:R:3 energy=-46.29451434930224 pbc="F F F"
Sb       0.00000000       0.00000000       0.00000000       0.00000000       0.00000000       0.04490516
Sb       0.00000000       0.00000000       4.64787879       0.00000000       0.00000000      -0.04490516
2
Properties=species:S:1:pos:R:3:forces:R:3 energy=-46.29318964638771 pbc="F F F"
Sb       0.00000000       0.00000000       0.00000000       0.00000000       0.00000000       0.00168571
Sb       0.00000000       0.00000000       4.70666667       0.00000000       0.00000000      -0.00168571
2
Properties=species:S:1:pos:R:3:forces:R:3 energy=-46.29411958764316 pbc="F F F"
Sb       0.00000000       0.00000000       0.00000000       0.00000000       0.00000000      -0.03148009
Sb       0.00000000       0.00000000       4.76545455       0.00000000       0.00000000       0.03148009
2
Properties=species:S:1:pos:R:3:forces:R:3 energy=-46.296678812183025 pbc="F F F"
Sb       0.00000000       0.00000000       0.00000000       0.00000000       0.00000000      -0.05371036
Sb       0.00000000       0.00000000       4.82424242       0.00000000       0.00000000       0.05371036
2
Properties=species:S:1:pos:R:3:forces:R:3 energy=-46.30022676368911 pbc="F F F"
Sb       0.00000000       0.00000000       0.00000000       0.00000000       0.00000000      -0.06542066
Sb       0.00000000       0.00000000       4.88303030       0.00000000       0.00000000       0.06542066
2
Properties=species:S:1:pos:R:3:forces:R:3 energy=-46.304191613750454 pbc="F F F"
Sb       0.00000000       0.00000000       0.00000000       0.00000000       0.00000000      -0.06800491
Sb       0.00000000       0.00000000       4.94181818       0.00000000       0.00000000       0.06800491
2
Properties=species:S:1:pos:R:3:forces:R:3 energy=-46.30808168061254 pbc="F F F"
Sb       0.00000000       0.00000000       0.00000000       0.00000000       0.00000000      -0.06334393
Sb       0.00000000       0.00000000       5.00060606       0.00000000       0.00000000       0.06334393
2
Properties=species:S:1:pos:R:3:forces:R:3 energy=-46.31153504637628 pbc="F F F"
Sb       0.00000000       0.00000000       0.00000000       0.00000000       0.00000000      -0.05339801
Sb       0.00000000       0.00000000       5.05939394       0.00000000       0.00000000       0.05339801
2
Properties=species:S:1:pos:R:3:forces:R:3 energy=-46.314292835902165 pbc="F F F"
Sb       0.00000000       0.00000000       0.00000000       0.00000000       0.00000000      -0.04000472
Sb       0.00000000       0.00000000       5.11818182       0.00000000       0.00000000       0.04000472
2
Properties=species:S:1:pos:R:3:forces:R:3 energy=-46.31620303467539 pbc="F F F"
Sb       0.00000000       0.00000000       0.00000000       0.00000000       0.00000000      -0.02491460
Sb       0.00000000       0.00000000       5.17696970       0.00000000       0.00000000       0.02491460
2
Properties=species:S:1:pos:R:3:forces:R:3 energy=-46.31722428608006 pbc="F F F"
Sb       0.00000000       0.00000000       0.00000000       0.00000000       0.00000000      -0.00992557
Sb       0.00000000       0.00000000       5.23575758       0.00000000       0.00000000       0.00992557
2
Properties=species:S:1:pos:R:3:forces:R:3 energy=-46.31741064369753 pbc="F F F"
Sb       0.00000000       0.00000000       0.00000000       0.00000000       0.00000000       0.00306930
Sb       0.00000000       0.00000000       5.29454545       0.00000000       0.00000000      -0.00306930
2
Properties=species:S:1:pos:R:3:forces:R:3 energy=-46.316934430979565 pbc="F F F"
Sb       0.00000000       0.00000000       0.00000000       0.00000000       0.00000000       0.01243129
Sb       0.00000000       0.00000000       5.35333333       0.00000000       0.00000000      -0.01243129
2
Properties=species:S:1:pos:R:3:forces:R:3 energy=-46.316029044548074 pbc="F F F"
Sb       0.00000000       0.00000000       0.00000000       0.00000000       0.00000000       0.01776779
Sb       0.00000000       0.00000000       5.41212121       0.00000000       0.00000000      -0.01776779
2
Properties=species:S:1:pos:R:3:forces:R:3 energy=-46.31488971900515 pbc="F F F"
Sb       0.00000000       0.00000000       0.00000000       0.00000000       0.00000000       0.02095055
Sb       0.00000000       0.00000000       5.47090909       0.00000000       0.00000000      -0.02095055
2
Properties=species:S:1:pos:R:3:forces:R:3 energy=-46.313551489090734 pbc="F F F"
Sb       0.00000000       0.00000000       0.00000000       0.00000000       0.00000000       0.02473347
Sb       0.00000000       0.00000000       5.52969697       0.00000000       0.00000000      -0.02473347
2
Properties=species:S:1:pos:R:3:forces:R:3 energy=-46.31195782017934 pbc="F F F"
Sb       0.00000000       0.00000000       0.00000000       0.00000000       0.00000000       0.02955638
Sb       0.00000000       0.00000000       5.58848485       0.00000000       0.00000000      -0.02955638
2
Properties=species:S:1:pos:R:3:forces:R:3 energy=-46.3100979603483 pbc="F F F"
Sb       0.00000000       0.00000000       0.00000000       0.00000000       0.00000000       0.03337276
Sb       0.00000000       0.00000000       5.64727273       0.00000000       0.00000000      -0.03337276
2
Properties=species:S:1:pos:R:3:forces:R:3 energy=-46.30808318601384 pbc="F F F"
Sb       0.00000000       0.00000000       0.00000000       0.00000000       0.00000000       0.03485075
Sb       0.00000000       0.00000000       5.70606061       0.00000000       0.00000000      -0.03485075
2
Properties=species:S:1:pos:R:3:forces:R:3 energy=-46.30602855740313 pbc="F F F"
Sb       0.00000000       0.00000000       0.00000000       0.00000000       0.00000000       0.03464270
Sb       0.00000000       0.00000000       5.76484848       0.00000000       0.00000000      -0.03464270
2
Properties=species:S:1:pos:R:3:forces:R:3 energy=-46.3040834559314 pbc="F F F"
Sb       0.00000000       0.00000000       0.00000000       0.00000000       0.00000000       0.03055009
Sb       0.00000000       0.00000000       5.82363636       0.00000000       0.00000000      -0.03055009
2
Properties=species:S:1:pos:R:3:forces:R:3 energy=-46.30257268008739 pbc="F F F"
Sb       0.00000000       0.00000000       0.00000000       0.00000000       0.00000000       0.02013125
Sb       0.00000000       0.00000000       5.88242424       0.00000000       0.00000000      -0.02013125
2
Properties=species:S:1:pos:R:3:forces:R:3 energy=-46.30173706779807 pbc="F F F"
Sb       0.00000000       0.00000000       0.00000000       0.00000000       0.00000000       0.00870655
Sb       0.00000000       0.00000000       5.94121212       0.00000000       0.00000000      -0.00870655
2
Properties=species:S:1:pos:R:3:forces:R:3 energy=-46.301413054730794 pbc="F F F"
Sb       0.00000000       0.00000000       0.00000000       0.00000000       0.00000000       0.00391572
Sb       0.00000000       0.00000000       6.00000000       0.00000000       0.00000000      -0.00391572
