2
Properties=species:S:1:pos:R:3:forces:R:3 energy=-155023.84092034606 pbc="F F F"
Sn       0.00000000       0.00000000       0.00000000       0.00000000       0.00000000  -83373.56250000
Sn       0.00000000       0.00000000       0.18000000       0.00000000       0.00000000   83373.56250000
2
Properties=species:S:1:pos:R:3:forces:R:3 energy=-153915.77842034606 pbc="F F F"
Sn       0.00000000       0.00000000       0.00000000       0.00000000       0.00000000  112087.67968750
Sn       0.00000000       0.00000000       0.23878788       0.00000000       0.00000000 -112087.67968750
2
Properties=species:S:1:pos:R:3:forces:R:3 energy=-141775.46592034606 pbc="F F F"
Sn       0.00000000       0.00000000       0.00000000       0.00000000       0.00000000  305276.81250000
Sn       0.00000000       0.00000000       0.29757576       0.00000000       0.00000000 -305276.81250000
2
Properties=species:S:1:pos:R:3:forces:R:3 energy=-117747.73935784605 pbc="F F F"
Sn       0.00000000       0.00000000       0.00000000       0.00000000       0.00000000  509355.00000000
Sn       0.00000000       0.00000000       0.35636364       0.00000000       0.00000000 -509355.00000000
2
Properties=species:S:1:pos:R:3:forces:R:3 energy=-83280.05967034526 pbc="F F F"
Sn       0.00000000       0.00000000       0.00000000       0.00000000       0.00000000  641191.06250000
Sn       0.00000000       0.00000000       0.41515152       0.00000000       0.00000000 -641191.06250000
2
Properties=species:S:1:pos:R:3:forces:R:3 energy=-45971.74326409447 pbc="F F F"
Sn       0.00000000       0.00000000       0.00000000       0.00000000       0.00000000  592517.00000000
Sn       0.00000000       0.00000000       0.47393939       0.00000000       0.00000000 -592517.00000000
2
Properties=species:S:1:pos:R:3:forces:R:3 energy=-17574.157326592882 pbc="F F F"
Sn       0.00000000       0.00000000       0.00000000       0.00000000       0.00000000  315216.40625000
Sn       0.00000000       0.00000000       0.53272727       0.00000000       0.00000000 -315216.40625000
2
Properties=species:S:1:pos:R:3:forces:R:3 energy=-4732.951760183465 pbc="F F F"
Sn       0.00000000       0.00000000       0.00000000       0.00000000       0.00000000  128758.78125000
Sn       0.00000000       0.00000000       0.59151515       0.00000000       0.00000000 -128758.78125000
2
Properties=species:S:1:pos:R:3:forces:R:3 energy=-997.4856346904322 pbc="F F F"
Sn       0.00000000       0.00000000       0.00000000       0.00000000       0.00000000   30891.53906250
Sn       0.00000000       0.00000000       0.65030303       0.00000000       0.00000000  -30891.53906250
2
Properties=species:S:1:pos:R:3:forces:R:3 energy=-190.9665001602363 pbc="F F F"
Sn       0.00000000       0.00000000       0.00000000       0.00000000       0.00000000    3785.61547852
Sn       0.00000000       0.00000000       0.70909091       0.00000000       0.00000000   -3785.61547852
2
Properties=species:S:1:pos:R:3:forces:R:3 energy=85.31916727186858 pbc="F F F"
Sn       0.00000000       0.00000000       0.00000000       0.00000000       0.00000000  -15860.79003906
Sn       0.00000000       0.00000000       0.76787879       0.00000000       0.00000000   15860.79003906
2
Properties=species:S:1:pos:R:3:forces:R:3 energy=-116.27150806392035 pbc="F F F"
Sn       0.00000000       0.00000000       0.00000000       0.00000000       0.00000000     246.35484314
Sn       0.00000000       0.00000000       0.82666667       0.00000000       0.00000000    -246.35484314
2
Properties=species:S:1:pos:R:3:forces:R:3 energy=-98.72058945868424 pbc="F F F"
Sn       0.00000000       0.00000000       0.00000000       0.00000000       0.00000000     207.19384766
Sn       0.00000000       0.00000000       0.88545455       0.00000000       0.00000000    -207.19384766
2
Properties=species:S:1:pos:R:3:forces:R:3 energy=-81.49459149586569 pbc="F F F"
Sn       0.00000000       0.00000000       0.00000000       0.00000000       0.00000000     332.36959839
Sn       0.00000000       0.00000000       0.94424242       0.00000000       0.00000000    -332.36959839
2
Properties=species:S:1:pos:R:3:forces:R:3 energy=-62.78674003606039 pbc="F F F"
Sn       0.00000000       0.00000000       0.00000000       0.00000000       0.00000000     298.54974365
Sn       0.00000000       0.00000000       1.00303030       0.00000000       0.00000000    -298.54974365
2
Properties=species:S:1:pos:R:3:forces:R:3 energy=-44.18545212536338 pbc="F F F"
Sn       0.00000000       0.00000000       0.00000000       0.00000000       0.00000000     315.20101929
Sn       0.00000000       0.00000000       1.06181818       0.00000000       0.00000000    -315.20101929
2
Properties=species:S:1:pos:R:3:forces:R:3 energy=-28.63585715593006 pbc="F F F"
Sn       0.00000000       0.00000000       0.00000000       0.00000000       0.00000000     208.78303528
Sn       0.00000000       0.00000000       1.12060606       0.00000000       0.00000000    -208.78303528
2
Properties=species:S:1:pos:R:3:forces:R:3 energy=-19.433889799340758 pbc="F F F"
Sn       0.00000000       0.00000000       0.00000000       0.00000000       0.00000000     109.80865479
Sn       0.00000000       0.00000000       1.17939394       0.00000000       0.00000000    -109.80865479
2
Properties=species:S:1:pos:R:3:forces:R:3 energy=-14.392675658819437 pbc="F F F"
Sn       0.00000000       0.00000000       0.00000000       0.00000000       0.00000000      66.18141937
Sn       0.00000000       0.00000000       1.23818182       0.00000000       0.00000000     -66.18141937
2
Properties=species:S:1:pos:R:3:forces:R:3 energy=-12.913866108100878 pbc="F F F"
Sn       0.00000000       0.00000000       0.00000000       0.00000000       0.00000000      -6.93368721
Sn       0.00000000       0.00000000       1.29696970       0.00000000       0.00000000       6.93368721
2
Properties=species:S:1:pos:R:3:forces:R:3 energy=-13.79264813810135 pbc="F F F"
Sn       0.00000000       0.00000000       0.00000000       0.00000000       0.00000000     -20.86155128
Sn       0.00000000       0.00000000       1.35575758       0.00000000       0.00000000      20.86155128
2
Properties=species:S:1:pos:R:3:forces:R:3 energy=-15.455667014288275 pbc="F F F"
Sn       0.00000000       0.00000000       0.00000000       0.00000000       0.00000000     -37.90298843
Sn       0.00000000       0.00000000       1.41454545       0.00000000       0.00000000      37.90298843
2
Properties=species:S:1:pos:R:3:forces:R:3 energy=-18.485350707257723 pbc="F F F"
Sn       0.00000000       0.00000000       0.00000000       0.00000000       0.00000000     -63.15545654
Sn       0.00000000       0.00000000       1.47333333       0.00000000       0.00000000      63.15545654
2
Properties=species:S:1:pos:R:3:forces:R:3 energy=-22.23089086602804 pbc="F F F"
Sn       0.00000000       0.00000000       0.00000000       0.00000000       0.00000000     -59.22912216
Sn       0.00000000       0.00000000       1.53212121       0.00000000       0.00000000      59.22912216
2
Properties=species:S:1:pos:R:3:forces:R:3 energy=-25.246229203820555 pbc="F F F"
Sn       0.00000000       0.00000000       0.00000000       0.00000000       0.00000000     -44.41437149
Sn       0.00000000       0.00000000       1.59090909       0.00000000       0.00000000      44.41437149
2
Properties=species:S:1:pos:R:3:forces:R:3 energy=-27.672425578700523 pbc="F F F"
Sn       0.00000000       0.00000000       0.00000000       0.00000000       0.00000000     -39.75819016
Sn       0.00000000       0.00000000       1.64969697       0.00000000       0.00000000      39.75819016
2
Properties=species:S:1:pos:R:3:forces:R:3 energy=-30.023773643899222 pbc="F F F"
Sn       0.00000000       0.00000000       0.00000000       0.00000000       0.00000000     -40.45914841
Sn       0.00000000       0.00000000       1.70848485       0.00000000       0.00000000      40.45914841
2
Properties=species:S:1:pos:R:3:forces:R:3 energy=-32.41440910913398 pbc="F F F"
Sn       0.00000000       0.00000000       0.00000000       0.00000000       0.00000000     -40.56197357
Sn       0.00000000       0.00000000       1.76727273       0.00000000       0.00000000      40.56197357
2
Properties=species:S:1:pos:R:3:forces:R:3 energy=-34.75266860826539 pbc="F F F"
Sn       0.00000000       0.00000000       0.00000000       0.00000000       0.00000000     -38.65904617
Sn       0.00000000       0.00000000       1.82606061       0.00000000       0.00000000      38.65904617
2
Properties=species:S:1:pos:R:3:forces:R:3 energy=-36.92633135020682 pbc="F F F"
Sn       0.00000000       0.00000000       0.00000000       0.00000000       0.00000000     -35.05707169
Sn       0.00000000       0.00000000       1.88484848       0.00000000       0.00000000      35.05707169
2
Properties=species:S:1:pos:R:3:forces:R:3 energy=-38.8537627707083 pbc="F F F"
Sn       0.00000000       0.00000000       0.00000000       0.00000000       0.00000000     -30.39690208
Sn       0.00000000       0.00000000       1.94363636       0.00000000       0.00000000      30.39690208
2
Properties=species:S:1:pos:R:3:forces:R:3 energy=-40.493004986034805 pbc="F F F"
Sn       0.00000000       0.00000000       0.00000000       0.00000000       0.00000000     -25.36157990
Sn       0.00000000       0.00000000       2.00242424       0.00000000       0.00000000      25.36157990
2
Properties=species:S:1:pos:R:3:forces:R:3 energy=-41.83949558261867 pbc="F F F"
Sn       0.00000000       0.00000000       0.00000000       0.00000000       0.00000000     -20.51318741
Sn       0.00000000       0.00000000       2.06121212       0.00000000       0.00000000      20.51318741
2
Properties=species:S:1:pos:R:3:forces:R:3 energy=-42.91518429843197 pbc="F F F"
Sn       0.00000000       0.00000000       0.00000000       0.00000000       0.00000000     -16.18476868
Sn       0.00000000       0.00000000       2.12000000       0.00000000       0.00000000      16.18476868
2
Properties=species:S:1:pos:R:3:forces:R:3 energy=-43.75510909301343 pbc="F F F"
Sn       0.00000000       0.00000000       0.00000000       0.00000000       0.00000000     -12.49945831
Sn       0.00000000       0.00000000       2.17878788       0.00000000       0.00000000      12.49945831
2
Properties=species:S:1:pos:R:3:forces:R:3 energy=-44.39750463587474 pbc="F F F"
Sn       0.00000000       0.00000000       0.00000000       0.00000000       0.00000000      -9.45994663
Sn       0.00000000       0.00000000       2.23757576       0.00000000       0.00000000       9.45994663
2
Properties=species:S:1:pos:R:3:forces:R:3 energy=-44.87911025024658 pbc="F F F"
Sn       0.00000000       0.00000000       0.00000000       0.00000000       0.00000000      -7.01915216
Sn       0.00000000       0.00000000       2.29636364       0.00000000       0.00000000       7.01915216
2
Properties=species:S:1:pos:R:3:forces:R:3 energy=-45.23314810610489 pbc="F F F"
Sn       0.00000000       0.00000000       0.00000000       0.00000000       0.00000000      -5.10637236
Sn       0.00000000       0.00000000       2.35515152       0.00000000       0.00000000       5.10637236
2
Properties=species:S:1:pos:R:3:forces:R:3 energy=-45.488072031937875 pbc="F F F"
Sn       0.00000000       0.00000000       0.00000000       0.00000000       0.00000000      -3.63061619
Sn       0.00000000       0.00000000       2.41393939       0.00000000       0.00000000       3.63061619
2
Properties=species:S:1:pos:R:3:forces:R:3 energy=-45.66657947726796 pbc="F F F"
Sn       0.00000000       0.00000000       0.00000000       0.00000000       0.00000000      -2.48985338
Sn       0.00000000       0.00000000       2.47272727       0.00000000       0.00000000       2.48985338
2
Properties=species:S:1:pos:R:3:forces:R:3 energy=-45.78553527731118 pbc="F F F"
Sn       0.00000000       0.00000000       0.00000000       0.00000000       0.00000000      -1.59082592
Sn       0.00000000       0.00000000       2.53151515       0.00000000       0.00000000       1.59082592
2
Properties=species:S:1:pos:R:3:forces:R:3 energy=-45.85700921816327 pbc="F F F"
Sn       0.00000000       0.00000000       0.00000000       0.00000000       0.00000000      -0.86548543
Sn       0.00000000       0.00000000       2.59030303       0.00000000       0.00000000       0.86548543
2
Properties=species:S:1:pos:R:3:forces:R:3 energy=-45.88985155270375 pbc="F F F"
Sn       0.00000000       0.00000000       0.00000000       0.00000000       0.00000000      -0.27100021
Sn       0.00000000       0.00000000       2.64909091       0.00000000       0.00000000       0.27100021
2
Properties=species:S:1:pos:R:3:forces:R:3 energy=-45.89084124902355 pbc="F F F"
Sn       0.00000000       0.00000000       0.00000000       0.00000000       0.00000000       0.22279365
Sn       0.00000000       0.00000000       2.70787879       0.00000000       0.00000000      -0.22279365
2
Properties=species:S:1:pos:R:3:forces:R:3 energy=-45.86511325235784 pbc="F F F"
Sn       0.00000000       0.00000000       0.00000000       0.00000000       0.00000000       0.64199793
Sn       0.00000000       0.00000000       2.76666667       0.00000000       0.00000000      -0.64199793
2
Properties=species:S:1:pos:R:3:forces:R:3 energy=-45.81647520078569 pbc="F F F"
Sn       0.00000000       0.00000000       0.00000000       0.00000000       0.00000000       1.00354612
Sn       0.00000000       0.00000000       2.82545455       0.00000000       0.00000000      -1.00354612
2
Properties=species:S:1:pos:R:3:forces:R:3 energy=-45.74827347396708 pbc="F F F"
Sn       0.00000000       0.00000000       0.00000000       0.00000000       0.00000000       1.30557406
Sn       0.00000000       0.00000000       2.88424242       0.00000000       0.00000000      -1.30557406
2
Properties=species:S:1:pos:R:3:forces:R:3 energy=-45.664465435105015 pbc="F F F"
Sn       0.00000000       0.00000000       0.00000000       0.00000000       0.00000000       1.53156090
Sn       0.00000000       0.00000000       2.94303030       0.00000000       0.00000000      -1.53156090
2
Properties=species:S:1:pos:R:3:forces:R:3 energy=-45.569883174083124 pbc="F F F"
Sn       0.00000000       0.00000000       0.00000000       0.00000000       0.00000000       1.67285919
Sn       0.00000000       0.00000000       3.00181818       0.00000000       0.00000000      -1.67285919
2
Properties=species:S:1:pos:R:3:forces:R:3 energy=-45.46904431423911 pbc="F F F"
Sn       0.00000000       0.00000000       0.00000000       0.00000000       0.00000000       1.75068474
Sn       0.00000000       0.00000000       3.06060606       0.00000000       0.00000000      -1.75068474
2
Properties=species:S:1:pos:R:3:forces:R:3 energy=-45.364364257752015 pbc="F F F"
Sn       0.00000000       0.00000000       0.00000000       0.00000000       0.00000000       1.81207728
Sn       0.00000000       0.00000000       3.11939394       0.00000000       0.00000000      -1.81207728
2
Properties=species:S:1:pos:R:3:forces:R:3 energy=-45.25547049602472 pbc="F F F"
Sn       0.00000000       0.00000000       0.00000000       0.00000000       0.00000000       1.89852118
Sn       0.00000000       0.00000000       3.17818182       0.00000000       0.00000000      -1.89852118
2
Properties=species:S:1:pos:R:3:forces:R:3 energy=-45.140489978464 pbc="F F F"
Sn       0.00000000       0.00000000       0.00000000       0.00000000       0.00000000       2.01704264
Sn       0.00000000       0.00000000       3.23696970       0.00000000       0.00000000      -2.01704264
2
Properties=species:S:1:pos:R:3:forces:R:3 energy=-45.018195404773486 pbc="F F F"
Sn       0.00000000       0.00000000       0.00000000       0.00000000       0.00000000       2.14131904
Sn       0.00000000       0.00000000       3.29575758       0.00000000       0.00000000      -2.14131904
2
Properties=species:S:1:pos:R:3:forces:R:3 energy=-44.889302973771564 pbc="F F F"
Sn       0.00000000       0.00000000       0.00000000       0.00000000       0.00000000       2.23646951
Sn       0.00000000       0.00000000       3.35454545       0.00000000       0.00000000      -2.23646951
2
Properties=species:S:1:pos:R:3:forces:R:3 energy=-44.7562399876487 pbc="F F F"
Sn       0.00000000       0.00000000       0.00000000       0.00000000       0.00000000       2.28131461
Sn       0.00000000       0.00000000       3.41333333       0.00000000       0.00000000      -2.28131461
2
Properties=species:S:1:pos:R:3:forces:R:3 energy=-44.62211253409701 pbc="F F F"
Sn       0.00000000       0.00000000       0.00000000       0.00000000       0.00000000       2.27377439
Sn       0.00000000       0.00000000       3.47212121       0.00000000       0.00000000      -2.27377439
2
Properties=species:S:1:pos:R:3:forces:R:3 energy=-44.48973368026607 pbc="F F F"
Sn       0.00000000       0.00000000       0.00000000       0.00000000       0.00000000       2.22389436
Sn       0.00000000       0.00000000       3.53090909       0.00000000       0.00000000      -2.22389436
2
Properties=species:S:1:pos:R:3:forces:R:3 energy=-44.36120608462656 pbc="F F F"
Sn       0.00000000       0.00000000       0.00000000       0.00000000       0.00000000       2.14480257
Sn       0.00000000       0.00000000       3.58969697       0.00000000       0.00000000      -2.14480257
2
Properties=species:S:1:pos:R:3:forces:R:3 energy=-44.23791032512954 pbc="F F F"
Sn       0.00000000       0.00000000       0.00000000       0.00000000       0.00000000       2.04753590
Sn       0.00000000       0.00000000       3.64848485       0.00000000       0.00000000      -2.04753590
2
Properties=species:S:1:pos:R:3:forces:R:3 energy=-44.12066311887468 pbc="F F F"
Sn       0.00000000       0.00000000       0.00000000       0.00000000       0.00000000       1.94003069
Sn       0.00000000       0.00000000       3.70727273       0.00000000       0.00000000      -1.94003069
2
Properties=species:S:1:pos:R:3:forces:R:3 energy=-44.00989316470729 pbc="F F F"
Sn       0.00000000       0.00000000       0.00000000       0.00000000       0.00000000       1.82811701
Sn       0.00000000       0.00000000       3.76606061       0.00000000       0.00000000      -1.82811701
2
Properties=species:S:1:pos:R:3:forces:R:3 energy=-43.905717161563146 pbc="F F F"
Sn       0.00000000       0.00000000       0.00000000       0.00000000       0.00000000       1.71645319
Sn       0.00000000       0.00000000       3.82484848       0.00000000       0.00000000      -1.71645319
2
Properties=species:S:1:pos:R:3:forces:R:3 energy=-43.80800162449285 pbc="F F F"
Sn       0.00000000       0.00000000       0.00000000       0.00000000       0.00000000       1.60867870
Sn       0.00000000       0.00000000       3.88363636       0.00000000       0.00000000      -1.60867870
2
Properties=species:S:1:pos:R:3:forces:R:3 energy=-43.716451357633716 pbc="F F F"
Sn       0.00000000       0.00000000       0.00000000       0.00000000       0.00000000       1.50718880
Sn       0.00000000       0.00000000       3.94242424       0.00000000       0.00000000      -1.50718880
2
Properties=species:S:1:pos:R:3:forces:R:3 energy=-43.630651973416384 pbc="F F F"
Sn       0.00000000       0.00000000       0.00000000       0.00000000       0.00000000       1.41290712
Sn       0.00000000       0.00000000       4.00121212       0.00000000       0.00000000      -1.41290712
2
Properties=species:S:1:pos:R:3:forces:R:3 energy=-43.550192322425126 pbc="F F F"
Sn       0.00000000       0.00000000       0.00000000       0.00000000       0.00000000       1.32539010
Sn       0.00000000       0.00000000       4.06000000       0.00000000       0.00000000      -1.32539010
2
Properties=species:S:1:pos:R:3:forces:R:3 energy=-43.474714285619 pbc="F F F"
Sn       0.00000000       0.00000000       0.00000000       0.00000000       0.00000000       1.24328458
Sn       0.00000000       0.00000000       4.11878788       0.00000000       0.00000000      -1.24328458
2
Properties=species:S:1:pos:R:3:forces:R:3 energy=-43.40394345980457 pbc="F F F"
Sn       0.00000000       0.00000000       0.00000000       0.00000000       0.00000000       1.16483784
Sn       0.00000000       0.00000000       4.17757576       0.00000000       0.00000000      -1.16483784
2
Properties=species:S:1:pos:R:3:forces:R:3 energy=-43.33771590486626 pbc="F F F"
Sn       0.00000000       0.00000000       0.00000000       0.00000000       0.00000000       1.08845866
Sn       0.00000000       0.00000000       4.23636364       0.00000000       0.00000000      -1.08845866
2
Properties=species:S:1:pos:R:3:forces:R:3 energy=-43.275943911277345 pbc="F F F"
Sn       0.00000000       0.00000000       0.00000000       0.00000000       0.00000000       1.01305068
Sn       0.00000000       0.00000000       4.29515152       0.00000000       0.00000000      -1.01305068
2
Properties=species:S:1:pos:R:3:forces:R:3 energy=-43.21859692502976 pbc="F F F"
Sn       0.00000000       0.00000000       0.00000000       0.00000000       0.00000000       0.93818617
Sn       0.00000000       0.00000000       4.35393939       0.00000000       0.00000000      -0.93818617
2
Properties=species:S:1:pos:R:3:forces:R:3 energy=-43.165625302789984 pbc="F F F"
Sn       0.00000000       0.00000000       0.00000000       0.00000000       0.00000000       0.86402595
Sn       0.00000000       0.00000000       4.41272727       0.00000000       0.00000000      -0.86402595
2
Properties=species:S:1:pos:R:3:forces:R:3 energy=-43.11698320245851 pbc="F F F"
Sn       0.00000000       0.00000000       0.00000000       0.00000000       0.00000000       0.79114312
Sn       0.00000000       0.00000000       4.47151515       0.00000000       0.00000000      -0.79114312
2
Properties=species:S:1:pos:R:3:forces:R:3 energy=-43.072567572564246 pbc="F F F"
Sn       0.00000000       0.00000000       0.00000000       0.00000000       0.00000000       0.72023278
Sn       0.00000000       0.00000000       4.53030303       0.00000000       0.00000000      -0.72023278
2
Properties=species:S:1:pos:R:3:forces:R:3 energy=-43.0322486698426 pbc="F F F"
Sn       0.00000000       0.00000000       0.00000000       0.00000000       0.00000000       0.65184289
Sn       0.00000000       0.00000000       4.58909091       0.00000000       0.00000000      -0.65184289
2
Properties=species:S:1:pos:R:3:forces:R:3 energy=-42.99587389452362 pbc="F F F"
Sn       0.00000000       0.00000000       0.00000000       0.00000000       0.00000000       0.58621961
Sn       0.00000000       0.00000000       4.64787879       0.00000000       0.00000000      -0.58621961
2
Properties=species:S:1:pos:R:3:forces:R:3 energy=-42.96327159790164 pbc="F F F"
Sn       0.00000000       0.00000000       0.00000000       0.00000000       0.00000000       0.52327222
Sn       0.00000000       0.00000000       4.70666667       0.00000000       0.00000000      -0.52327222
2
Properties=species:S:1:pos:R:3:forces:R:3 energy=-42.93430068369515 pbc="F F F"
Sn       0.00000000       0.00000000       0.00000000       0.00000000       0.00000000       0.46278009
Sn       0.00000000       0.00000000       4.76545455       0.00000000       0.00000000      -0.46278009
2
Properties=species:S:1:pos:R:3:forces:R:3 energy=-42.90881247691329 pbc="F F F"
Sn       0.00000000       0.00000000       0.00000000       0.00000000       0.00000000       0.40466535
Sn       0.00000000       0.00000000       4.82424242       0.00000000       0.00000000      -0.40466535
2
Properties=species:S:1:pos:R:3:forces:R:3 energy=-42.8866659715575 pbc="F F F"
Sn       0.00000000       0.00000000       0.00000000       0.00000000       0.00000000       0.34938258
Sn       0.00000000       0.00000000       4.88303030       0.00000000       0.00000000      -0.34938258
2
Properties=species:S:1:pos:R:3:forces:R:3 energy=-42.86765917399029 pbc="F F F"
Sn       0.00000000       0.00000000       0.00000000       0.00000000       0.00000000       0.29807639
Sn       0.00000000       0.00000000       4.94181818       0.00000000       0.00000000      -0.29807639
2
Properties=species:S:1:pos:R:3:forces:R:3 energy=-42.85150621712753 pbc="F F F"
Sn       0.00000000       0.00000000       0.00000000       0.00000000       0.00000000       0.25261799
Sn       0.00000000       0.00000000       5.00060606       0.00000000       0.00000000      -0.25261799
2
Properties=species:S:1:pos:R:3:forces:R:3 energy=-42.83779921584166 pbc="F F F"
Sn       0.00000000       0.00000000       0.00000000       0.00000000       0.00000000       0.21511224
Sn       0.00000000       0.00000000       5.05939394       0.00000000       0.00000000      -0.21511224
2
Properties=species:S:1:pos:R:3:forces:R:3 energy=-42.826023525750756 pbc="F F F"
Sn       0.00000000       0.00000000       0.00000000       0.00000000       0.00000000       0.18717371
Sn       0.00000000       0.00000000       5.11818182       0.00000000       0.00000000      -0.18717371
2
Properties=species:S:1:pos:R:3:forces:R:3 energy=-42.815599703304514 pbc="F F F"
Sn       0.00000000       0.00000000       0.00000000       0.00000000       0.00000000       0.16898566
Sn       0.00000000       0.00000000       5.17696970       0.00000000       0.00000000      -0.16898566
2
Properties=species:S:1:pos:R:3:forces:R:3 energy=-42.806001753479954 pbc="F F F"
Sn       0.00000000       0.00000000       0.00000000       0.00000000       0.00000000       0.15859078
Sn       0.00000000       0.00000000       5.23575758       0.00000000       0.00000000      -0.15859078
2
Properties=species:S:1:pos:R:3:forces:R:3 energy=-42.79688302825443 pbc="F F F"
Sn       0.00000000       0.00000000       0.00000000       0.00000000       0.00000000       0.15187864
Sn       0.00000000       0.00000000       5.29454545       0.00000000       0.00000000      -0.15187864
2
Properties=species:S:1:pos:R:3:forces:R:3 energy=-42.78816776033305 pbc="F F F"
Sn       0.00000000       0.00000000       0.00000000       0.00000000       0.00000000       0.14399284
Sn       0.00000000       0.00000000       5.35333333       0.00000000       0.00000000      -0.14399284
2
Properties=species:S:1:pos:R:3:forces:R:3 energy=-42.780024365811556 pbc="F F F"
Sn       0.00000000       0.00000000       0.00000000       0.00000000       0.00000000       0.13256180
Sn       0.00000000       0.00000000       5.41212121       0.00000000       0.00000000      -0.13256180
2
Properties=species:S:1:pos:R:3:forces:R:3 energy=-42.772602213433856 pbc="F F F"
Sn       0.00000000       0.00000000       0.00000000       0.00000000       0.00000000       0.12025183
Sn       0.00000000       0.00000000       5.47090909       0.00000000       0.00000000      -0.12025183
2
Properties=species:S:1:pos:R:3:forces:R:3 energy=-42.765814188431854 pbc="F F F"
Sn       0.00000000       0.00000000       0.00000000       0.00000000       0.00000000       0.11137059
Sn       0.00000000       0.00000000       5.52969697       0.00000000       0.00000000      -0.11137059
2
Properties=species:S:1:pos:R:3:forces:R:3 energy=-42.75943206154096 pbc="F F F"
Sn       0.00000000       0.00000000       0.00000000       0.00000000       0.00000000       0.10611399
Sn       0.00000000       0.00000000       5.58848485       0.00000000       0.00000000      -0.10611399
2
Properties=species:S:1:pos:R:3:forces:R:3 energy=-42.75334586069577 pbc="F F F"
Sn       0.00000000       0.00000000       0.00000000       0.00000000       0.00000000       0.10065222
Sn       0.00000000       0.00000000       5.64727273       0.00000000       0.00000000      -0.10065222
2
Properties=species:S:1:pos:R:3:forces:R:3 energy=-42.74769739731361 pbc="F F F"
Sn       0.00000000       0.00000000       0.00000000       0.00000000       0.00000000       0.09040473
Sn       0.00000000       0.00000000       5.70606061       0.00000000       0.00000000      -0.09040473
2
Properties=species:S:1:pos:R:3:forces:R:3 energy=-42.742838284825794 pbc="F F F"
Sn       0.00000000       0.00000000       0.00000000       0.00000000       0.00000000       0.07336832
Sn       0.00000000       0.00000000       5.76484848       0.00000000       0.00000000      -0.07336832
2
Properties=species:S:1:pos:R:3:forces:R:3 energy=-42.739173542425355 pbc="F F F"
Sn       0.00000000       0.00000000       0.00000000       0.00000000       0.00000000       0.05079735
Sn       0.00000000       0.00000000       5.82363636       0.00000000       0.00000000      -0.05079735
2
Properties=species:S:1:pos:R:3:forces:R:3 energy=-42.736890723050784 pbc="F F F"
Sn       0.00000000       0.00000000       0.00000000       0.00000000       0.00000000       0.02767522
Sn       0.00000000       0.00000000       5.88242424       0.00000000       0.00000000      -0.02767522
2
Properties=species:S:1:pos:R:3:forces:R:3 energy=-42.735803530597025 pbc="F F F"
Sn       0.00000000       0.00000000       0.00000000       0.00000000       0.00000000       0.01056236
Sn       0.00000000       0.00000000       5.94121212       0.00000000       0.00000000      -0.01056236
2
Properties=species:S:1:pos:R:3:forces:R:3 energy=-42.73543190400744 pbc="F F F"
Sn       0.00000000       0.00000000       0.00000000       0.00000000       0.00000000       0.00422300
Sn       0.00000000       0.00000000       6.00000000       0.00000000       0.00000000      -0.00422300
