2
Properties=species:S:1:pos:R:3:forces:R:3 energy=1419930.1056777658 pbc="F F F"
Tc       0.00000000       0.00000000       0.00000000       0.00000000       0.00000000 -479779.09375000
Tc       0.00000000       0.00000000       0.18000000       0.00000000       0.00000000  479779.09375000
2
Properties=species:S:1:pos:R:3:forces:R:3 energy=1378357.8556777658 pbc="F F F"
Tc       0.00000000       0.00000000       0.00000000       0.00000000       0.00000000 -1017682.75000000
Tc       0.00000000       0.00000000       0.23878788       0.00000000       0.00000000 1017682.75000000
2
Properties=species:S:1:pos:R:3:forces:R:3 energy=1290832.9806777658 pbc="F F F"
Tc       0.00000000       0.00000000       0.00000000       0.00000000       0.00000000 -2036000.87500000
Tc       0.00000000       0.00000000       0.29757576       0.00000000       0.00000000 2036000.87500000
2
Properties=species:S:1:pos:R:3:forces:R:3 energy=1131900.6056777658 pbc="F F F"
Tc       0.00000000       0.00000000       0.00000000       0.00000000       0.00000000 -3403370.00000000
Tc       0.00000000       0.00000000       0.35636364       0.00000000       0.00000000 3403370.00000000
2
Properties=species:S:1:pos:R:3:forces:R:3 energy=892297.2306777674 pbc="F F F"
Tc       0.00000000       0.00000000       0.00000000       0.00000000       0.00000000 -4675796.50000000
Tc       0.00000000       0.00000000       0.41515152       0.00000000       0.00000000 4675796.50000000
2
Properties=species:S:1:pos:R:3:forces:R:3 energy=598510.605677769 pbc="F F F"
Tc       0.00000000       0.00000000       0.00000000       0.00000000       0.00000000 -5118246.00000000
Tc       0.00000000       0.00000000       0.47393939       0.00000000       0.00000000 5118246.00000000
2
Properties=species:S:1:pos:R:3:forces:R:3 energy=317258.7306777722 pbc="F F F"
Tc       0.00000000       0.00000000       0.00000000       0.00000000       0.00000000 -4220998.00000000
Tc       0.00000000       0.00000000       0.53272727       0.00000000       0.00000000 4220998.00000000
2
Properties=species:S:1:pos:R:3:forces:R:3 energy=121735.98849027853 pbc="F F F"
Tc       0.00000000       0.00000000       0.00000000       0.00000000       0.00000000 -2372092.25000000
Tc       0.00000000       0.00000000       0.59151515       0.00000000       0.00000000 2372092.25000000
2
Properties=species:S:1:pos:R:3:forces:R:3 energy=32217.521693414612 pbc="F F F"
Tc       0.00000000       0.00000000       0.00000000       0.00000000       0.00000000 -819393.43750000
Tc       0.00000000       0.00000000       0.65030303       0.00000000       0.00000000  819393.43750000
2
Properties=species:S:1:pos:R:3:forces:R:3 energy=6273.569544992952 pbc="F F F"
Tc       0.00000000       0.00000000       0.00000000       0.00000000       0.00000000 -192327.57812500
Tc       0.00000000       0.00000000       0.70909091       0.00000000       0.00000000  192327.57812500
2
Properties=species:S:1:pos:R:3:forces:R:3 energy=391.7036087374139 pbc="F F F"
Tc       0.00000000       0.00000000       0.00000000       0.00000000       0.00000000  -33839.03515625
Tc       0.00000000       0.00000000       0.76787879       0.00000000       0.00000000   33839.03515625
2
Properties=species:S:1:pos:R:3:forces:R:3 energy=175.8207352386876 pbc="F F F"
Tc       0.00000000       0.00000000       0.00000000       0.00000000       0.00000000   -1797.47302246
Tc       0.00000000       0.00000000       0.82666667       0.00000000       0.00000000    1797.47302246
2
Properties=species:S:1:pos:R:3:forces:R:3 energy=75.6606095569509 pbc="F F F"
Tc       0.00000000       0.00000000       0.00000000       0.00000000       0.00000000   -1299.67919922
Tc       0.00000000       0.00000000       0.88545455       0.00000000       0.00000000    1299.67919922
2
Properties=species:S:1:pos:R:3:forces:R:3 energy=42.674598121516034 pbc="F F F"
Tc       0.00000000       0.00000000       0.00000000       0.00000000       0.00000000    -487.96771240
Tc       0.00000000       0.00000000       0.94424242       0.00000000       0.00000000     487.96771240
2
Properties=species:S:1:pos:R:3:forces:R:3 energy=19.762107374991956 pbc="F F F"
Tc       0.00000000       0.00000000       0.00000000       0.00000000       0.00000000    -293.35220337
Tc       0.00000000       0.00000000       1.00303030       0.00000000       0.00000000     293.35220337
2
Properties=species:S:1:pos:R:3:forces:R:3 energy=6.196120873155793 pbc="F F F"
Tc       0.00000000       0.00000000       0.00000000       0.00000000       0.00000000    -189.38323975
Tc       0.00000000       0.00000000       1.06181818       0.00000000       0.00000000     189.38323975
2
Properties=species:S:1:pos:R:3:forces:R:3 energy=-3.5946885855455566 pbc="F F F"
Tc       0.00000000       0.00000000       0.00000000       0.00000000       0.00000000    -144.38021851
Tc       0.00000000       0.00000000       1.12060606       0.00000000       0.00000000     144.38021851
2
Properties=species:S:1:pos:R:3:forces:R:3 energy=-10.800929965128377 pbc="F F F"
Tc       0.00000000       0.00000000       0.00000000       0.00000000       0.00000000    -104.23678589
Tc       0.00000000       0.00000000       1.17939394       0.00000000       0.00000000     104.23678589
2
Properties=species:S:1:pos:R:3:forces:R:3 energy=-16.67978251792702 pbc="F F F"
Tc       0.00000000       0.00000000       0.00000000       0.00000000       0.00000000    -101.07112885
Tc       0.00000000       0.00000000       1.23818182       0.00000000       0.00000000     101.07112885
2
Properties=species:S:1:pos:R:3:forces:R:3 energy=-22.65369152534359 pbc="F F F"
Tc       0.00000000       0.00000000       0.00000000       0.00000000       0.00000000     -99.71790314
Tc       0.00000000       0.00000000       1.29696970       0.00000000       0.00000000      99.71790314
2
Properties=species:S:1:pos:R:3:forces:R:3 energy=-28.182841065661183 pbc="F F F"
Tc       0.00000000       0.00000000       0.00000000       0.00000000       0.00000000     -86.47605133
Tc       0.00000000       0.00000000       1.35575758       0.00000000       0.00000000      86.47605133
2
Properties=species:S:1:pos:R:3:forces:R:3 energy=-32.60375417907097 pbc="F F F"
Tc       0.00000000       0.00000000       0.00000000       0.00000000       0.00000000     -62.96697617
Tc       0.00000000       0.00000000       1.41454545       0.00000000       0.00000000      62.96697617
2
Properties=species:S:1:pos:R:3:forces:R:3 energy=-35.62804926686011 pbc="F F F"
Tc       0.00000000       0.00000000       0.00000000       0.00000000       0.00000000     -41.27772522
Tc       0.00000000       0.00000000       1.47333333       0.00000000       0.00000000      41.27772522
2
Properties=species:S:1:pos:R:3:forces:R:3 energy=-37.659885846416636 pbc="F F F"
Tc       0.00000000       0.00000000       0.00000000       0.00000000       0.00000000     -29.56054497
Tc       0.00000000       0.00000000       1.53212121       0.00000000       0.00000000      29.56054497
2
Properties=species:S:1:pos:R:3:forces:R:3 energy=-39.24100812140789 pbc="F F F"
Tc       0.00000000       0.00000000       0.00000000       0.00000000       0.00000000     -24.57545471
Tc       0.00000000       0.00000000       1.59090909       0.00000000       0.00000000      24.57545471
2
Properties=species:S:1:pos:R:3:forces:R:3 energy=-40.50438115754973 pbc="F F F"
Tc       0.00000000       0.00000000       0.00000000       0.00000000       0.00000000     -17.76860428
Tc       0.00000000       0.00000000       1.64969697       0.00000000       0.00000000      17.76860428
2
Properties=species:S:1:pos:R:3:forces:R:3 energy=-41.313499797794734 pbc="F F F"
Tc       0.00000000       0.00000000       0.00000000       0.00000000       0.00000000     -10.24774265
Tc       0.00000000       0.00000000       1.70848485       0.00000000       0.00000000      10.24774265
2
Properties=species:S:1:pos:R:3:forces:R:3 energy=-41.793322055130396 pbc="F F F"
Tc       0.00000000       0.00000000       0.00000000       0.00000000       0.00000000      -6.64012480
Tc       0.00000000       0.00000000       1.76727273       0.00000000       0.00000000       6.64012480
2
Properties=species:S:1:pos:R:3:forces:R:3 energy=-42.11571149180057 pbc="F F F"
Tc       0.00000000       0.00000000       0.00000000       0.00000000       0.00000000      -4.21634483
Tc       0.00000000       0.00000000       1.82606061       0.00000000       0.00000000       4.21634483
2
Properties=species:S:1:pos:R:3:forces:R:3 energy=-42.27219951155378 pbc="F F F"
Tc       0.00000000       0.00000000       0.00000000       0.00000000       0.00000000      -1.07494390
Tc       0.00000000       0.00000000       1.88484848       0.00000000       0.00000000       1.07494390
2
Properties=species:S:1:pos:R:3:forces:R:3 energy=-42.25858243362882 pbc="F F F"
Tc       0.00000000       0.00000000       0.00000000       0.00000000       0.00000000       1.27227831
Tc       0.00000000       0.00000000       1.94363636       0.00000000       0.00000000      -1.27227831
2
Properties=species:S:1:pos:R:3:forces:R:3 energy=-42.15532011568149 pbc="F F F"
Tc       0.00000000       0.00000000       0.00000000       0.00000000       0.00000000       2.01020622
Tc       0.00000000       0.00000000       2.00242424       0.00000000       0.00000000      -2.01020622
2
Properties=species:S:1:pos:R:3:forces:R:3 energy=-42.04039308389249 pbc="F F F"
Tc       0.00000000       0.00000000       0.00000000       0.00000000       0.00000000       1.80823398
Tc       0.00000000       0.00000000       2.06121212       0.00000000       0.00000000      -1.80823398
2
Properties=species:S:1:pos:R:3:forces:R:3 energy=-41.949473468886346 pbc="F F F"
Tc       0.00000000       0.00000000       0.00000000       0.00000000       0.00000000       1.24927413
Tc       0.00000000       0.00000000       2.12000000       0.00000000       0.00000000      -1.24927413
2
Properties=species:S:1:pos:R:3:forces:R:3 energy=-41.895506062207765 pbc="F F F"
Tc       0.00000000       0.00000000       0.00000000       0.00000000       0.00000000       0.59091008
Tc       0.00000000       0.00000000       2.17878788       0.00000000       0.00000000      -0.59091008
2
Properties=species:S:1:pos:R:3:forces:R:3 energy=-41.87694461518553 pbc="F F F"
Tc       0.00000000       0.00000000       0.00000000       0.00000000       0.00000000       0.08454057
Tc       0.00000000       0.00000000       2.23757576       0.00000000       0.00000000      -0.08454057
2
Properties=species:S:1:pos:R:3:forces:R:3 energy=-41.8794919190131 pbc="F F F"
Tc       0.00000000       0.00000000       0.00000000       0.00000000       0.00000000      -0.11950901
Tc       0.00000000       0.00000000       2.29636364       0.00000000       0.00000000       0.11950901
2
Properties=species:S:1:pos:R:3:forces:R:3 energy=-41.8857748352805 pbc="F F F"
Tc       0.00000000       0.00000000       0.00000000       0.00000000       0.00000000      -0.05775465
Tc       0.00000000       0.00000000       2.35515152       0.00000000       0.00000000       0.05775465
2
Properties=species:S:1:pos:R:3:forces:R:3 energy=-41.88254425639118 pbc="F F F"
Tc       0.00000000       0.00000000       0.00000000       0.00000000       0.00000000       0.19705665
Tc       0.00000000       0.00000000       2.41393939       0.00000000       0.00000000      -0.19705665
2
Properties=species:S:1:pos:R:3:forces:R:3 energy=-41.859499400464486 pbc="F F F"
Tc       0.00000000       0.00000000       0.00000000       0.00000000       0.00000000       0.60629308
Tc       0.00000000       0.00000000       2.47272727       0.00000000       0.00000000      -0.60629308
2
Properties=species:S:1:pos:R:3:forces:R:3 energy=-41.81094905718279 pbc="F F F"
Tc       0.00000000       0.00000000       0.00000000       0.00000000       0.00000000       1.02639627
Tc       0.00000000       0.00000000       2.53151515       0.00000000       0.00000000      -1.02639627
2
Properties=species:S:1:pos:R:3:forces:R:3 energy=-41.743360120988044 pbc="F F F"
Tc       0.00000000       0.00000000       0.00000000       0.00000000       0.00000000       1.22232902
Tc       0.00000000       0.00000000       2.59030303       0.00000000       0.00000000      -1.22232902
2
Properties=species:S:1:pos:R:3:forces:R:3 energy=-41.673143858114464 pbc="F F F"
Tc       0.00000000       0.00000000       0.00000000       0.00000000       0.00000000       1.12223947
Tc       0.00000000       0.00000000       2.64909091       0.00000000       0.00000000      -1.12223947
2
Properties=species:S:1:pos:R:3:forces:R:3 energy=-41.61537492966036 pbc="F F F"
Tc       0.00000000       0.00000000       0.00000000       0.00000000       0.00000000       0.82270503
Tc       0.00000000       0.00000000       2.70787879       0.00000000       0.00000000      -0.82270503
2
Properties=species:S:1:pos:R:3:forces:R:3 energy=-41.57641424958824 pbc="F F F"
Tc       0.00000000       0.00000000       0.00000000       0.00000000       0.00000000       0.52757001
Tc       0.00000000       0.00000000       2.76666667       0.00000000       0.00000000      -0.52757001
2
Properties=species:S:1:pos:R:3:forces:R:3 energy=-41.547636784546995 pbc="F F F"
Tc       0.00000000       0.00000000       0.00000000       0.00000000       0.00000000       0.51614201
Tc       0.00000000       0.00000000       2.82545455       0.00000000       0.00000000      -0.51614201
2
Properties=species:S:1:pos:R:3:forces:R:3 energy=-41.50832667103212 pbc="F F F"
Tc       0.00000000       0.00000000       0.00000000       0.00000000       0.00000000       0.87057346
Tc       0.00000000       0.00000000       2.88424242       0.00000000       0.00000000      -0.87057346
2
Properties=species:S:1:pos:R:3:forces:R:3 energy=-41.44226384232879 pbc="F F F"
Tc       0.00000000       0.00000000       0.00000000       0.00000000       0.00000000       1.37835944
Tc       0.00000000       0.00000000       2.94303030       0.00000000       0.00000000      -1.37835944
2
Properties=species:S:1:pos:R:3:forces:R:3 energy=-41.3483168550233 pbc="F F F"
Tc       0.00000000       0.00000000       0.00000000       0.00000000       0.00000000       1.78660846
Tc       0.00000000       0.00000000       3.00181818       0.00000000       0.00000000      -1.78660846
2
Properties=species:S:1:pos:R:3:forces:R:3 energy=-41.236618911196494 pbc="F F F"
Tc       0.00000000       0.00000000       0.00000000       0.00000000       0.00000000       1.97327280
Tc       0.00000000       0.00000000       3.06060606       0.00000000       0.00000000      -1.97327280
2
Properties=species:S:1:pos:R:3:forces:R:3 energy=-41.12078710359376 pbc="F F F"
Tc       0.00000000       0.00000000       0.00000000       0.00000000       0.00000000       1.93403363
Tc       0.00000000       0.00000000       3.11939394       0.00000000       0.00000000      -1.93403363
2
Properties=species:S:1:pos:R:3:forces:R:3 energy=-41.01220919606439 pbc="F F F"
Tc       0.00000000       0.00000000       0.00000000       0.00000000       0.00000000       1.74386990
Tc       0.00000000       0.00000000       3.17818182       0.00000000       0.00000000      -1.74386990
2
Properties=species:S:1:pos:R:3:forces:R:3 energy=-40.916483468072315 pbc="F F F"
Tc       0.00000000       0.00000000       0.00000000       0.00000000       0.00000000       1.51584291
Tc       0.00000000       0.00000000       3.23696970       0.00000000       0.00000000      -1.51584291
2
Properties=species:S:1:pos:R:3:forces:R:3 energy=-40.83269772290449 pbc="F F F"
Tc       0.00000000       0.00000000       0.00000000       0.00000000       0.00000000       1.35209775
Tc       0.00000000       0.00000000       3.29575758       0.00000000       0.00000000      -1.35209775
2
Properties=species:S:1:pos:R:3:forces:R:3 energy=-40.75491718430205 pbc="F F F"
Tc       0.00000000       0.00000000       0.00000000       0.00000000       0.00000000       1.31878006
Tc       0.00000000       0.00000000       3.35454545       0.00000000       0.00000000      -1.31878006
2
Properties=species:S:1:pos:R:3:forces:R:3 energy=-40.67487673377568 pbc="F F F"
Tc       0.00000000       0.00000000       0.00000000       0.00000000       0.00000000       1.42389882
Tc       0.00000000       0.00000000       3.41333333       0.00000000       0.00000000      -1.42389882
2
Properties=species:S:1:pos:R:3:forces:R:3 energy=-40.58606101411552 pbc="F F F"
Tc       0.00000000       0.00000000       0.00000000       0.00000000       0.00000000       1.60082936
Tc       0.00000000       0.00000000       3.47212121       0.00000000       0.00000000      -1.60082936
2
Properties=species:S:1:pos:R:3:forces:R:3 energy=-40.48741308491411 pbc="F F F"
Tc       0.00000000       0.00000000       0.00000000       0.00000000       0.00000000       1.73995817
Tc       0.00000000       0.00000000       3.53090909       0.00000000       0.00000000      -1.73995817
2
Properties=species:S:1:pos:R:3:forces:R:3 energy=-40.38401747829231 pbc="F F F"
Tc       0.00000000       0.00000000       0.00000000       0.00000000       0.00000000       1.75217545
Tc       0.00000000       0.00000000       3.58969697       0.00000000       0.00000000      -1.75217545
2
Properties=species:S:1:pos:R:3:forces:R:3 energy=-40.28443004386191 pbc="F F F"
Tc       0.00000000       0.00000000       0.00000000       0.00000000       0.00000000       1.61203766
Tc       0.00000000       0.00000000       3.64848485       0.00000000       0.00000000      -1.61203766
2
Properties=species:S:1:pos:R:3:forces:R:3 energy=-40.19675644310437 pbc="F F F"
Tc       0.00000000       0.00000000       0.00000000       0.00000000       0.00000000       1.35688901
Tc       0.00000000       0.00000000       3.70727273       0.00000000       0.00000000      -1.35688901
2
Properties=species:S:1:pos:R:3:forces:R:3 energy=-40.1257873592417 pbc="F F F"
Tc       0.00000000       0.00000000       0.00000000       0.00000000       0.00000000       1.05593264
Tc       0.00000000       0.00000000       3.76606061       0.00000000       0.00000000      -1.05593264
2
Properties=species:S:1:pos:R:3:forces:R:3 energy=-40.07217069525848 pbc="F F F"
Tc       0.00000000       0.00000000       0.00000000       0.00000000       0.00000000       0.77611148
Tc       0.00000000       0.00000000       3.82484848       0.00000000       0.00000000      -0.77611148
2
Properties=species:S:1:pos:R:3:forces:R:3 energy=-40.03324320324838 pbc="F F F"
Tc       0.00000000       0.00000000       0.00000000       0.00000000       0.00000000       0.56129843
Tc       0.00000000       0.00000000       3.88363636       0.00000000       0.00000000      -0.56129843
2
Properties=species:S:1:pos:R:3:forces:R:3 energy=-40.00458308837604 pbc="F F F"
Tc       0.00000000       0.00000000       0.00000000       0.00000000       0.00000000       0.42705393
Tc       0.00000000       0.00000000       3.94242424       0.00000000       0.00000000      -0.42705393
2
Properties=species:S:1:pos:R:3:forces:R:3 energy=-39.98159307339619 pbc="F F F"
Tc       0.00000000       0.00000000       0.00000000       0.00000000       0.00000000       0.36571908
Tc       0.00000000       0.00000000       4.00121212       0.00000000       0.00000000      -0.36571908
2
Properties=species:S:1:pos:R:3:forces:R:3 energy=-39.960568542398526 pbc="F F F"
Tc       0.00000000       0.00000000       0.00000000       0.00000000       0.00000000       0.35613817
Tc       0.00000000       0.00000000       4.06000000       0.00000000       0.00000000      -0.35613817
2
Properties=species:S:1:pos:R:3:forces:R:3 energy=-39.939197294659806 pbc="F F F"
Tc       0.00000000       0.00000000       0.00000000       0.00000000       0.00000000       0.37344027
Tc       0.00000000       0.00000000       4.11878788       0.00000000       0.00000000      -0.37344027
2
Properties=species:S:1:pos:R:3:forces:R:3 energy=-39.916551889906806 pbc="F F F"
Tc       0.00000000       0.00000000       0.00000000       0.00000000       0.00000000       0.39640504
Tc       0.00000000       0.00000000       4.17757576       0.00000000       0.00000000      -0.39640504
2
Properties=species:S:1:pos:R:3:forces:R:3 energy=-39.892746350904986 pbc="F F F"
Tc       0.00000000       0.00000000       0.00000000       0.00000000       0.00000000       0.41158652
Tc       0.00000000       0.00000000       4.23636364       0.00000000       0.00000000      -0.41158652
2
Properties=species:S:1:pos:R:3:forces:R:3 energy=-39.8684097368197 pbc="F F F"
Tc       0.00000000       0.00000000       0.00000000       0.00000000       0.00000000       0.41433898
Tc       0.00000000       0.00000000       4.29515152       0.00000000       0.00000000      -0.41433898
2
Properties=species:S:1:pos:R:3:forces:R:3 energy=-39.84422077390851 pbc="F F F"
Tc       0.00000000       0.00000000       0.00000000       0.00000000       0.00000000       0.40753424
Tc       0.00000000       0.00000000       4.35393939       0.00000000       0.00000000      -0.40753424
2
Properties=species:S:1:pos:R:3:forces:R:3 energy=-39.82053399618219 pbc="F F F"
Tc       0.00000000       0.00000000       0.00000000       0.00000000       0.00000000       0.39873359
Tc       0.00000000       0.00000000       4.41272727       0.00000000       0.00000000      -0.39873359
2
Properties=species:S:1:pos:R:3:forces:R:3 energy=-39.79720813154512 pbc="F F F"
Tc       0.00000000       0.00000000       0.00000000       0.00000000       0.00000000       0.39660314
Tc       0.00000000       0.00000000       4.47151515       0.00000000       0.00000000      -0.39660314
2
Properties=species:S:1:pos:R:3:forces:R:3 energy=-39.77364801436394 pbc="F F F"
Tc       0.00000000       0.00000000       0.00000000       0.00000000       0.00000000       0.40733841
Tc       0.00000000       0.00000000       4.53030303       0.00000000       0.00000000      -0.40733841
2
Properties=species:S:1:pos:R:3:forces:R:3 energy=-39.749037369115904 pbc="F F F"
Tc       0.00000000       0.00000000       0.00000000       0.00000000       0.00000000       0.43204722
Tc       0.00000000       0.00000000       4.58909091       0.00000000       0.00000000      -0.43204722
2
Properties=species:S:1:pos:R:3:forces:R:3 energy=-39.72266299629998 pbc="F F F"
Tc       0.00000000       0.00000000       0.00000000       0.00000000       0.00000000       0.46605968
Tc       0.00000000       0.00000000       4.64787879       0.00000000       0.00000000      -0.46605968
2
Properties=species:S:1:pos:R:3:forces:R:3 energy=-39.69422760929086 pbc="F F F"
Tc       0.00000000       0.00000000       0.00000000       0.00000000       0.00000000       0.50051636
Tc       0.00000000       0.00000000       4.70666667       0.00000000       0.00000000      -0.50051636
2
Properties=species:S:1:pos:R:3:forces:R:3 energy=-39.663998618619715 pbc="F F F"
Tc       0.00000000       0.00000000       0.00000000       0.00000000       0.00000000       0.52561486
Tc       0.00000000       0.00000000       4.76545455       0.00000000       0.00000000      -0.52561486
2
Properties=species:S:1:pos:R:3:forces:R:3 energy=-39.63275473096419 pbc="F F F"
Tc       0.00000000       0.00000000       0.00000000       0.00000000       0.00000000       0.53409934
Tc       0.00000000       0.00000000       4.82424242       0.00000000       0.00000000      -0.53409934
2
Properties=species:S:1:pos:R:3:forces:R:3 energy=-39.60158376702549 pbc="F F F"
Tc       0.00000000       0.00000000       0.00000000       0.00000000       0.00000000       0.52335656
Tc       0.00000000       0.00000000       4.88303030       0.00000000       0.00000000      -0.52335656
2
Properties=species:S:1:pos:R:3:forces:R:3 energy=-39.57156602740017 pbc="F F F"
Tc       0.00000000       0.00000000       0.00000000       0.00000000       0.00000000       0.49525893
Tc       0.00000000       0.00000000       4.94181818       0.00000000       0.00000000      -0.49525893
2
Properties=species:S:1:pos:R:3:forces:R:3 energy=-39.54360644906828 pbc="F F F"
Tc       0.00000000       0.00000000       0.00000000       0.00000000       0.00000000       0.45418838
Tc       0.00000000       0.00000000       5.00060606       0.00000000       0.00000000      -0.45418838
2
Properties=species:S:1:pos:R:3:forces:R:3 energy=-39.51832782554806 pbc="F F F"
Tc       0.00000000       0.00000000       0.00000000       0.00000000       0.00000000       0.40459883
Tc       0.00000000       0.00000000       5.05939394       0.00000000       0.00000000      -0.40459883
2
Properties=species:S:1:pos:R:3:forces:R:3 energy=-39.49613559814487 pbc="F F F"
Tc       0.00000000       0.00000000       0.00000000       0.00000000       0.00000000       0.34978929
Tc       0.00000000       0.00000000       5.11818182       0.00000000       0.00000000      -0.34978929
2
Properties=species:S:1:pos:R:3:forces:R:3 energy=-39.47725219614602 pbc="F F F"
Tc       0.00000000       0.00000000       0.00000000       0.00000000       0.00000000       0.29245877
Tc       0.00000000       0.00000000       5.17696970       0.00000000       0.00000000      -0.29245877
2
Properties=species:S:1:pos:R:3:forces:R:3 energy=-39.46173231778467 pbc="F F F"
Tc       0.00000000       0.00000000       0.00000000       0.00000000       0.00000000       0.23608090
Tc       0.00000000       0.00000000       5.23575758       0.00000000       0.00000000      -0.23608090
2
Properties=species:S:1:pos:R:3:forces:R:3 energy=-39.44939799802292 pbc="F F F"
Tc       0.00000000       0.00000000       0.00000000       0.00000000       0.00000000       0.18467031
Tc       0.00000000       0.00000000       5.29454545       0.00000000       0.00000000      -0.18467031
2
Properties=species:S:1:pos:R:3:forces:R:3 energy=-39.43987300259968 pbc="F F F"
Tc       0.00000000       0.00000000       0.00000000       0.00000000       0.00000000       0.14066118
Tc       0.00000000       0.00000000       5.35333333       0.00000000       0.00000000      -0.14066118
2
Properties=species:S:1:pos:R:3:forces:R:3 energy=-39.432681935715856 pbc="F F F"
Tc       0.00000000       0.00000000       0.00000000       0.00000000       0.00000000       0.10591239
Tc       0.00000000       0.00000000       5.41212121       0.00000000       0.00000000      -0.10591239
2
Properties=species:S:1:pos:R:3:forces:R:3 energy=-39.42708621913919 pbc="F F F"
Tc       0.00000000       0.00000000       0.00000000       0.00000000       0.00000000       0.08841730
Tc       0.00000000       0.00000000       5.47090909       0.00000000       0.00000000      -0.08841730
2
Properties=species:S:1:pos:R:3:forces:R:3 energy=-39.4217979709025 pbc="F F F"
Tc       0.00000000       0.00000000       0.00000000       0.00000000       0.00000000       0.09471810
Tc       0.00000000       0.00000000       5.52969697       0.00000000       0.00000000      -0.09471810
2
Properties=species:S:1:pos:R:3:forces:R:3 energy=-39.41582302172112 pbc="F F F"
Tc       0.00000000       0.00000000       0.00000000       0.00000000       0.00000000       0.10745402
Tc       0.00000000       0.00000000       5.58848485       0.00000000       0.00000000      -0.10745402
2
Properties=species:S:1:pos:R:3:forces:R:3 energy=-39.40940315947268 pbc="F F F"
Tc       0.00000000       0.00000000       0.00000000       0.00000000       0.00000000       0.10976986
Tc       0.00000000       0.00000000       5.64727273       0.00000000       0.00000000      -0.10976986
2
Properties=species:S:1:pos:R:3:forces:R:3 energy=-39.40277629239724 pbc="F F F"
Tc       0.00000000       0.00000000       0.00000000       0.00000000       0.00000000       0.11942671
Tc       0.00000000       0.00000000       5.70606061       0.00000000       0.00000000      -0.11942671
2
Properties=species:S:1:pos:R:3:forces:R:3 energy=-39.394810806483044 pbc="F F F"
Tc       0.00000000       0.00000000       0.00000000       0.00000000       0.00000000       0.15364869
Tc       0.00000000       0.00000000       5.76484848       0.00000000       0.00000000      -0.15364869
2
Properties=species:S:1:pos:R:3:forces:R:3 energy=-39.38509218903176 pbc="F F F"
Tc       0.00000000       0.00000000       0.00000000       0.00000000       0.00000000       0.16770507
Tc       0.00000000       0.00000000       5.82363636       0.00000000       0.00000000      -0.16770507
2
Properties=species:S:1:pos:R:3:forces:R:3 energy=-39.376505542277314 pbc="F F F"
Tc       0.00000000       0.00000000       0.00000000       0.00000000       0.00000000       0.11566590
Tc       0.00000000       0.00000000       5.88242424       0.00000000       0.00000000      -0.11566590
2
Properties=species:S:1:pos:R:3:forces:R:3 energy=-39.371958785361265 pbc="F F F"
Tc       0.00000000       0.00000000       0.00000000       0.00000000       0.00000000       0.04080462
Tc       0.00000000       0.00000000       5.94121212       0.00000000       0.00000000      -0.04080462
2
Properties=species:S:1:pos:R:3:forces:R:3 energy=-39.370823506145896 pbc="F F F"
Tc       0.00000000       0.00000000       0.00000000       0.00000000       0.00000000       0.00839509
Tc       0.00000000       0.00000000       6.00000000       0.00000000       0.00000000      -0.00839509
