2
Properties=species:S:1:pos:R:3:forces:R:3 energy=1459656.7306777658 pbc="F F F"
Tc       0.00000000       0.00000000       0.00000000       0.00000000       0.00000000 -833862.50000000
Tc       0.00000000       0.00000000       0.10000000       0.00000000       0.00000000  833862.50000000
2
Properties=species:S:1:pos:R:3:forces:R:3 energy=1428941.9806777658 pbc="F F F"
Tc       0.00000000       0.00000000       0.00000000       0.00000000       0.00000000 -413487.75000000
Tc       0.00000000       0.00000000       0.15959596       0.00000000       0.00000000  413487.75000000
2
Properties=species:S:1:pos:R:3:forces:R:3 energy=1395916.4806777658 pbc="F F F"
Tc       0.00000000       0.00000000       0.00000000       0.00000000       0.00000000 -783665.50000000
Tc       0.00000000       0.00000000       0.21919192       0.00000000       0.00000000  783665.50000000
2
Properties=species:S:1:pos:R:3:forces:R:3 energy=1325491.3556777658 pbc="F F F"
Tc       0.00000000       0.00000000       0.00000000       0.00000000       0.00000000 -1661610.37500000
Tc       0.00000000       0.00000000       0.27878788       0.00000000       0.00000000 1661610.37500000
2
Properties=species:S:1:pos:R:3:forces:R:3 energy=1189172.2306777658 pbc="F F F"
Tc       0.00000000       0.00000000       0.00000000       0.00000000       0.00000000 -2967264.50000000
Tc       0.00000000       0.00000000       0.33838384       0.00000000       0.00000000 2967264.50000000
2
Properties=species:S:1:pos:R:3:forces:R:3 energy=969921.0431777659 pbc="F F F"
Tc       0.00000000       0.00000000       0.00000000       0.00000000       0.00000000 -4354700.00000000
Tc       0.00000000       0.00000000       0.39797980       0.00000000       0.00000000 4354700.00000000
2
Properties=species:S:1:pos:R:3:forces:R:3 energy=682424.6056777674 pbc="F F F"
Tc       0.00000000       0.00000000       0.00000000       0.00000000       0.00000000 -5120650.00000000
Tc       0.00000000       0.00000000       0.45757576       0.00000000       0.00000000 5120650.00000000
2
Properties=species:S:1:pos:R:3:forces:R:3 energy=385944.7306777706 pbc="F F F"
Tc       0.00000000       0.00000000       0.00000000       0.00000000       0.00000000 -4595604.00000000
Tc       0.00000000       0.00000000       0.51717172       0.00000000       0.00000000 4595604.00000000
2
Properties=species:S:1:pos:R:3:forces:R:3 energy=160314.88692777694 pbc="F F F"
Tc       0.00000000       0.00000000       0.00000000       0.00000000       0.00000000 -2862277.75000000
Tc       0.00000000       0.00000000       0.57676768       0.00000000       0.00000000 2862277.75000000
2
Properties=species:S:1:pos:R:3:forces:R:3 energy=45547.65645903644 pbc="F F F"
Tc       0.00000000       0.00000000       0.00000000       0.00000000       0.00000000 -1103116.50000000
Tc       0.00000000       0.00000000       0.63636364       0.00000000       0.00000000 1103116.50000000
2
Properties=species:S:1:pos:R:3:forces:R:3 energy=9272.0295059257 pbc="F F F"
Tc       0.00000000       0.00000000       0.00000000       0.00000000       0.00000000 -268716.15625000
Tc       0.00000000       0.00000000       0.69595960       0.00000000       0.00000000  268716.15625000
2
Properties=species:S:1:pos:R:3:forces:R:3 energy=969.9991104416465 pbc="F F F"
Tc       0.00000000       0.00000000       0.00000000       0.00000000       0.00000000  -58885.02734375
Tc       0.00000000       0.00000000       0.75555556       0.00000000       0.00000000   58885.02734375
2
Properties=species:S:1:pos:R:3:forces:R:3 energy=197.1971085217837 pbc="F F F"
Tc       0.00000000       0.00000000       0.00000000       0.00000000       0.00000000   -1897.77978516
Tc       0.00000000       0.00000000       0.81515152       0.00000000       0.00000000    1897.77978516
2
Properties=species:S:1:pos:R:3:forces:R:3 energy=93.04612285152758 pbc="F F F"
Tc       0.00000000       0.00000000       0.00000000       0.00000000       0.00000000   -1754.49450684
Tc       0.00000000       0.00000000       0.87474747       0.00000000       0.00000000    1754.49450684
2
Properties=species:S:1:pos:R:3:forces:R:3 energy=47.63767946870802 pbc="F F F"
Tc       0.00000000       0.00000000       0.00000000       0.00000000       0.00000000    -513.06115723
Tc       0.00000000       0.00000000       0.93434343       0.00000000       0.00000000     513.06115723
2
Properties=species:S:1:pos:R:3:forces:R:3 energy=22.55330990431886 pbc="F F F"
Tc       0.00000000       0.00000000       0.00000000       0.00000000       0.00000000    -321.12210083
Tc       0.00000000       0.00000000       0.99393939       0.00000000       0.00000000     321.12210083
2
Properties=species:S:1:pos:R:3:forces:R:3 energy=7.796779269312996 pbc="F F F"
Tc       0.00000000       0.00000000       0.00000000       0.00000000       0.00000000    -197.28442383
Tc       0.00000000       0.00000000       1.05353535       0.00000000       0.00000000     197.28442383
2
Properties=species:S:1:pos:R:3:forces:R:3 energy=-2.493854714898046 pbc="F F F"
Tc       0.00000000       0.00000000       0.00000000       0.00000000       0.00000000    -150.12268066
Tc       0.00000000       0.00000000       1.11313131       0.00000000       0.00000000     150.12268066
2
Properties=species:S:1:pos:R:3:forces:R:3 energy=-10.096197100325227 pbc="F F F"
Tc       0.00000000       0.00000000       0.00000000       0.00000000       0.00000000    -107.30383301
Tc       0.00000000       0.00000000       1.17272727       0.00000000       0.00000000     107.30383301
2
Properties=species:S:1:pos:R:3:forces:R:3 energy=-16.08942190812575 pbc="F F F"
Tc       0.00000000       0.00000000       0.00000000       0.00000000       0.00000000    -100.45105743
Tc       0.00000000       0.00000000       1.23232323       0.00000000       0.00000000     100.45105743
2
Properties=species:S:1:pos:R:3:forces:R:3 energy=-22.14841392652264 pbc="F F F"
Tc       0.00000000       0.00000000       0.00000000       0.00000000       0.00000000    -100.36195374
Tc       0.00000000       0.00000000       1.29191919       0.00000000       0.00000000     100.36195374
2
Properties=species:S:1:pos:R:3:forces:R:3 energy=-27.813034814002197 pbc="F F F"
Tc       0.00000000       0.00000000       0.00000000       0.00000000       0.00000000     -87.83853149
Tc       0.00000000       0.00000000       1.35151515       0.00000000       0.00000000      87.83853149
2
Properties=species:S:1:pos:R:3:forces:R:3 energy=-32.38498895829577 pbc="F F F"
Tc       0.00000000       0.00000000       0.00000000       0.00000000       0.00000000     -64.42964935
Tc       0.00000000       0.00000000       1.41111111       0.00000000       0.00000000      64.42964935
2
Properties=species:S:1:pos:R:3:forces:R:3 energy=-35.518643780960204 pbc="F F F"
Tc       0.00000000       0.00000000       0.00000000       0.00000000       0.00000000     -42.05041504
Tc       0.00000000       0.00000000       1.47070707       0.00000000       0.00000000      42.05041504
2
Properties=species:S:1:pos:R:3:forces:R:3 energy=-37.605938423028746 pbc="F F F"
Tc       0.00000000       0.00000000       0.00000000       0.00000000       0.00000000     -29.77912712
Tc       0.00000000       0.00000000       1.53030303       0.00000000       0.00000000      29.77912712
2
Properties=species:S:1:pos:R:3:forces:R:3 energy=-39.216140130524124 pbc="F F F"
Tc       0.00000000       0.00000000       0.00000000       0.00000000       0.00000000     -24.65853310
Tc       0.00000000       0.00000000       1.58989899       0.00000000       0.00000000      24.65853310
2
Properties=species:S:1:pos:R:3:forces:R:3 energy=-40.50079534845569 pbc="F F F"
Tc       0.00000000       0.00000000       0.00000000       0.00000000       0.00000000     -17.79740906
Tc       0.00000000       0.00000000       1.64949495       0.00000000       0.00000000      17.79740906
2
Properties=species:S:1:pos:R:3:forces:R:3 energy=-41.31969484873109 pbc="F F F"
Tc       0.00000000       0.00000000       0.00000000       0.00000000       0.00000000     -10.19008446
Tc       0.00000000       0.00000000       1.70909091       0.00000000       0.00000000      10.19008446
2
Properties=species:S:1:pos:R:3:forces:R:3 energy=-41.802671832195024 pbc="F F F"
Tc       0.00000000       0.00000000       0.00000000       0.00000000       0.00000000      -6.58482075
Tc       0.00000000       0.00000000       1.76868687       0.00000000       0.00000000       6.58482075
2
Properties=species:S:1:pos:R:3:forces:R:3 energy=-42.124958235609064 pbc="F F F"
Tc       0.00000000       0.00000000       0.00000000       0.00000000       0.00000000      -4.10686016
Tc       0.00000000       0.00000000       1.82828283       0.00000000       0.00000000       4.10686016
2
Properties=species:S:1:pos:R:3:forces:R:3 energy=-42.275220629827 pbc="F F F"
Tc       0.00000000       0.00000000       0.00000000       0.00000000       0.00000000      -0.91884559
Tc       0.00000000       0.00000000       1.88787879       0.00000000       0.00000000       0.91884559
2
Properties=species:S:1:pos:R:3:forces:R:3 energy=-42.253516363604604 pbc="F F F"
Tc       0.00000000       0.00000000       0.00000000       0.00000000       0.00000000       1.36653364
Tc       0.00000000       0.00000000       1.94747475       0.00000000       0.00000000      -1.36653364
2
Properties=species:S:1:pos:R:3:forces:R:3 energy=-42.14596249856216 pbc="F F F"
Tc       0.00000000       0.00000000       0.00000000       0.00000000       0.00000000       2.01737380
Tc       0.00000000       0.00000000       2.00707071       0.00000000       0.00000000      -2.01737380
2
Properties=species:S:1:pos:R:3:forces:R:3 energy=-42.030642628982534 pbc="F F F"
Tc       0.00000000       0.00000000       0.00000000       0.00000000       0.00000000       1.76656139
Tc       0.00000000       0.00000000       2.06666667       0.00000000       0.00000000      -1.76656139
2
Properties=species:S:1:pos:R:3:forces:R:3 energy=-41.94187091028448 pbc="F F F"
Tc       0.00000000       0.00000000       0.00000000       0.00000000       0.00000000       1.17966545
Tc       0.00000000       0.00000000       2.12626263       0.00000000       0.00000000      -1.17966545
2
Properties=species:S:1:pos:R:3:forces:R:3 energy=-41.89158903335862 pbc="F F F"
Tc       0.00000000       0.00000000       0.00000000       0.00000000       0.00000000       0.51719373
Tc       0.00000000       0.00000000       2.18585859       0.00000000       0.00000000      -0.51719373
2
Properties=species:S:1:pos:R:3:forces:R:3 energy=-41.87646571988744 pbc="F F F"
Tc       0.00000000       0.00000000       0.00000000       0.00000000       0.00000000       0.03888227
Tc       0.00000000       0.00000000       2.24545455       0.00000000       0.00000000      -0.03888227
2
Properties=species:S:1:pos:R:3:forces:R:3 energy=-41.88055626484423 pbc="F F F"
Tc       0.00000000       0.00000000       0.00000000       0.00000000       0.00000000      -0.12485141
Tc       0.00000000       0.00000000       2.30505051       0.00000000       0.00000000       0.12485141
2
Properties=species:S:1:pos:R:3:forces:R:3 energy=-41.88619074529352 pbc="F F F"
Tc       0.00000000       0.00000000       0.00000000       0.00000000       0.00000000      -0.02864013
Tc       0.00000000       0.00000000       2.36464646       0.00000000       0.00000000       0.02864013
2
Properties=species:S:1:pos:R:3:forces:R:3 energy=-41.88019771608323 pbc="F F F"
Tc       0.00000000       0.00000000       0.00000000       0.00000000       0.00000000       0.25937289
Tc       0.00000000       0.00000000       2.42424242       0.00000000       0.00000000      -0.25937289
2
Properties=species:S:1:pos:R:3:forces:R:3 energy=-41.85228652097111 pbc="F F F"
Tc       0.00000000       0.00000000       0.00000000       0.00000000       0.00000000       0.69220960
Tc       0.00000000       0.00000000       2.48383838       0.00000000       0.00000000      -0.69220960
2
Properties=species:S:1:pos:R:3:forces:R:3 energy=-41.79832332117371 pbc="F F F"
Tc       0.00000000       0.00000000       0.00000000       0.00000000       0.00000000       1.09015059
Tc       0.00000000       0.00000000       2.54343434       0.00000000       0.00000000      -1.09015059
2
Properties=species:S:1:pos:R:3:forces:R:3 energy=-41.727778633800426 pbc="F F F"
Tc       0.00000000       0.00000000       0.00000000       0.00000000       0.00000000       1.22397935
Tc       0.00000000       0.00000000       2.60303030       0.00000000       0.00000000      -1.22397935
2
Properties=species:S:1:pos:R:3:forces:R:3 energy=-41.65832709849888 pbc="F F F"
Tc       0.00000000       0.00000000       0.00000000       0.00000000       0.00000000       1.06563056
Tc       0.00000000       0.00000000       2.66262626       0.00000000       0.00000000      -1.06563056
2
Properties=species:S:1:pos:R:3:forces:R:3 energy=-41.604174138548814 pbc="F F F"
Tc       0.00000000       0.00000000       0.00000000       0.00000000       0.00000000       0.73953182
Tc       0.00000000       0.00000000       2.72222222       0.00000000       0.00000000      -0.73953182
2
Properties=species:S:1:pos:R:3:forces:R:3 energy=-41.56874433654519 pbc="F F F"
Tc       0.00000000       0.00000000       0.00000000       0.00000000       0.00000000       0.48824435
Tc       0.00000000       0.00000000       2.78181818       0.00000000       0.00000000      -0.48824435
2
Properties=species:S:1:pos:R:3:forces:R:3 energy=-41.538916656542135 pbc="F F F"
Tc       0.00000000       0.00000000       0.00000000       0.00000000       0.00000000       0.58120227
Tc       0.00000000       0.00000000       2.84141414       0.00000000       0.00000000      -0.58120227
2
Properties=species:S:1:pos:R:3:forces:R:3 energy=-41.49255299275427 pbc="F F F"
Tc       0.00000000       0.00000000       0.00000000       0.00000000       0.00000000       1.01254988
Tc       0.00000000       0.00000000       2.90101010       0.00000000       0.00000000      -1.01254988
2
Properties=species:S:1:pos:R:3:forces:R:3 energy=-41.4167837004562 pbc="F F F"
Tc       0.00000000       0.00000000       0.00000000       0.00000000       0.00000000       1.51917064
Tc       0.00000000       0.00000000       2.96060606       0.00000000       0.00000000      -1.51917064
2
Properties=species:S:1:pos:R:3:forces:R:3 energy=-41.31466130270707 pbc="F F F"
Tc       0.00000000       0.00000000       0.00000000       0.00000000       0.00000000       1.87089920
Tc       0.00000000       0.00000000       3.02020202       0.00000000       0.00000000      -1.87089920
2
Properties=species:S:1:pos:R:3:forces:R:3 energy=-41.19861882176423 pbc="F F F"
Tc       0.00000000       0.00000000       0.00000000       0.00000000       0.00000000       1.98297203
Tc       0.00000000       0.00000000       3.07979798       0.00000000       0.00000000      -1.98297203
2
Properties=species:S:1:pos:R:3:forces:R:3 energy=-41.08261324179455 pbc="F F F"
Tc       0.00000000       0.00000000       0.00000000       0.00000000       0.00000000       1.88087058
Tc       0.00000000       0.00000000       3.13939394       0.00000000       0.00000000      -1.88087058
2
Properties=species:S:1:pos:R:3:forces:R:3 energy=-40.97677573081857 pbc="F F F"
Tc       0.00000000       0.00000000       0.00000000       0.00000000       0.00000000       1.66161454
Tc       0.00000000       0.00000000       3.19898990       0.00000000       0.00000000      -1.66161454
2
Properties=species:S:1:pos:R:3:forces:R:3 energy=-40.88451786803067 pbc="F F F"
Tc       0.00000000       0.00000000       0.00000000       0.00000000       0.00000000       1.44372344
Tc       0.00000000       0.00000000       3.25858586       0.00000000       0.00000000      -1.44372344
2
Properties=species:S:1:pos:R:3:forces:R:3 energy=-40.80275624204171 pbc="F F F"
Tc       0.00000000       0.00000000       0.00000000       0.00000000       0.00000000       1.32197702
Tc       0.00000000       0.00000000       3.31818182       0.00000000       0.00000000      -1.32197702
2
Properties=species:S:1:pos:R:3:forces:R:3 energy=-40.72400573509535 pbc="F F F"
Tc       0.00000000       0.00000000       0.00000000       0.00000000       0.00000000       1.34588659
Tc       0.00000000       0.00000000       3.37777778       0.00000000       0.00000000      -1.34588659
2
Properties=species:S:1:pos:R:3:forces:R:3 energy=-40.63982519825921 pbc="F F F"
Tc       0.00000000       0.00000000       0.00000000       0.00000000       0.00000000       1.49348927
Tc       0.00000000       0.00000000       3.43737374       0.00000000       0.00000000      -1.49348927
2
Properties=species:S:1:pos:R:3:forces:R:3 energy=-40.545392765490504 pbc="F F F"
Tc       0.00000000       0.00000000       0.00000000       0.00000000       0.00000000       1.67054808
Tc       0.00000000       0.00000000       3.49696970       0.00000000       0.00000000      -1.67054808
2
Properties=species:S:1:pos:R:3:forces:R:3 energy=-40.442405606437255 pbc="F F F"
Tc       0.00000000       0.00000000       0.00000000       0.00000000       0.00000000       1.76405859
Tc       0.00000000       0.00000000       3.55656566       0.00000000       0.00000000      -1.76405859
2
Properties=species:S:1:pos:R:3:forces:R:3 energy=-40.33817598257047 pbc="F F F"
Tc       0.00000000       0.00000000       0.00000000       0.00000000       0.00000000       1.70689297
Tc       0.00000000       0.00000000       3.61616162       0.00000000       0.00000000      -1.70689297
2
Properties=species:S:1:pos:R:3:forces:R:3 energy=-40.241885303168345 pbc="F F F"
Tc       0.00000000       0.00000000       0.00000000       0.00000000       0.00000000       1.50407910
Tc       0.00000000       0.00000000       3.67575758       0.00000000       0.00000000      -1.50407910
2
Properties=species:S:1:pos:R:3:forces:R:3 energy=-40.16063973467925 pbc="F F F"
Tc       0.00000000       0.00000000       0.00000000       0.00000000       0.00000000       1.21436191
Tc       0.00000000       0.00000000       3.73535354       0.00000000       0.00000000      -1.21436191
2
Properties=species:S:1:pos:R:3:forces:R:3 energy=-40.09737600478279 pbc="F F F"
Tc       0.00000000       0.00000000       0.00000000       0.00000000       0.00000000       0.91239399
Tc       0.00000000       0.00000000       3.79494949       0.00000000       0.00000000      -0.91239399
2
Properties=species:S:1:pos:R:3:forces:R:3 energy=-40.050926192054725 pbc="F F F"
Tc       0.00000000       0.00000000       0.00000000       0.00000000       0.00000000       0.65785664
Tc       0.00000000       0.00000000       3.85454545       0.00000000       0.00000000      -0.65785664
2
Properties=species:S:1:pos:R:3:forces:R:3 energy=-40.01739107400337 pbc="F F F"
Tc       0.00000000       0.00000000       0.00000000       0.00000000       0.00000000       0.48162895
Tc       0.00000000       0.00000000       3.91414141       0.00000000       0.00000000      -0.48162895
2
Properties=species:S:1:pos:R:3:forces:R:3 energy=-39.99189868350214 pbc="F F F"
Tc       0.00000000       0.00000000       0.00000000       0.00000000       0.00000000       0.38646084
Tc       0.00000000       0.00000000       3.97373737       0.00000000       0.00000000      -0.38646084
2
Properties=species:S:1:pos:R:3:forces:R:3 energy=-39.97004247816908 pbc="F F F"
Tc       0.00000000       0.00000000       0.00000000       0.00000000       0.00000000       0.35567546
Tc       0.00000000       0.00000000       4.03333333       0.00000000       0.00000000      -0.35567546
2
Properties=species:S:1:pos:R:3:forces:R:3 energy=-39.94872820315982 pbc="F F F"
Tc       0.00000000       0.00000000       0.00000000       0.00000000       0.00000000       0.36402684
Tc       0.00000000       0.00000000       4.09292929       0.00000000       0.00000000      -0.36402684
2
Properties=species:S:1:pos:R:3:forces:R:3 energy=-39.92636843122467 pbc="F F F"
Tc       0.00000000       0.00000000       0.00000000       0.00000000       0.00000000       0.38699308
Tc       0.00000000       0.00000000       4.15252525       0.00000000       0.00000000      -0.38699308
2
Properties=species:S:1:pos:R:3:forces:R:3 energy=-39.90266897767561 pbc="F F F"
Tc       0.00000000       0.00000000       0.00000000       0.00000000       0.00000000       0.40675983
Tc       0.00000000       0.00000000       4.21212121       0.00000000       0.00000000      -0.40675983
2
Properties=species:S:1:pos:R:3:forces:R:3 energy=-39.87812534609203 pbc="F F F"
Tc       0.00000000       0.00000000       0.00000000       0.00000000       0.00000000       0.41468820
Tc       0.00000000       0.00000000       4.27171717       0.00000000       0.00000000      -0.41468820
2
Properties=species:S:1:pos:R:3:forces:R:3 energy=-39.85348106823548 pbc="F F F"
Tc       0.00000000       0.00000000       0.00000000       0.00000000       0.00000000       0.41086668
Tc       0.00000000       0.00000000       4.33131313       0.00000000       0.00000000      -0.41086668
2
Properties=species:S:1:pos:R:3:forces:R:3 energy=-39.82926230464766 pbc="F F F"
Tc       0.00000000       0.00000000       0.00000000       0.00000000       0.00000000       0.40166494
Tc       0.00000000       0.00000000       4.39090909       0.00000000       0.00000000      -0.40166494
2
Properties=species:S:1:pos:R:3:forces:R:3 energy=-39.805529906751126 pbc="F F F"
Tc       0.00000000       0.00000000       0.00000000       0.00000000       0.00000000       0.39611995
Tc       0.00000000       0.00000000       4.45050505       0.00000000       0.00000000      -0.39611995
2
Properties=species:S:1:pos:R:3:forces:R:3 energy=-39.78181840386783 pbc="F F F"
Tc       0.00000000       0.00000000       0.00000000       0.00000000       0.00000000       0.40200400
Tc       0.00000000       0.00000000       4.51010101       0.00000000       0.00000000      -0.40200400
2
Properties=species:S:1:pos:R:3:forces:R:3 energy=-39.75731907859355 pbc="F F F"
Tc       0.00000000       0.00000000       0.00000000       0.00000000       0.00000000       0.42252964
Tc       0.00000000       0.00000000       4.56969697       0.00000000       0.00000000      -0.42252964
2
Properties=species:S:1:pos:R:3:forces:R:3 energy=-39.731219535043145 pbc="F F F"
Tc       0.00000000       0.00000000       0.00000000       0.00000000       0.00000000       0.45478770
Tc       0.00000000       0.00000000       4.62929293       0.00000000       0.00000000      -0.45478770
2
Properties=species:S:1:pos:R:3:forces:R:3 energy=-39.703039352612166 pbc="F F F"
Tc       0.00000000       0.00000000       0.00000000       0.00000000       0.00000000       0.49065658
Tc       0.00000000       0.00000000       4.68888889       0.00000000       0.00000000      -0.49065658
2
Properties=species:S:1:pos:R:3:forces:R:3 energy=-39.672870456254095 pbc="F F F"
Tc       0.00000000       0.00000000       0.00000000       0.00000000       0.00000000       0.51983410
Tc       0.00000000       0.00000000       4.74848485       0.00000000       0.00000000      -0.51983410
2
Properties=species:S:1:pos:R:3:forces:R:3 energy=-39.64138852097435 pbc="F F F"
Tc       0.00000000       0.00000000       0.00000000       0.00000000       0.00000000       0.53366441
Tc       0.00000000       0.00000000       4.80808081       0.00000000       0.00000000      -0.53366441
2
Properties=species:S:1:pos:R:3:forces:R:3 energy=-39.6096546503381 pbc="F F F"
Tc       0.00000000       0.00000000       0.00000000       0.00000000       0.00000000       0.52798063
Tc       0.00000000       0.00000000       4.86767677       0.00000000       0.00000000      -0.52798063
2
Properties=species:S:1:pos:R:3:forces:R:3 energy=-39.57882926625576 pbc="F F F"
Tc       0.00000000       0.00000000       0.00000000       0.00000000       0.00000000       0.50360751
Tc       0.00000000       0.00000000       4.92727273       0.00000000       0.00000000      -0.50360751
2
Properties=species:S:1:pos:R:3:forces:R:3 energy=-39.54991649100409 pbc="F F F"
Tc       0.00000000       0.00000000       0.00000000       0.00000000       0.00000000       0.46469426
Tc       0.00000000       0.00000000       4.98686869       0.00000000       0.00000000      -0.46469426
2
Properties=species:S:1:pos:R:3:forces:R:3 energy=-39.52363831765329 pbc="F F F"
Tc       0.00000000       0.00000000       0.00000000       0.00000000       0.00000000       0.41605493
Tc       0.00000000       0.00000000       5.04646465       0.00000000       0.00000000      -0.41605493
2
Properties=species:S:1:pos:R:3:forces:R:3 energy=-39.500449784908774 pbc="F F F"
Tc       0.00000000       0.00000000       0.00000000       0.00000000       0.00000000       0.36139083
Tc       0.00000000       0.00000000       5.10606061       0.00000000       0.00000000      -0.36139083
2
Properties=species:S:1:pos:R:3:forces:R:3 energy=-39.480622947968385 pbc="F F F"
Tc       0.00000000       0.00000000       0.00000000       0.00000000       0.00000000       0.30353737
Tc       0.00000000       0.00000000       5.16565657       0.00000000       0.00000000      -0.30353737
2
Properties=species:S:1:pos:R:3:forces:R:3 energy=-39.46426213255969 pbc="F F F"
Tc       0.00000000       0.00000000       0.00000000       0.00000000       0.00000000       0.24589396
Tc       0.00000000       0.00000000       5.22525253       0.00000000       0.00000000      -0.24589396
2
Properties=species:S:1:pos:R:3:forces:R:3 energy=-39.45122756813475 pbc="F F F"
Tc       0.00000000       0.00000000       0.00000000       0.00000000       0.00000000       0.19267264
Tc       0.00000000       0.00000000       5.28484848       0.00000000       0.00000000      -0.19267264
2
Properties=species:S:1:pos:R:3:forces:R:3 energy=-39.44115069576046 pbc="F F F"
Tc       0.00000000       0.00000000       0.00000000       0.00000000       0.00000000       0.14679933
Tc       0.00000000       0.00000000       5.34444444       0.00000000       0.00000000      -0.14679933
2
Properties=species:S:1:pos:R:3:forces:R:3 energy=-39.433556171906766 pbc="F F F"
Tc       0.00000000       0.00000000       0.00000000       0.00000000       0.00000000       0.10992797
Tc       0.00000000       0.00000000       5.40404040       0.00000000       0.00000000      -0.10992797
2
Properties=species:S:1:pos:R:3:forces:R:3 energy=-39.42772836512973 pbc="F F F"
Tc       0.00000000       0.00000000       0.00000000       0.00000000       0.00000000       0.08925750
Tc       0.00000000       0.00000000       5.46363636       0.00000000       0.00000000      -0.08925750
2
Properties=species:S:1:pos:R:3:forces:R:3 energy=-39.42240616128337 pbc="F F F"
Tc       0.00000000       0.00000000       0.00000000       0.00000000       0.00000000       0.09318310
Tc       0.00000000       0.00000000       5.52323232       0.00000000       0.00000000      -0.09318310
2
Properties=species:S:1:pos:R:3:forces:R:3 energy=-39.41642761251151 pbc="F F F"
Tc       0.00000000       0.00000000       0.00000000       0.00000000       0.00000000       0.10665699
Tc       0.00000000       0.00000000       5.58282828       0.00000000       0.00000000      -0.10665699
2
Properties=species:S:1:pos:R:3:forces:R:3 energy=-39.40993156055078 pbc="F F F"
Tc       0.00000000       0.00000000       0.00000000       0.00000000       0.00000000       0.10974319
Tc       0.00000000       0.00000000       5.64242424       0.00000000       0.00000000      -0.10974319
2
Properties=species:S:1:pos:R:3:forces:R:3 energy=-39.40325135551669 pbc="F F F"
Tc       0.00000000       0.00000000       0.00000000       0.00000000       0.00000000       0.11797599
Tc       0.00000000       0.00000000       5.70202020       0.00000000       0.00000000      -0.11797599
2
Properties=species:S:1:pos:R:3:forces:R:3 energy=-39.39532411288861 pbc="F F F"
Tc       0.00000000       0.00000000       0.00000000       0.00000000       0.00000000       0.15139508
Tc       0.00000000       0.00000000       5.76161616       0.00000000       0.00000000      -0.15139508
2
Properties=species:S:1:pos:R:3:forces:R:3 energy=-39.38551792498968 pbc="F F F"
Tc       0.00000000       0.00000000       0.00000000       0.00000000       0.00000000       0.16825947
Tc       0.00000000       0.00000000       5.82121212       0.00000000       0.00000000      -0.16825947
2
Properties=species:S:1:pos:R:3:forces:R:3 energy=-39.376717962162 pbc="F F F"
Tc       0.00000000       0.00000000       0.00000000       0.00000000       0.00000000       0.11764444
Tc       0.00000000       0.00000000       5.88080808       0.00000000       0.00000000      -0.11764444
2
Properties=species:S:1:pos:R:3:forces:R:3 energy=-39.37198477261943 pbc="F F F"
Tc       0.00000000       0.00000000       0.00000000       0.00000000       0.00000000       0.04175746
Tc       0.00000000       0.00000000       5.94040404       0.00000000       0.00000000      -0.04175746
2
Properties=species:S:1:pos:R:3:forces:R:3 energy=-39.370823506145896 pbc="F F F"
Tc       0.00000000       0.00000000       0.00000000       0.00000000       0.00000000       0.00839509
Tc       0.00000000       0.00000000       6.00000000       0.00000000       0.00000000      -0.00839509
