2
Properties=species:S:1:pos:R:3:forces:R:3 energy=55043.080781636214 pbc="F F F"
Te       0.00000000       0.00000000       0.00000000       0.00000000       0.00000000 -1086806.62500000
Te       0.00000000       0.00000000       0.10000000       0.00000000       0.00000000 1086806.62500000
2
Properties=species:S:1:pos:R:3:forces:R:3 energy=23448.283906636214 pbc="F F F"
Te       0.00000000       0.00000000       0.00000000       0.00000000       0.00000000 -225756.12500000
Te       0.00000000       0.00000000       0.15959596       0.00000000       0.00000000  225756.12500000
2
Properties=species:S:1:pos:R:3:forces:R:3 energy=16433.703828511214 pbc="F F F"
Te       0.00000000       0.00000000       0.00000000       0.00000000       0.00000000  -44017.72656250
Te       0.00000000       0.00000000       0.21919192       0.00000000       0.00000000   44017.72656250
2
Properties=species:S:1:pos:R:3:forces:R:3 energy=16362.335664448716 pbc="F F F"
Te       0.00000000       0.00000000       0.00000000       0.00000000       0.00000000   35518.07031250
Te       0.00000000       0.00000000       0.27878788       0.00000000       0.00000000  -35518.07031250
2
Properties=species:S:1:pos:R:3:forces:R:3 energy=20262.514375386214 pbc="F F F"
Te       0.00000000       0.00000000       0.00000000       0.00000000       0.00000000   92428.96093750
Te       0.00000000       0.00000000       0.33838384       0.00000000       0.00000000  -92428.96093750
2
Properties=species:S:1:pos:R:3:forces:R:3 energy=26824.457734761214 pbc="F F F"
Te       0.00000000       0.00000000       0.00000000       0.00000000       0.00000000  120538.46093750
Te       0.00000000       0.00000000       0.39797980       0.00000000       0.00000000 -120538.46093750
2
Properties=species:S:1:pos:R:3:forces:R:3 energy=33440.3112503878 pbc="F F F"
Te       0.00000000       0.00000000       0.00000000       0.00000000       0.00000000   89567.90625000
Te       0.00000000       0.00000000       0.45757576       0.00000000       0.00000000  -89567.90625000
2
Properties=species:S:1:pos:R:3:forces:R:3 energy=34932.36203164017 pbc="F F F"
Te       0.00000000       0.00000000       0.00000000       0.00000000       0.00000000 -147450.15625000
Te       0.00000000       0.00000000       0.51717172       0.00000000       0.00000000  147450.15625000
2
Properties=species:S:1:pos:R:3:forces:R:3 energy=24864.237031644134 pbc="F F F"
Te       0.00000000       0.00000000       0.00000000       0.00000000       0.00000000 -192434.64062500
Te       0.00000000       0.00000000       0.57676768       0.00000000       0.00000000  192434.64062500
2
Properties=species:S:1:pos:R:3:forces:R:3 energy=16520.72921915126 pbc="F F F"
Te       0.00000000       0.00000000       0.00000000       0.00000000       0.00000000  -87045.52343750
Te       0.00000000       0.00000000       0.63636364       0.00000000       0.00000000   87045.52343750
2
Properties=species:S:1:pos:R:3:forces:R:3 energy=11365.710664475642 pbc="F F F"
Te       0.00000000       0.00000000       0.00000000       0.00000000       0.00000000 -121995.06250000
Te       0.00000000       0.00000000       0.69595960       0.00000000       0.00000000  121995.06250000
2
Properties=species:S:1:pos:R:3:forces:R:3 energy=7398.41427777273 pbc="F F F"
Te       0.00000000       0.00000000       0.00000000       0.00000000       0.00000000  -55882.18359375
Te       0.00000000       0.00000000       0.75555556       0.00000000       0.00000000   55882.18359375
2
Properties=species:S:1:pos:R:3:forces:R:3 energy=4856.183320766823 pbc="F F F"
Te       0.00000000       0.00000000       0.00000000       0.00000000       0.00000000  -30544.86328125
Te       0.00000000       0.00000000       0.81515152       0.00000000       0.00000000   30544.86328125
2
Properties=species:S:1:pos:R:3:forces:R:3 energy=3237.403779787628 pbc="F F F"
Te       0.00000000       0.00000000       0.00000000       0.00000000       0.00000000  -24939.08789062
Te       0.00000000       0.00000000       0.87474747       0.00000000       0.00000000   24939.08789062
2
Properties=species:S:1:pos:R:3:forces:R:3 energy=1915.2848833539383 pbc="F F F"
Te       0.00000000       0.00000000       0.00000000       0.00000000       0.00000000  -19393.08789062
Te       0.00000000       0.00000000       0.93434343       0.00000000       0.00000000   19393.08789062
2
Properties=species:S:1:pos:R:3:forces:R:3 energy=910.7546710228705 pbc="F F F"
Te       0.00000000       0.00000000       0.00000000       0.00000000       0.00000000  -14381.70800781
Te       0.00000000       0.00000000       0.99393939       0.00000000       0.00000000   14381.70800781
2
Properties=species:S:1:pos:R:3:forces:R:3 energy=160.5782795163427 pbc="F F F"
Te       0.00000000       0.00000000       0.00000000       0.00000000       0.00000000   -6957.91259766
Te       0.00000000       0.00000000       1.05353535       0.00000000       0.00000000    6957.91259766
2
Properties=species:S:1:pos:R:3:forces:R:3 energy=-54.515172809765765 pbc="F F F"
Te       0.00000000       0.00000000       0.00000000       0.00000000       0.00000000     532.44604492
Te       0.00000000       0.00000000       1.11313131       0.00000000       0.00000000    -532.44604492
2
Properties=species:S:1:pos:R:3:forces:R:3 energy=-25.646716757406235 pbc="F F F"
Te       0.00000000       0.00000000       0.00000000       0.00000000       0.00000000     433.15637207
Te       0.00000000       0.00000000       1.17272727       0.00000000       0.00000000    -433.15637207
2
Properties=species:S:1:pos:R:3:forces:R:3 energy=-4.756242220952411 pbc="F F F"
Te       0.00000000       0.00000000       0.00000000       0.00000000       0.00000000     260.02316284
Te       0.00000000       0.00000000       1.23232323       0.00000000       0.00000000    -260.02316284
2
Properties=species:S:1:pos:R:3:forces:R:3 energy=5.519228787498737 pbc="F F F"
Te       0.00000000       0.00000000       0.00000000       0.00000000       0.00000000      95.01372528
Te       0.00000000       0.00000000       1.29191919       0.00000000       0.00000000     -95.01372528
2
Properties=species:S:1:pos:R:3:forces:R:3 energy=6.559859476535346 pbc="F F F"
Te       0.00000000       0.00000000       0.00000000       0.00000000       0.00000000     -35.32470703
Te       0.00000000       0.00000000       1.35151515       0.00000000       0.00000000      35.32470703
2
Properties=species:S:1:pos:R:3:forces:R:3 energy=2.4672657661743314 pbc="F F F"
Te       0.00000000       0.00000000       0.00000000       0.00000000       0.00000000     -84.27117920
Te       0.00000000       0.00000000       1.41111111       0.00000000       0.00000000      84.27117920
2
Properties=species:S:1:pos:R:3:forces:R:3 energy=-3.549228443104644 pbc="F F F"
Te       0.00000000       0.00000000       0.00000000       0.00000000       0.00000000    -116.81051636
Te       0.00000000       0.00000000       1.47070707       0.00000000       0.00000000     116.81051636
2
Properties=species:S:1:pos:R:3:forces:R:3 energy=-11.112574639863006 pbc="F F F"
Te       0.00000000       0.00000000       0.00000000       0.00000000       0.00000000    -130.37261963
Te       0.00000000       0.00000000       1.53030303       0.00000000       0.00000000     130.37261963
2
Properties=species:S:1:pos:R:3:forces:R:3 energy=-18.625986302110608 pbc="F F F"
Te       0.00000000       0.00000000       0.00000000       0.00000000       0.00000000    -121.90149689
Te       0.00000000       0.00000000       1.58989899       0.00000000       0.00000000     121.90149689
2
Properties=species:S:1:pos:R:3:forces:R:3 energy=-25.578524761679603 pbc="F F F"
Te       0.00000000       0.00000000       0.00000000       0.00000000       0.00000000    -108.96662140
Te       0.00000000       0.00000000       1.64949495       0.00000000       0.00000000     108.96662140
2
Properties=species:S:1:pos:R:3:forces:R:3 energy=-31.303207336134932 pbc="F F F"
Te       0.00000000       0.00000000       0.00000000       0.00000000       0.00000000     -81.80525208
Te       0.00000000       0.00000000       1.70909091       0.00000000       0.00000000      81.80525208
2
Properties=species:S:1:pos:R:3:forces:R:3 energy=-35.391287278397805 pbc="F F F"
Te       0.00000000       0.00000000       0.00000000       0.00000000       0.00000000     -57.23064804
Te       0.00000000       0.00000000       1.76868687       0.00000000       0.00000000      57.23064804
2
Properties=species:S:1:pos:R:3:forces:R:3 energy=-38.362618139205466 pbc="F F F"
Te       0.00000000       0.00000000       0.00000000       0.00000000       0.00000000     -44.10870743
Te       0.00000000       0.00000000       1.82828283       0.00000000       0.00000000      44.10870743
2
Properties=species:S:1:pos:R:3:forces:R:3 energy=-40.76977403825891 pbc="F F F"
Te       0.00000000       0.00000000       0.00000000       0.00000000       0.00000000     -37.16593170
Te       0.00000000       0.00000000       1.88787879       0.00000000       0.00000000      37.16593170
2
Properties=species:S:1:pos:R:3:forces:R:3 energy=-42.81525813634628 pbc="F F F"
Te       0.00000000       0.00000000       0.00000000       0.00000000       0.00000000     -31.50447655
Te       0.00000000       0.00000000       1.94747475       0.00000000       0.00000000      31.50447655
2
Properties=species:S:1:pos:R:3:forces:R:3 energy=-44.52359888857625 pbc="F F F"
Te       0.00000000       0.00000000       0.00000000       0.00000000       0.00000000     -25.82191086
Te       0.00000000       0.00000000       2.00707071       0.00000000       0.00000000      25.82191086
2
Properties=species:S:1:pos:R:3:forces:R:3 energy=-45.89598260719373 pbc="F F F"
Te       0.00000000       0.00000000       0.00000000       0.00000000       0.00000000     -20.29088402
Te       0.00000000       0.00000000       2.06666667       0.00000000       0.00000000      20.29088402
2
Properties=species:S:1:pos:R:3:forces:R:3 energy=-46.95224566016721 pbc="F F F"
Te       0.00000000       0.00000000       0.00000000       0.00000000       0.00000000     -15.26704407
Te       0.00000000       0.00000000       2.12626263       0.00000000       0.00000000      15.26704407
2
Properties=species:S:1:pos:R:3:forces:R:3 energy=-47.73131315345477 pbc="F F F"
Te       0.00000000       0.00000000       0.00000000       0.00000000       0.00000000     -11.02612019
Te       0.00000000       0.00000000       2.18585859       0.00000000       0.00000000      11.02612019
2
Properties=species:S:1:pos:R:3:forces:R:3 energy=-48.28533192977738 pbc="F F F"
Te       0.00000000       0.00000000       0.00000000       0.00000000       0.00000000      -7.72796392
Te       0.00000000       0.00000000       2.24545455       0.00000000       0.00000000       7.72796392
2
Properties=species:S:1:pos:R:3:forces:R:3 energy=-48.670644983009076 pbc="F F F"
Te       0.00000000       0.00000000       0.00000000       0.00000000       0.00000000      -5.33803320
Te       0.00000000       0.00000000       2.30505051       0.00000000       0.00000000       5.33803320
2
Properties=species:S:1:pos:R:3:forces:R:3 energy=-48.93441334337682 pbc="F F F"
Te       0.00000000       0.00000000       0.00000000       0.00000000       0.00000000      -3.59219646
Te       0.00000000       0.00000000       2.36464646       0.00000000       0.00000000       3.59219646
2
Properties=species:S:1:pos:R:3:forces:R:3 energy=-49.10530436975691 pbc="F F F"
Te       0.00000000       0.00000000       0.00000000       0.00000000       0.00000000      -2.18129921
Te       0.00000000       0.00000000       2.42424242       0.00000000       0.00000000       2.18129921
2
Properties=species:S:1:pos:R:3:forces:R:3 energy=-49.19873697821405 pbc="F F F"
Te       0.00000000       0.00000000       0.00000000       0.00000000       0.00000000      -0.99609256
Te       0.00000000       0.00000000       2.48383838       0.00000000       0.00000000       0.99609256
2
Properties=species:S:1:pos:R:3:forces:R:3 energy=-49.23039710411812 pbc="F F F"
Te       0.00000000       0.00000000       0.00000000       0.00000000       0.00000000      -0.13110755
Te       0.00000000       0.00000000       2.54343434       0.00000000       0.00000000       0.13110755
2
Properties=species:S:1:pos:R:3:forces:R:3 energy=-49.22278373215536 pbc="F F F"
Te       0.00000000       0.00000000       0.00000000       0.00000000       0.00000000       0.31565550
Te       0.00000000       0.00000000       2.60303030       0.00000000       0.00000000      -0.31565550
2
Properties=species:S:1:pos:R:3:forces:R:3 energy=-49.2001772995477 pbc="F F F"
Te       0.00000000       0.00000000       0.00000000       0.00000000       0.00000000       0.39484578
Te       0.00000000       0.00000000       2.66262626       0.00000000       0.00000000      -0.39484578
2
Properties=species:S:1:pos:R:3:forces:R:3 energy=-49.17909913898336 pbc="F F F"
Te       0.00000000       0.00000000       0.00000000       0.00000000       0.00000000       0.30602333
Te       0.00000000       0.00000000       2.72222222       0.00000000       0.00000000      -0.30602333
2
Properties=species:S:1:pos:R:3:forces:R:3 energy=-49.16187607086652 pbc="F F F"
Te       0.00000000       0.00000000       0.00000000       0.00000000       0.00000000       0.30697253
Te       0.00000000       0.00000000       2.78181818       0.00000000       0.00000000      -0.30697253
2
Properties=species:S:1:pos:R:3:forces:R:3 energy=-49.136754852154816 pbc="F F F"
Te       0.00000000       0.00000000       0.00000000       0.00000000       0.00000000       0.59202343
Te       0.00000000       0.00000000       2.84141414       0.00000000       0.00000000      -0.59202343
2
Properties=species:S:1:pos:R:3:forces:R:3 energy=-49.084898313721474 pbc="F F F"
Te       0.00000000       0.00000000       0.00000000       0.00000000       0.00000000       1.19382918
Te       0.00000000       0.00000000       2.90101010       0.00000000       0.00000000      -1.19382918
2
Properties=species:S:1:pos:R:3:forces:R:3 energy=-48.990784245692275 pbc="F F F"
Te       0.00000000       0.00000000       0.00000000       0.00000000       0.00000000       1.97821033
Te       0.00000000       0.00000000       2.96060606       0.00000000       0.00000000      -1.97821033
2
Properties=species:S:1:pos:R:3:forces:R:3 energy=-48.84953346415494 pbc="F F F"
Te       0.00000000       0.00000000       0.00000000       0.00000000       0.00000000       2.74374533
Te       0.00000000       0.00000000       3.02020202       0.00000000       0.00000000      -2.74374533
2
Properties=species:S:1:pos:R:3:forces:R:3 energy=-48.6670166306021 pbc="F F F"
Te       0.00000000       0.00000000       0.00000000       0.00000000       0.00000000       3.34903717
Te       0.00000000       0.00000000       3.07979798       0.00000000       0.00000000      -3.34903717
2
Properties=species:S:1:pos:R:3:forces:R:3 energy=-48.45425813064045 pbc="F F F"
Te       0.00000000       0.00000000       0.00000000       0.00000000       0.00000000       3.75955129
Te       0.00000000       0.00000000       3.13939394       0.00000000       0.00000000      -3.75955129
2
Properties=species:S:1:pos:R:3:forces:R:3 energy=-48.22251502344315 pbc="F F F"
Te       0.00000000       0.00000000       0.00000000       0.00000000       0.00000000       3.98728466
Te       0.00000000       0.00000000       3.19898990       0.00000000       0.00000000      -3.98728466
2
Properties=species:S:1:pos:R:3:forces:R:3 energy=-47.982765741643625 pbc="F F F"
Te       0.00000000       0.00000000       0.00000000       0.00000000       0.00000000       4.02551270
Te       0.00000000       0.00000000       3.25858586       0.00000000       0.00000000      -4.02551270
2
Properties=species:S:1:pos:R:3:forces:R:3 energy=-47.74665606498138 pbc="F F F"
Te       0.00000000       0.00000000       0.00000000       0.00000000       0.00000000       3.86678696
Te       0.00000000       0.00000000       3.31818182       0.00000000       0.00000000      -3.86678696
2
Properties=species:S:1:pos:R:3:forces:R:3 energy=-47.52506494539369 pbc="F F F"
Te       0.00000000       0.00000000       0.00000000       0.00000000       0.00000000       3.54898405
Te       0.00000000       0.00000000       3.37777778       0.00000000       0.00000000      -3.54898405
2
Properties=species:S:1:pos:R:3:forces:R:3 energy=-47.32532381683233 pbc="F F F"
Te       0.00000000       0.00000000       0.00000000       0.00000000       0.00000000       3.14653277
Te       0.00000000       0.00000000       3.43737374       0.00000000       0.00000000      -3.14653277
2
Properties=species:S:1:pos:R:3:forces:R:3 energy=-47.15033541524241 pbc="F F F"
Te       0.00000000       0.00000000       0.00000000       0.00000000       0.00000000       2.72716165
Te       0.00000000       0.00000000       3.49696970       0.00000000       0.00000000      -2.72716165
2
Properties=species:S:1:pos:R:3:forces:R:3 energy=-46.99981728433974 pbc="F F F"
Te       0.00000000       0.00000000       0.00000000       0.00000000       0.00000000       2.32954288
Te       0.00000000       0.00000000       3.55656566       0.00000000       0.00000000      -2.32954288
2
Properties=species:S:1:pos:R:3:forces:R:3 energy=-46.87192674636307 pbc="F F F"
Te       0.00000000       0.00000000       0.00000000       0.00000000       0.00000000       1.96929741
Te       0.00000000       0.00000000       3.61616162       0.00000000       0.00000000      -1.96929741
2
Properties=species:S:1:pos:R:3:forces:R:3 energy=-46.76424507100192 pbc="F F F"
Te       0.00000000       0.00000000       0.00000000       0.00000000       0.00000000       1.65176046
Te       0.00000000       0.00000000       3.67575758       0.00000000       0.00000000      -1.65176046
2
Properties=species:S:1:pos:R:3:forces:R:3 energy=-46.67416658322916 pbc="F F F"
Te       0.00000000       0.00000000       0.00000000       0.00000000       0.00000000       1.37865114
Te       0.00000000       0.00000000       3.73535354       0.00000000       0.00000000      -1.37865114
2
Properties=species:S:1:pos:R:3:forces:R:3 energy=-46.59905126227902 pbc="F F F"
Te       0.00000000       0.00000000       0.00000000       0.00000000       0.00000000       1.14910471
Te       0.00000000       0.00000000       3.79494949       0.00000000       0.00000000      -1.14910471
2
Properties=species:S:1:pos:R:3:forces:R:3 energy=-46.536407855035414 pbc="F F F"
Te       0.00000000       0.00000000       0.00000000       0.00000000       0.00000000       0.95942378
Te       0.00000000       0.00000000       3.85454545       0.00000000       0.00000000      -0.95942378
2
Properties=species:S:1:pos:R:3:forces:R:3 energy=-46.48401976658537 pbc="F F F"
Te       0.00000000       0.00000000       0.00000000       0.00000000       0.00000000       0.80375332
Te       0.00000000       0.00000000       3.91414141       0.00000000       0.00000000      -0.80375332
2
Properties=species:S:1:pos:R:3:forces:R:3 energy=-46.44006331821016 pbc="F F F"
Te       0.00000000       0.00000000       0.00000000       0.00000000       0.00000000       0.67551261
Te       0.00000000       0.00000000       3.97373737       0.00000000       0.00000000      -0.67551261
2
Properties=species:S:1:pos:R:3:forces:R:3 energy=-46.403081059551546 pbc="F F F"
Te       0.00000000       0.00000000       0.00000000       0.00000000       0.00000000       0.56870300
Te       0.00000000       0.00000000       4.03333333       0.00000000       0.00000000      -0.56870300
2
Properties=species:S:1:pos:R:3:forces:R:3 energy=-46.37194743792037 pbc="F F F"
Te       0.00000000       0.00000000       0.00000000       0.00000000       0.00000000       0.47853997
Te       0.00000000       0.00000000       4.09292929       0.00000000       0.00000000      -0.47853997
2
Properties=species:S:1:pos:R:3:forces:R:3 energy=-46.3457810507559 pbc="F F F"
Te       0.00000000       0.00000000       0.00000000       0.00000000       0.00000000       0.40149647
Te       0.00000000       0.00000000       4.15252525       0.00000000       0.00000000      -0.40149647
2
Properties=species:S:1:pos:R:3:forces:R:3 energy=-46.32388363977203 pbc="F F F"
Te       0.00000000       0.00000000       0.00000000       0.00000000       0.00000000       0.33494845
Te       0.00000000       0.00000000       4.21212121       0.00000000       0.00000000      -0.33494845
2
Properties=species:S:1:pos:R:3:forces:R:3 energy=-46.30569048009382 pbc="F F F"
Te       0.00000000       0.00000000       0.00000000       0.00000000       0.00000000       0.27681163
Te       0.00000000       0.00000000       4.27171717       0.00000000       0.00000000      -0.27681163
2
Properties=species:S:1:pos:R:3:forces:R:3 energy=-46.290758954380784 pbc="F F F"
Te       0.00000000       0.00000000       0.00000000       0.00000000       0.00000000       0.22529034
Te       0.00000000       0.00000000       4.33131313       0.00000000       0.00000000      -0.22529034
2
Properties=species:S:1:pos:R:3:forces:R:3 energy=-46.278738047128044 pbc="F F F"
Te       0.00000000       0.00000000       0.00000000       0.00000000       0.00000000       0.17878671
Te       0.00000000       0.00000000       4.39090909       0.00000000       0.00000000      -0.17878671
2
Properties=species:S:1:pos:R:3:forces:R:3 energy=-46.269375947926335 pbc="F F F"
Te       0.00000000       0.00000000       0.00000000       0.00000000       0.00000000       0.13595840
Te       0.00000000       0.00000000       4.45050505       0.00000000       0.00000000      -0.13595840
2
Properties=species:S:1:pos:R:3:forces:R:3 energy=-46.262481944879084 pbc="F F F"
Te       0.00000000       0.00000000       0.00000000       0.00000000       0.00000000       0.09586214
Te       0.00000000       0.00000000       4.51010101       0.00000000       0.00000000      -0.09586214
2
Properties=species:S:1:pos:R:3:forces:R:3 energy=-46.25790351741189 pbc="F F F"
Te       0.00000000       0.00000000       0.00000000       0.00000000       0.00000000       0.05809483
Te       0.00000000       0.00000000       4.56969697       0.00000000       0.00000000      -0.05809483
2
Properties=species:S:1:pos:R:3:forces:R:3 energy=-46.255507277041374 pbc="F F F"
Te       0.00000000       0.00000000       0.00000000       0.00000000       0.00000000       0.02285415
Te       0.00000000       0.00000000       4.62929293       0.00000000       0.00000000      -0.02285415
2
Properties=species:S:1:pos:R:3:forces:R:3 energy=-46.25511410722629 pbc="F F F"
Te       0.00000000       0.00000000       0.00000000       0.00000000       0.00000000      -0.00912700
Te       0.00000000       0.00000000       4.68888889       0.00000000       0.00000000       0.00912700
2
Properties=species:S:1:pos:R:3:forces:R:3 energy=-46.25650681018501 pbc="F F F"
Te       0.00000000       0.00000000       0.00000000       0.00000000       0.00000000      -0.03679604
Te       0.00000000       0.00000000       4.74848485       0.00000000       0.00000000       0.03679604
2
Properties=species:S:1:pos:R:3:forces:R:3 energy=-46.25939575640521 pbc="F F F"
Te       0.00000000       0.00000000       0.00000000       0.00000000       0.00000000      -0.05906583
Te       0.00000000       0.00000000       4.80808081       0.00000000       0.00000000       0.05906583
2
Properties=species:S:1:pos:R:3:forces:R:3 energy=-46.263426537005095 pbc="F F F"
Te       0.00000000       0.00000000       0.00000000       0.00000000       0.00000000      -0.07512812
Te       0.00000000       0.00000000       4.86767677       0.00000000       0.00000000       0.07512812
2
Properties=species:S:1:pos:R:3:forces:R:3 energy=-46.268218091699104 pbc="F F F"
Te       0.00000000       0.00000000       0.00000000       0.00000000       0.00000000      -0.08464039
Te       0.00000000       0.00000000       4.92727273       0.00000000       0.00000000       0.08464039
2
Properties=species:S:1:pos:R:3:forces:R:3 energy=-46.273385598565454 pbc="F F F"
Te       0.00000000       0.00000000       0.00000000       0.00000000       0.00000000      -0.08781856
Te       0.00000000       0.00000000       4.98686869       0.00000000       0.00000000       0.08781856
2
Properties=species:S:1:pos:R:3:forces:R:3 energy=-46.27857481344909 pbc="F F F"
Te       0.00000000       0.00000000       0.00000000       0.00000000       0.00000000      -0.08536033
Te       0.00000000       0.00000000       5.04646465       0.00000000       0.00000000       0.08536033
2
Properties=species:S:1:pos:R:3:forces:R:3 energy=-46.28346967084585 pbc="F F F"
Te       0.00000000       0.00000000       0.00000000       0.00000000       0.00000000      -0.07829933
Te       0.00000000       0.00000000       5.10606061       0.00000000       0.00000000       0.07829933
2
Properties=species:S:1:pos:R:3:forces:R:3 energy=-46.28783808165241 pbc="F F F"
Te       0.00000000       0.00000000       0.00000000       0.00000000       0.00000000      -0.06777059
Te       0.00000000       0.00000000       5.16565657       0.00000000       0.00000000       0.06777059
2
Properties=species:S:1:pos:R:3:forces:R:3 energy=-46.29149758109207 pbc="F F F"
Te       0.00000000       0.00000000       0.00000000       0.00000000       0.00000000      -0.05471316
Te       0.00000000       0.00000000       5.22525253       0.00000000       0.00000000       0.05471316
2
Properties=species:S:1:pos:R:3:forces:R:3 energy=-46.29431912282109 pbc="F F F"
Te       0.00000000       0.00000000       0.00000000       0.00000000       0.00000000      -0.03961330
Te       0.00000000       0.00000000       5.28484848       0.00000000       0.00000000       0.03961330
2
Properties=species:S:1:pos:R:3:forces:R:3 energy=-46.2961927751638 pbc="F F F"
Te       0.00000000       0.00000000       0.00000000       0.00000000       0.00000000      -0.02321406
Te       0.00000000       0.00000000       5.34444444       0.00000000       0.00000000       0.02321406
2
Properties=species:S:1:pos:R:3:forces:R:3 energy=-46.29713829664806 pbc="F F F"
Te       0.00000000       0.00000000       0.00000000       0.00000000       0.00000000      -0.00983695
Te       0.00000000       0.00000000       5.40404040       0.00000000       0.00000000       0.00983695
2
Properties=species:S:1:pos:R:3:forces:R:3 energy=-46.29762177488528 pbc="F F F"
Te       0.00000000       0.00000000       0.00000000       0.00000000       0.00000000      -0.00900442
Te       0.00000000       0.00000000       5.46363636       0.00000000       0.00000000       0.00900442
2
Properties=species:S:1:pos:R:3:forces:R:3 energy=-46.298444982134725 pbc="F F F"
Te       0.00000000       0.00000000       0.00000000       0.00000000       0.00000000      -0.01882349
Te       0.00000000       0.00000000       5.52323232       0.00000000       0.00000000       0.01882349
2
Properties=species:S:1:pos:R:3:forces:R:3 energy=-46.29962766900473 pbc="F F F"
Te       0.00000000       0.00000000       0.00000000       0.00000000       0.00000000      -0.01778973
Te       0.00000000       0.00000000       5.58282828       0.00000000       0.00000000       0.01778973
2
Properties=species:S:1:pos:R:3:forces:R:3 energy=-46.30031598677165 pbc="F F F"
Te       0.00000000       0.00000000       0.00000000       0.00000000       0.00000000      -0.00502843
Te       0.00000000       0.00000000       5.64242424       0.00000000       0.00000000       0.00502843
2
Properties=species:S:1:pos:R:3:forces:R:3 energy=-46.300464779565466 pbc="F F F"
Te       0.00000000       0.00000000       0.00000000       0.00000000       0.00000000      -0.00359736
Te       0.00000000       0.00000000       5.70202020       0.00000000       0.00000000       0.00359736
2
Properties=species:S:1:pos:R:3:forces:R:3 energy=-46.3011503760823 pbc="F F F"
Te       0.00000000       0.00000000       0.00000000       0.00000000       0.00000000      -0.02114278
Te       0.00000000       0.00000000       5.76161616       0.00000000       0.00000000       0.02114278
2
Properties=species:S:1:pos:R:3:forces:R:3 energy=-46.30282726501444 pbc="F F F"
Te       0.00000000       0.00000000       0.00000000       0.00000000       0.00000000      -0.03141800
Te       0.00000000       0.00000000       5.82121212       0.00000000       0.00000000       0.03141800
2
Properties=species:S:1:pos:R:3:forces:R:3 energy=-46.30443164713266 pbc="F F F"
Te       0.00000000       0.00000000       0.00000000       0.00000000       0.00000000      -0.01996122
Te       0.00000000       0.00000000       5.88080808       0.00000000       0.00000000       0.01996122
2
Properties=species:S:1:pos:R:3:forces:R:3 energy=-46.305113290025716 pbc="F F F"
Te       0.00000000       0.00000000       0.00000000       0.00000000       0.00000000      -0.00332740
Te       0.00000000       0.00000000       5.94040404       0.00000000       0.00000000       0.00332740
2
Properties=species:S:1:pos:R:3:forces:R:3 energy=-46.305036629573365 pbc="F F F"
Te       0.00000000       0.00000000       0.00000000       0.00000000       0.00000000       0.00354978
Te       0.00000000       0.00000000       6.00000000       0.00000000       0.00000000      -0.00354978
