2
Properties=species:S:1:pos:R:3:forces:R:3 energy=-177292.09039696323 pbc="F F F"
Tm       0.00000000       0.00000000       0.00000000       0.00000000       0.00000000 -1745349.25000000
Tm       0.00000000       0.00000000       0.10000000       0.00000000       0.00000000 1745349.25000000
2
Properties=species:S:1:pos:R:3:forces:R:3 energy=-227240.54352196323 pbc="F F F"
Tm       0.00000000       0.00000000       0.00000000       0.00000000       0.00000000 -348812.68750000
Tm       0.00000000       0.00000000       0.15959596       0.00000000       0.00000000  348812.68750000
2
Properties=species:S:1:pos:R:3:forces:R:3 energy=-237933.26227196323 pbc="F F F"
Tm       0.00000000       0.00000000       0.00000000       0.00000000       0.00000000  -64535.85546875
Tm       0.00000000       0.00000000       0.21919192       0.00000000       0.00000000   64535.85546875
2
Properties=species:S:1:pos:R:3:forces:R:3 energy=-237708.51227196323 pbc="F F F"
Tm       0.00000000       0.00000000       0.00000000       0.00000000       0.00000000   64795.46093750
Tm       0.00000000       0.00000000       0.27878788       0.00000000       0.00000000  -64795.46093750
2
Properties=species:S:1:pos:R:3:forces:R:3 energy=-230308.07477196323 pbc="F F F"
Tm       0.00000000       0.00000000       0.00000000       0.00000000       0.00000000  186511.59375000
Tm       0.00000000       0.00000000       0.33838384       0.00000000       0.00000000 -186511.59375000
2
Properties=species:S:1:pos:R:3:forces:R:3 energy=-214980.93414696323 pbc="F F F"
Tm       0.00000000       0.00000000       0.00000000       0.00000000       0.00000000  331576.68750000
Tm       0.00000000       0.00000000       0.39797980       0.00000000       0.00000000 -331576.68750000
2
Properties=species:S:1:pos:R:3:forces:R:3 energy=-190383.69977196323 pbc="F F F"
Tm       0.00000000       0.00000000       0.00000000       0.00000000       0.00000000  494702.21875000
Tm       0.00000000       0.00000000       0.45757576       0.00000000       0.00000000 -494702.21875000
2
Properties=species:S:1:pos:R:3:forces:R:3 energy=-156342.49664696323 pbc="F F F"
Tm       0.00000000       0.00000000       0.00000000       0.00000000       0.00000000  640752.12500000
Tm       0.00000000       0.00000000       0.51717172       0.00000000       0.00000000 -640752.12500000
2
Properties=species:S:1:pos:R:3:forces:R:3 energy=-115439.7622719569 pbc="F F F"
Tm       0.00000000       0.00000000       0.00000000       0.00000000       0.00000000  715178.62500000
Tm       0.00000000       0.00000000       0.57676768       0.00000000       0.00000000 -715178.62500000
2
Properties=species:S:1:pos:R:3:forces:R:3 energy=-73517.28570945375 pbc="F F F"
Tm       0.00000000       0.00000000       0.00000000       0.00000000       0.00000000  669518.50000000
Tm       0.00000000       0.00000000       0.63636364       0.00000000       0.00000000 -669518.50000000
2
Properties=species:S:1:pos:R:3:forces:R:3 energy=-38111.090396950574 pbc="F F F"
Tm       0.00000000       0.00000000       0.00000000       0.00000000       0.00000000  502002.62500000
Tm       0.00000000       0.00000000       0.69595960       0.00000000       0.00000000 -502002.62500000
2
Properties=species:S:1:pos:R:3:forces:R:3 energy=-14785.464420375401 pbc="F F F"
Tm       0.00000000       0.00000000       0.00000000       0.00000000       0.00000000  280252.15625000
Tm       0.00000000       0.00000000       0.75555556       0.00000000       0.00000000 -280252.15625000
2
Properties=species:S:1:pos:R:3:forces:R:3 energy=-3776.132144972105 pbc="F F F"
Tm       0.00000000       0.00000000       0.00000000       0.00000000       0.00000000  103441.35156250
Tm       0.00000000       0.00000000       0.81515152       0.00000000       0.00000000 -103441.35156250
2
Properties=species:S:1:pos:R:3:forces:R:3 energy=-531.5553627201999 pbc="F F F"
Tm       0.00000000       0.00000000       0.00000000       0.00000000       0.00000000   20389.27539062
Tm       0.00000000       0.00000000       0.87474747       0.00000000       0.00000000  -20389.27539062
2
Properties=species:S:1:pos:R:3:forces:R:3 energy=-46.594635003206996 pbc="F F F"
Tm       0.00000000       0.00000000       0.00000000       0.00000000       0.00000000    1327.04602051
Tm       0.00000000       0.00000000       0.93434343       0.00000000       0.00000000   -1327.04602051
2
Properties=species:S:1:pos:R:3:forces:R:3 energy=-30.78361506139655 pbc="F F F"
Tm       0.00000000       0.00000000       0.00000000       0.00000000       0.00000000     280.15768433
Tm       0.00000000       0.00000000       0.99393939       0.00000000       0.00000000    -280.15768433
2
Properties=species:S:1:pos:R:3:forces:R:3 energy=-36.72577656760217 pbc="F F F"
Tm       0.00000000       0.00000000       0.00000000       0.00000000       0.00000000    -117.66728973
Tm       0.00000000       0.00000000       1.05353535       0.00000000       0.00000000     117.66728973
2
Properties=species:S:1:pos:R:3:forces:R:3 energy=-43.15991574645124 pbc="F F F"
Tm       0.00000000       0.00000000       0.00000000       0.00000000       0.00000000     -97.90166473
Tm       0.00000000       0.00000000       1.11313131       0.00000000       0.00000000      97.90166473
2
Properties=species:S:1:pos:R:3:forces:R:3 energy=-48.41548510942439 pbc="F F F"
Tm       0.00000000       0.00000000       0.00000000       0.00000000       0.00000000     -78.24932098
Tm       0.00000000       0.00000000       1.17272727       0.00000000       0.00000000      78.24932098
2
Properties=species:S:1:pos:R:3:forces:R:3 energy=-52.42084844706697 pbc="F F F"
Tm       0.00000000       0.00000000       0.00000000       0.00000000       0.00000000     -56.37033463
Tm       0.00000000       0.00000000       1.23232323       0.00000000       0.00000000      56.37033463
2
Properties=species:S:1:pos:R:3:forces:R:3 energy=-55.262259879252035 pbc="F F F"
Tm       0.00000000       0.00000000       0.00000000       0.00000000       0.00000000     -40.29864120
Tm       0.00000000       0.00000000       1.29191919       0.00000000       0.00000000      40.29864120
2
Properties=species:S:1:pos:R:3:forces:R:3 energy=-57.341181948239935 pbc="F F F"
Tm       0.00000000       0.00000000       0.00000000       0.00000000       0.00000000     -30.12454796
Tm       0.00000000       0.00000000       1.35151515       0.00000000       0.00000000      30.12454796
2
Properties=species:S:1:pos:R:3:forces:R:3 energy=-58.91247838987652 pbc="F F F"
Tm       0.00000000       0.00000000       0.00000000       0.00000000       0.00000000     -23.02637863
Tm       0.00000000       0.00000000       1.41111111       0.00000000       0.00000000      23.02637863
2
Properties=species:S:1:pos:R:3:forces:R:3 energy=-60.12921010140861 pbc="F F F"
Tm       0.00000000       0.00000000       0.00000000       0.00000000       0.00000000     -18.10906410
Tm       0.00000000       0.00000000       1.47070707       0.00000000       0.00000000      18.10906410
2
Properties=species:S:1:pos:R:3:forces:R:3 energy=-61.09843655209251 pbc="F F F"
Tm       0.00000000       0.00000000       0.00000000       0.00000000       0.00000000     -14.57497787
Tm       0.00000000       0.00000000       1.53030303       0.00000000       0.00000000      14.57497787
2
Properties=species:S:1:pos:R:3:forces:R:3 energy=-61.877835955081004 pbc="F F F"
Tm       0.00000000       0.00000000       0.00000000       0.00000000       0.00000000     -11.63312912
Tm       0.00000000       0.00000000       1.58989899       0.00000000       0.00000000      11.63312912
2
Properties=species:S:1:pos:R:3:forces:R:3 energy=-62.490620724228485 pbc="F F F"
Tm       0.00000000       0.00000000       0.00000000       0.00000000       0.00000000      -9.00126553
Tm       0.00000000       0.00000000       1.64949495       0.00000000       0.00000000       9.00126553
2
Properties=species:S:1:pos:R:3:forces:R:3 energy=-62.96422614959804 pbc="F F F"
Tm       0.00000000       0.00000000       0.00000000       0.00000000       0.00000000      -7.04309988
Tm       0.00000000       0.00000000       1.70909091       0.00000000       0.00000000       7.04309988
2
Properties=species:S:1:pos:R:3:forces:R:3 energy=-63.34812119998772 pbc="F F F"
Tm       0.00000000       0.00000000       0.00000000       0.00000000       0.00000000      -5.96183634
Tm       0.00000000       0.00000000       1.76868687       0.00000000       0.00000000       5.96183634
2
Properties=species:S:1:pos:R:3:forces:R:3 energy=-63.68243266326334 pbc="F F F"
Tm       0.00000000       0.00000000       0.00000000       0.00000000       0.00000000      -5.26148891
Tm       0.00000000       0.00000000       1.82828283       0.00000000       0.00000000       5.26148891
2
Properties=species:S:1:pos:R:3:forces:R:3 energy=-63.97080736150045 pbc="F F F"
Tm       0.00000000       0.00000000       0.00000000       0.00000000       0.00000000      -4.35746384
Tm       0.00000000       0.00000000       1.88787879       0.00000000       0.00000000       4.35746384
2
Properties=species:S:1:pos:R:3:forces:R:3 energy=-64.195964693911 pbc="F F F"
Tm       0.00000000       0.00000000       0.00000000       0.00000000       0.00000000      -3.17606616
Tm       0.00000000       0.00000000       1.94747475       0.00000000       0.00000000       3.17606616
2
Properties=species:S:1:pos:R:3:forces:R:3 energy=-64.35144252848097 pbc="F F F"
Tm       0.00000000       0.00000000       0.00000000       0.00000000       0.00000000      -2.09833288
Tm       0.00000000       0.00000000       2.00707071       0.00000000       0.00000000       2.09833288
2
Properties=species:S:1:pos:R:3:forces:R:3 energy=-64.45597100027422 pbc="F F F"
Tm       0.00000000       0.00000000       0.00000000       0.00000000       0.00000000      -1.50562990
Tm       0.00000000       0.00000000       2.06666667       0.00000000       0.00000000       1.50562990
2
Properties=species:S:1:pos:R:3:forces:R:3 energy=-64.54158590524919 pbc="F F F"
Tm       0.00000000       0.00000000       0.00000000       0.00000000       0.00000000      -1.44200492
Tm       0.00000000       0.00000000       2.12626263       0.00000000       0.00000000       1.44200492
2
Properties=species:S:1:pos:R:3:forces:R:3 energy=-64.63421188167361 pbc="F F F"
Tm       0.00000000       0.00000000       0.00000000       0.00000000       0.00000000      -1.69965577
Tm       0.00000000       0.00000000       2.18585859       0.00000000       0.00000000       1.69965577
2
Properties=species:S:1:pos:R:3:forces:R:3 energy=-64.74626191010027 pbc="F F F"
Tm       0.00000000       0.00000000       0.00000000       0.00000000       0.00000000      -2.06561208
Tm       0.00000000       0.00000000       2.24545455       0.00000000       0.00000000       2.06561208
2
Properties=species:S:1:pos:R:3:forces:R:3 energy=-64.88001713514454 pbc="F F F"
Tm       0.00000000       0.00000000       0.00000000       0.00000000       0.00000000      -2.41357899
Tm       0.00000000       0.00000000       2.30505051       0.00000000       0.00000000       2.41357899
2
Properties=species:S:1:pos:R:3:forces:R:3 energy=-65.03234182813672 pbc="F F F"
Tm       0.00000000       0.00000000       0.00000000       0.00000000       0.00000000      -2.68242478
Tm       0.00000000       0.00000000       2.36464646       0.00000000       0.00000000       2.68242478
2
Properties=species:S:1:pos:R:3:forces:R:3 energy=-65.19771224724758 pbc="F F F"
Tm       0.00000000       0.00000000       0.00000000       0.00000000       0.00000000      -2.84988785
Tm       0.00000000       0.00000000       2.42424242       0.00000000       0.00000000       2.84988785
2
Properties=species:S:1:pos:R:3:forces:R:3 energy=-65.36994852271816 pbc="F F F"
Tm       0.00000000       0.00000000       0.00000000       0.00000000       0.00000000      -2.91273069
Tm       0.00000000       0.00000000       2.48383838       0.00000000       0.00000000       2.91273069
2
Properties=species:S:1:pos:R:3:forces:R:3 energy=-65.54280974329767 pbc="F F F"
Tm       0.00000000       0.00000000       0.00000000       0.00000000       0.00000000      -2.87117887
Tm       0.00000000       0.00000000       2.54343434       0.00000000       0.00000000       2.87117887
2
Properties=species:S:1:pos:R:3:forces:R:3 energy=-65.71013127900929 pbc="F F F"
Tm       0.00000000       0.00000000       0.00000000       0.00000000       0.00000000      -2.72765350
Tm       0.00000000       0.00000000       2.60303030       0.00000000       0.00000000       2.72765350
2
Properties=species:S:1:pos:R:3:forces:R:3 energy=-65.86615287045764 pbc="F F F"
Tm       0.00000000       0.00000000       0.00000000       0.00000000       0.00000000      -2.49540615
Tm       0.00000000       0.00000000       2.66262626       0.00000000       0.00000000       2.49540615
2
Properties=species:S:1:pos:R:3:forces:R:3 energy=-66.00636545677577 pbc="F F F"
Tm       0.00000000       0.00000000       0.00000000       0.00000000       0.00000000      -2.20318651
Tm       0.00000000       0.00000000       2.72222222       0.00000000       0.00000000       2.20318651
2
Properties=species:S:1:pos:R:3:forces:R:3 energy=-66.12834279863587 pbc="F F F"
Tm       0.00000000       0.00000000       0.00000000       0.00000000       0.00000000      -1.89022458
Tm       0.00000000       0.00000000       2.78181818       0.00000000       0.00000000       1.89022458
2
Properties=species:S:1:pos:R:3:forces:R:3 energy=-66.23203138890592 pbc="F F F"
Tm       0.00000000       0.00000000       0.00000000       0.00000000       0.00000000      -1.59538722
Tm       0.00000000       0.00000000       2.84141414       0.00000000       0.00000000       1.59538722
2
Properties=species:S:1:pos:R:3:forces:R:3 energy=-66.31943766331298 pbc="F F F"
Tm       0.00000000       0.00000000       0.00000000       0.00000000       0.00000000      -1.34703636
Tm       0.00000000       0.00000000       2.90101010       0.00000000       0.00000000       1.34703636
2
Properties=species:S:1:pos:R:3:forces:R:3 energy=-66.39377347657746 pbc="F F F"
Tm       0.00000000       0.00000000       0.00000000       0.00000000       0.00000000      -1.15757632
Tm       0.00000000       0.00000000       2.96060606       0.00000000       0.00000000       1.15757632
2
Properties=species:S:1:pos:R:3:forces:R:3 energy=-66.4585177153962 pbc="F F F"
Tm       0.00000000       0.00000000       0.00000000       0.00000000       0.00000000      -1.02352405
Tm       0.00000000       0.00000000       3.02020202       0.00000000       0.00000000       1.02352405
2
Properties=species:S:1:pos:R:3:forces:R:3 energy=-66.51656179675147 pbc="F F F"
Tm       0.00000000       0.00000000       0.00000000       0.00000000       0.00000000      -0.92941415
Tm       0.00000000       0.00000000       3.07979798       0.00000000       0.00000000       0.92941415
2
Properties=species:S:1:pos:R:3:forces:R:3 energy=-66.56966032932999 pbc="F F F"
Tm       0.00000000       0.00000000       0.00000000       0.00000000       0.00000000      -0.85368538
Tm       0.00000000       0.00000000       3.13939394       0.00000000       0.00000000       0.85368538
2
Properties=species:S:1:pos:R:3:forces:R:3 energy=-66.61824804606806 pbc="F F F"
Tm       0.00000000       0.00000000       0.00000000       0.00000000       0.00000000      -0.77492040
Tm       0.00000000       0.00000000       3.19898990       0.00000000       0.00000000       0.77492040
2
Properties=species:S:1:pos:R:3:forces:R:3 energy=-66.66163050733657 pbc="F F F"
Tm       0.00000000       0.00000000       0.00000000       0.00000000       0.00000000      -0.67666399
Tm       0.00000000       0.00000000       3.25858586       0.00000000       0.00000000       0.67666399
2
Properties=species:S:1:pos:R:3:forces:R:3 energy=-66.69832743319843 pbc="F F F"
Tm       0.00000000       0.00000000       0.00000000       0.00000000       0.00000000      -0.54941100
Tm       0.00000000       0.00000000       3.31818182       0.00000000       0.00000000       0.54941100
2
Properties=species:S:1:pos:R:3:forces:R:3 energy=-66.72646943825978 pbc="F F F"
Tm       0.00000000       0.00000000       0.00000000       0.00000000       0.00000000      -0.38977107
Tm       0.00000000       0.00000000       3.37777778       0.00000000       0.00000000       0.38977107
2
Properties=species:S:1:pos:R:3:forces:R:3 energy=-66.74415659737392 pbc="F F F"
Tm       0.00000000       0.00000000       0.00000000       0.00000000       0.00000000      -0.19878244
Tm       0.00000000       0.00000000       3.43737374       0.00000000       0.00000000       0.19878244
2
Properties=species:S:1:pos:R:3:forces:R:3 energy=-66.74964157645256 pbc="F F F"
Tm       0.00000000       0.00000000       0.00000000       0.00000000       0.00000000       0.01848470
Tm       0.00000000       0.00000000       3.49696970       0.00000000       0.00000000      -0.01848470
2
Properties=species:S:1:pos:R:3:forces:R:3 energy=-66.74163479874368 pbc="F F F"
Tm       0.00000000       0.00000000       0.00000000       0.00000000       0.00000000       0.25150490
Tm       0.00000000       0.00000000       3.55656566       0.00000000       0.00000000      -0.25150490
2
Properties=species:S:1:pos:R:3:forces:R:3 energy=-66.71969353761688 pbc="F F F"
Tm       0.00000000       0.00000000       0.00000000       0.00000000       0.00000000       0.48271027
Tm       0.00000000       0.00000000       3.61616162       0.00000000       0.00000000      -0.48271027
2
Properties=species:S:1:pos:R:3:forces:R:3 energy=-66.68460338629008 pbc="F F F"
Tm       0.00000000       0.00000000       0.00000000       0.00000000       0.00000000       0.68852264
Tm       0.00000000       0.00000000       3.67575758       0.00000000       0.00000000      -0.68852264
2
Properties=species:S:1:pos:R:3:forces:R:3 energy=-66.63862240162219 pbc="F F F"
Tm       0.00000000       0.00000000       0.00000000       0.00000000       0.00000000       0.84473050
Tm       0.00000000       0.00000000       3.73535354       0.00000000       0.00000000      -0.84473050
2
Properties=species:S:1:pos:R:3:forces:R:3 energy=-66.58524458971496 pbc="F F F"
Tm       0.00000000       0.00000000       0.00000000       0.00000000       0.00000000       0.93461597
Tm       0.00000000       0.00000000       3.79494949       0.00000000       0.00000000      -0.93461597
2
Properties=species:S:1:pos:R:3:forces:R:3 energy=-66.52861243936613 pbc="F F F"
Tm       0.00000000       0.00000000       0.00000000       0.00000000       0.00000000       0.95495892
Tm       0.00000000       0.00000000       3.85454545       0.00000000       0.00000000      -0.95495892
2
Properties=species:S:1:pos:R:3:forces:R:3 energy=-66.47260903045594 pbc="F F F"
Tm       0.00000000       0.00000000       0.00000000       0.00000000       0.00000000       0.91602296
Tm       0.00000000       0.00000000       3.91414141       0.00000000       0.00000000      -0.91602296
2
Properties=species:S:1:pos:R:3:forces:R:3 energy=-66.42024005299007 pbc="F F F"
Tm       0.00000000       0.00000000       0.00000000       0.00000000       0.00000000       0.83627951
Tm       0.00000000       0.00000000       3.97373737       0.00000000       0.00000000      -0.83627951
2
Properties=species:S:1:pos:R:3:forces:R:3 energy=-66.37333625120945 pbc="F F F"
Tm       0.00000000       0.00000000       0.00000000       0.00000000       0.00000000       0.73591912
Tm       0.00000000       0.00000000       4.03333333       0.00000000       0.00000000      -0.73591912
2
Properties=species:S:1:pos:R:3:forces:R:3 energy=-66.33258396017533 pbc="F F F"
Tm       0.00000000       0.00000000       0.00000000       0.00000000       0.00000000       0.63225192
Tm       0.00000000       0.00000000       4.09292929       0.00000000       0.00000000      -0.63225192
2
Properties=species:S:1:pos:R:3:forces:R:3 energy=-66.2977921155709 pbc="F F F"
Tm       0.00000000       0.00000000       0.00000000       0.00000000       0.00000000       0.53767455
Tm       0.00000000       0.00000000       4.15252525       0.00000000       0.00000000      -0.53767455
2
Properties=species:S:1:pos:R:3:forces:R:3 energy=-66.26817455397033 pbc="F F F"
Tm       0.00000000       0.00000000       0.00000000       0.00000000       0.00000000       0.45943356
Tm       0.00000000       0.00000000       4.21212121       0.00000000       0.00000000      -0.45943356
2
Properties=species:S:1:pos:R:3:forces:R:3 energy=-66.24264755922535 pbc="F F F"
Tm       0.00000000       0.00000000       0.00000000       0.00000000       0.00000000       0.40042448
Tm       0.00000000       0.00000000       4.27171717       0.00000000       0.00000000      -0.40042448
2
Properties=species:S:1:pos:R:3:forces:R:3 energy=-66.22006637052803 pbc="F F F"
Tm       0.00000000       0.00000000       0.00000000       0.00000000       0.00000000       0.36051723
Tm       0.00000000       0.00000000       4.33131313       0.00000000       0.00000000      -0.36051723
2
Properties=species:S:1:pos:R:3:forces:R:3 energy=-66.19933199710198 pbc="F F F"
Tm       0.00000000       0.00000000       0.00000000       0.00000000       0.00000000       0.33794141
Tm       0.00000000       0.00000000       4.39090909       0.00000000       0.00000000      -0.33794141
2
Properties=species:S:1:pos:R:3:forces:R:3 energy=-66.17948277727236 pbc="F F F"
Tm       0.00000000       0.00000000       0.00000000       0.00000000       0.00000000       0.33047932
Tm       0.00000000       0.00000000       4.45050505       0.00000000       0.00000000      -0.33047932
2
Properties=species:S:1:pos:R:3:forces:R:3 energy=-66.15967911492507 pbc="F F F"
Tm       0.00000000       0.00000000       0.00000000       0.00000000       0.00000000       0.33610964
Tm       0.00000000       0.00000000       4.51010101       0.00000000       0.00000000      -0.33610964
2
Properties=species:S:1:pos:R:3:forces:R:3 energy=-66.13919584852839 pbc="F F F"
Tm       0.00000000       0.00000000       0.00000000       0.00000000       0.00000000       0.35298133
Tm       0.00000000       0.00000000       4.56969697       0.00000000       0.00000000      -0.35298133
2
Properties=species:S:1:pos:R:3:forces:R:3 energy=-66.11742989636652 pbc="F F F"
Tm       0.00000000       0.00000000       0.00000000       0.00000000       0.00000000       0.37878066
Tm       0.00000000       0.00000000       4.62929293       0.00000000       0.00000000      -0.37878066
2
Properties=species:S:1:pos:R:3:forces:R:3 energy=-66.09394602498728 pbc="F F F"
Tm       0.00000000       0.00000000       0.00000000       0.00000000       0.00000000       0.40991467
Tm       0.00000000       0.00000000       4.68888889       0.00000000       0.00000000      -0.40991467
2
Properties=species:S:1:pos:R:3:forces:R:3 energy=-66.06856840510429 pbc="F F F"
Tm       0.00000000       0.00000000       0.00000000       0.00000000       0.00000000       0.44104308
Tm       0.00000000       0.00000000       4.74848485       0.00000000       0.00000000      -0.44104308
2
Properties=species:S:1:pos:R:3:forces:R:3 energy=-66.0415103128879 pbc="F F F"
Tm       0.00000000       0.00000000       0.00000000       0.00000000       0.00000000       0.46551859
Tm       0.00000000       0.00000000       4.80808081       0.00000000       0.00000000      -0.46551859
2
Properties=species:S:1:pos:R:3:forces:R:3 energy=-66.01335125445286 pbc="F F F"
Tm       0.00000000       0.00000000       0.00000000       0.00000000       0.00000000       0.47680071
Tm       0.00000000       0.00000000       4.86767677       0.00000000       0.00000000      -0.47680071
2
Properties=species:S:1:pos:R:3:forces:R:3 energy=-65.98502932537652 pbc="F F F"
Tm       0.00000000       0.00000000       0.00000000       0.00000000       0.00000000       0.47032765
Tm       0.00000000       0.00000000       4.92727273       0.00000000       0.00000000      -0.47032765
2
Properties=species:S:1:pos:R:3:forces:R:3 energy=-65.95766575521532 pbc="F F F"
Tm       0.00000000       0.00000000       0.00000000       0.00000000       0.00000000       0.44505963
Tm       0.00000000       0.00000000       4.98686869       0.00000000       0.00000000      -0.44505963
2
Properties=species:S:1:pos:R:3:forces:R:3 energy=-65.93230550175515 pbc="F F F"
Tm       0.00000000       0.00000000       0.00000000       0.00000000       0.00000000       0.40402219
Tm       0.00000000       0.00000000       5.04646465       0.00000000       0.00000000      -0.40402219
2
Properties=species:S:1:pos:R:3:forces:R:3 energy=-65.90970361846102 pbc="F F F"
Tm       0.00000000       0.00000000       0.00000000       0.00000000       0.00000000       0.35340893
Tm       0.00000000       0.00000000       5.10606061       0.00000000       0.00000000      -0.35340893
2
Properties=species:S:1:pos:R:3:forces:R:3 energy=-65.89021848096746 pbc="F F F"
Tm       0.00000000       0.00000000       0.00000000       0.00000000       0.00000000       0.30076486
Tm       0.00000000       0.00000000       5.16565657       0.00000000       0.00000000      -0.30076486
2
Properties=species:S:1:pos:R:3:forces:R:3 energy=-65.87375835597423 pbc="F F F"
Tm       0.00000000       0.00000000       0.00000000       0.00000000       0.00000000       0.25252658
Tm       0.00000000       0.00000000       5.22525253       0.00000000       0.00000000      -0.25252658
2
Properties=species:S:1:pos:R:3:forces:R:3 energy=-65.85996451621854 pbc="F F F"
Tm       0.00000000       0.00000000       0.00000000       0.00000000       0.00000000       0.21187392
Tm       0.00000000       0.00000000       5.28484848       0.00000000       0.00000000      -0.21187392
2
Properties=species:S:1:pos:R:3:forces:R:3 energy=-65.84835621797808 pbc="F F F"
Tm       0.00000000       0.00000000       0.00000000       0.00000000       0.00000000       0.17875366
Tm       0.00000000       0.00000000       5.34444444       0.00000000       0.00000000      -0.17875366
2
Properties=species:S:1:pos:R:3:forces:R:3 energy=-65.83848327312253 pbc="F F F"
Tm       0.00000000       0.00000000       0.00000000       0.00000000       0.00000000       0.15476525
Tm       0.00000000       0.00000000       5.40404040       0.00000000       0.00000000      -0.15476525
2
Properties=species:S:1:pos:R:3:forces:R:3 energy=-65.82957511597206 pbc="F F F"
Tm       0.00000000       0.00000000       0.00000000       0.00000000       0.00000000       0.14719960
Tm       0.00000000       0.00000000       5.46363636       0.00000000       0.00000000      -0.14719960
2
Properties=species:S:1:pos:R:3:forces:R:3 energy=-65.82064761165293 pbc="F F F"
Tm       0.00000000       0.00000000       0.00000000       0.00000000       0.00000000       0.15342838
Tm       0.00000000       0.00000000       5.52323232       0.00000000       0.00000000      -0.15342838
2
Properties=species:S:1:pos:R:3:forces:R:3 energy=-65.8114414779605 pbc="F F F"
Tm       0.00000000       0.00000000       0.00000000       0.00000000       0.00000000       0.15296757
Tm       0.00000000       0.00000000       5.58282828       0.00000000       0.00000000      -0.15296757
2
Properties=species:S:1:pos:R:3:forces:R:3 energy=-65.80268167843764 pbc="F F F"
Tm       0.00000000       0.00000000       0.00000000       0.00000000       0.00000000       0.14004833
Tm       0.00000000       0.00000000       5.64242424       0.00000000       0.00000000      -0.14004833
2
Properties=species:S:1:pos:R:3:forces:R:3 energy=-65.7946431057063 pbc="F F F"
Tm       0.00000000       0.00000000       0.00000000       0.00000000       0.00000000       0.13213137
Tm       0.00000000       0.00000000       5.70202020       0.00000000       0.00000000      -0.13213137
2
Properties=species:S:1:pos:R:3:forces:R:3 energy=-65.78664705093196 pbc="F F F"
Tm       0.00000000       0.00000000       0.00000000       0.00000000       0.00000000       0.13721310
Tm       0.00000000       0.00000000       5.76161616       0.00000000       0.00000000      -0.13721310
2
Properties=species:S:1:pos:R:3:forces:R:3 energy=-65.77861758288493 pbc="F F F"
Tm       0.00000000       0.00000000       0.00000000       0.00000000       0.00000000       0.12594979
Tm       0.00000000       0.00000000       5.82121212       0.00000000       0.00000000      -0.12594979
2
Properties=species:S:1:pos:R:3:forces:R:3 energy=-65.772393818055 pbc="F F F"
Tm       0.00000000       0.00000000       0.00000000       0.00000000       0.00000000       0.07936221
Tm       0.00000000       0.00000000       5.88080808       0.00000000       0.00000000      -0.07936221
2
Properties=species:S:1:pos:R:3:forces:R:3 energy=-65.769250361093 pbc="F F F"
Tm       0.00000000       0.00000000       0.00000000       0.00000000       0.00000000       0.02769990
Tm       0.00000000       0.00000000       5.94040404       0.00000000       0.00000000      -0.02769990
2
Properties=species:S:1:pos:R:3:forces:R:3 energy=-65.76844771668223 pbc="F F F"
Tm       0.00000000       0.00000000       0.00000000       0.00000000       0.00000000       0.00649951
Tm       0.00000000       0.00000000       6.00000000       0.00000000       0.00000000      -0.00649951
