2
Properties=species:S:1:pos:R:3:forces:R:3 energy=14355.810747340498 pbc="F F F"
Yb       0.00000000       0.00000000       0.00000000       0.00000000       0.00000000 -239087.20312500
Yb       0.00000000       0.00000000       0.18000000       0.00000000       0.00000000  239087.20312500
2
Properties=species:S:1:pos:R:3:forces:R:3 energy=5982.528032496748 pbc="F F F"
Yb       0.00000000       0.00000000       0.00000000       0.00000000       0.00000000  -79497.84375000
Yb       0.00000000       0.00000000       0.23878788       0.00000000       0.00000000   79497.84375000
2
Properties=species:S:1:pos:R:3:forces:R:3 energy=2979.056841090498 pbc="F F F"
Yb       0.00000000       0.00000000       0.00000000       0.00000000       0.00000000  -31198.00195312
Yb       0.00000000       0.00000000       0.29757576       0.00000000       0.00000000   31198.00195312
2
Properties=species:S:1:pos:R:3:forces:R:3 energy=1739.5830862076855 pbc="F F F"
Yb       0.00000000       0.00000000       0.00000000       0.00000000       0.00000000  -13698.62890625
Yb       0.00000000       0.00000000       0.35636364       0.00000000       0.00000000   13698.62890625
2
Properties=species:S:1:pos:R:3:forces:R:3 energy=1169.9905569108105 pbc="F F F"
Yb       0.00000000       0.00000000       0.00000000       0.00000000       0.00000000   -6698.27539062
Yb       0.00000000       0.00000000       0.41515152       0.00000000       0.00000000    6698.27539062
2
Properties=species:S:1:pos:R:3:forces:R:3 energy=874.0034963639356 pbc="F F F"
Yb       0.00000000       0.00000000       0.00000000       0.00000000       0.00000000   -3795.04248047
Yb       0.00000000       0.00000000       0.47393939       0.00000000       0.00000000    3795.04248047
2
Properties=species:S:1:pos:R:3:forces:R:3 energy=686.1721975389784 pbc="F F F"
Yb       0.00000000       0.00000000       0.00000000       0.00000000       0.00000000   -3016.08837891
Yb       0.00000000       0.00000000       0.53272727       0.00000000       0.00000000    3016.08837891
2
Properties=species:S:1:pos:R:3:forces:R:3 energy=507.38105984366587 pbc="F F F"
Yb       0.00000000       0.00000000       0.00000000       0.00000000       0.00000000   -3519.34155273
Yb       0.00000000       0.00000000       0.59151515       0.00000000       0.00000000    3519.34155273
2
Properties=species:S:1:pos:R:3:forces:R:3 energy=311.50706693007965 pbc="F F F"
Yb       0.00000000       0.00000000       0.00000000       0.00000000       0.00000000   -3106.79833984
Yb       0.00000000       0.00000000       0.65030303       0.00000000       0.00000000    3106.79833984
2
Properties=species:S:1:pos:R:3:forces:R:3 energy=148.5161001395403 pbc="F F F"
Yb       0.00000000       0.00000000       0.00000000       0.00000000       0.00000000   -2378.22827148
Yb       0.00000000       0.00000000       0.70909091       0.00000000       0.00000000    2378.22827148
2
Properties=species:S:1:pos:R:3:forces:R:3 energy=35.136354668813155 pbc="F F F"
Yb       0.00000000       0.00000000       0.00000000       0.00000000       0.00000000   -1700.52648926
Yb       0.00000000       0.00000000       0.76787879       0.00000000       0.00000000    1700.52648926
2
Properties=species:S:1:pos:R:3:forces:R:3 energy=-28.894593957431574 pbc="F F F"
Yb       0.00000000       0.00000000       0.00000000       0.00000000       0.00000000    -567.32788086
Yb       0.00000000       0.00000000       0.82666667       0.00000000       0.00000000     567.32788086
2
Properties=species:S:1:pos:R:3:forces:R:3 energy=-44.628232698684556 pbc="F F F"
Yb       0.00000000       0.00000000       0.00000000       0.00000000       0.00000000     -44.03100586
Yb       0.00000000       0.00000000       0.88545455       0.00000000       0.00000000      44.03100586
2
Properties=species:S:1:pos:R:3:forces:R:3 energy=-45.13178796485789 pbc="F F F"
Yb       0.00000000       0.00000000       0.00000000       0.00000000       0.00000000      18.38824081
Yb       0.00000000       0.00000000       0.94424242       0.00000000       0.00000000     -18.38824081
2
Properties=species:S:1:pos:R:3:forces:R:3 energy=-42.273992208344175 pbc="F F F"
Yb       0.00000000       0.00000000       0.00000000       0.00000000       0.00000000    -109.53537750
Yb       0.00000000       0.00000000       1.00303030       0.00000000       0.00000000     109.53537750
2
Properties=species:S:1:pos:R:3:forces:R:3 energy=-46.6544853185537 pbc="F F F"
Yb       0.00000000       0.00000000       0.00000000       0.00000000       0.00000000     -54.15532684
Yb       0.00000000       0.00000000       1.06181818       0.00000000       0.00000000      54.15532684
2
Properties=species:S:1:pos:R:3:forces:R:3 energy=-49.00376655672895 pbc="F F F"
Yb       0.00000000       0.00000000       0.00000000       0.00000000       0.00000000     -30.02672768
Yb       0.00000000       0.00000000       1.12060606       0.00000000       0.00000000      30.02672768
2
Properties=species:S:1:pos:R:3:forces:R:3 energy=-50.60872404542851 pbc="F F F"
Yb       0.00000000       0.00000000       0.00000000       0.00000000       0.00000000     -26.38849640
Yb       0.00000000       0.00000000       1.17939394       0.00000000       0.00000000      26.38849640
2
Properties=species:S:1:pos:R:3:forces:R:3 energy=-52.21014146338735 pbc="F F F"
Yb       0.00000000       0.00000000       0.00000000       0.00000000       0.00000000     -28.47856712
Yb       0.00000000       0.00000000       1.23818182       0.00000000       0.00000000      28.47856712
2
Properties=species:S:1:pos:R:3:forces:R:3 energy=-53.9486209255897 pbc="F F F"
Yb       0.00000000       0.00000000       0.00000000       0.00000000       0.00000000     -29.95786285
Yb       0.00000000       0.00000000       1.29696970       0.00000000       0.00000000      29.95786285
2
Properties=species:S:1:pos:R:3:forces:R:3 energy=-55.56553357098161 pbc="F F F"
Yb       0.00000000       0.00000000       0.00000000       0.00000000       0.00000000     -23.26335335
Yb       0.00000000       0.00000000       1.35575758       0.00000000       0.00000000      23.26335335
2
Properties=species:S:1:pos:R:3:forces:R:3 energy=-56.547619511867744 pbc="F F F"
Yb       0.00000000       0.00000000       0.00000000       0.00000000       0.00000000     -10.17475891
Yb       0.00000000       0.00000000       1.41454545       0.00000000       0.00000000      10.17475891
2
Properties=species:S:1:pos:R:3:forces:R:3 energy=-56.90414844359666 pbc="F F F"
Yb       0.00000000       0.00000000       0.00000000       0.00000000       0.00000000      -3.79608011
Yb       0.00000000       0.00000000       1.47333333       0.00000000       0.00000000       3.79608011
2
Properties=species:S:1:pos:R:3:forces:R:3 energy=-57.170959446978905 pbc="F F F"
Yb       0.00000000       0.00000000       0.00000000       0.00000000       0.00000000      -6.11901283
Yb       0.00000000       0.00000000       1.53212121       0.00000000       0.00000000       6.11901283
2
Properties=species:S:1:pos:R:3:forces:R:3 energy=-57.65094328059543 pbc="F F F"
Yb       0.00000000       0.00000000       0.00000000       0.00000000       0.00000000     -10.04764938
Yb       0.00000000       0.00000000       1.59090909       0.00000000       0.00000000      10.04764938
2
Properties=species:S:1:pos:R:3:forces:R:3 energy=-58.31815999670433 pbc="F F F"
Yb       0.00000000       0.00000000       0.00000000       0.00000000       0.00000000     -12.34258270
Yb       0.00000000       0.00000000       1.64969697       0.00000000       0.00000000      12.34258270
2
Properties=species:S:1:pos:R:3:forces:R:3 energy=-59.07294297450406 pbc="F F F"
Yb       0.00000000       0.00000000       0.00000000       0.00000000       0.00000000     -13.16147137
Yb       0.00000000       0.00000000       1.70848485       0.00000000       0.00000000      13.16147137
2
Properties=species:S:1:pos:R:3:forces:R:3 energy=-59.85295241860849 pbc="F F F"
Yb       0.00000000       0.00000000       0.00000000       0.00000000       0.00000000     -13.31877804
Yb       0.00000000       0.00000000       1.76727273       0.00000000       0.00000000      13.31877804
2
Properties=species:S:1:pos:R:3:forces:R:3 energy=-60.63541075263762 pbc="F F F"
Yb       0.00000000       0.00000000       0.00000000       0.00000000       0.00000000     -13.28067398
Yb       0.00000000       0.00000000       1.82606061       0.00000000       0.00000000      13.28067398
2
Properties=species:S:1:pos:R:3:forces:R:3 energy=-61.41073162652384 pbc="F F F"
Yb       0.00000000       0.00000000       0.00000000       0.00000000       0.00000000     -13.04567242
Yb       0.00000000       0.00000000       1.88484848       0.00000000       0.00000000      13.04567242
2
Properties=species:S:1:pos:R:3:forces:R:3 energy=-62.16119955131955 pbc="F F F"
Yb       0.00000000       0.00000000       0.00000000       0.00000000       0.00000000     -12.40778637
Yb       0.00000000       0.00000000       1.94363636       0.00000000       0.00000000      12.40778637
2
Properties=species:S:1:pos:R:3:forces:R:3 energy=-62.86125985103537 pbc="F F F"
Yb       0.00000000       0.00000000       0.00000000       0.00000000       0.00000000     -11.35416889
Yb       0.00000000       0.00000000       2.00242424       0.00000000       0.00000000      11.35416889
2
Properties=species:S:1:pos:R:3:forces:R:3 energy=-63.49228532724506 pbc="F F F"
Yb       0.00000000       0.00000000       0.00000000       0.00000000       0.00000000     -10.10002232
Yb       0.00000000       0.00000000       2.06121212       0.00000000       0.00000000      10.10002232
2
Properties=species:S:1:pos:R:3:forces:R:3 energy=-64.04860730496584 pbc="F F F"
Yb       0.00000000       0.00000000       0.00000000       0.00000000       0.00000000      -8.83180809
Yb       0.00000000       0.00000000       2.12000000       0.00000000       0.00000000       8.83180809
2
Properties=species:S:1:pos:R:3:forces:R:3 energy=-64.53149986457403 pbc="F F F"
Yb       0.00000000       0.00000000       0.00000000       0.00000000       0.00000000      -7.60281134
Yb       0.00000000       0.00000000       2.17878788       0.00000000       0.00000000       7.60281134
2
Properties=species:S:1:pos:R:3:forces:R:3 energy=-64.9432174478041 pbc="F F F"
Yb       0.00000000       0.00000000       0.00000000       0.00000000       0.00000000      -6.41084003
Yb       0.00000000       0.00000000       2.23757576       0.00000000       0.00000000       6.41084003
2
Properties=species:S:1:pos:R:3:forces:R:3 energy=-65.28636163384172 pbc="F F F"
Yb       0.00000000       0.00000000       0.00000000       0.00000000       0.00000000      -5.27682114
Yb       0.00000000       0.00000000       2.29636364       0.00000000       0.00000000       5.27682114
2
Properties=species:S:1:pos:R:3:forces:R:3 energy=-65.56599829313829 pbc="F F F"
Yb       0.00000000       0.00000000       0.00000000       0.00000000       0.00000000      -4.26362944
Yb       0.00000000       0.00000000       2.35515152       0.00000000       0.00000000       4.26362944
2
Properties=species:S:1:pos:R:3:forces:R:3 energy=-65.79153442163351 pbc="F F F"
Yb       0.00000000       0.00000000       0.00000000       0.00000000       0.00000000      -3.44684672
Yb       0.00000000       0.00000000       2.41393939       0.00000000       0.00000000       3.44684672
2
Properties=species:S:1:pos:R:3:forces:R:3 energy=-65.97595518863095 pbc="F F F"
Yb       0.00000000       0.00000000       0.00000000       0.00000000       0.00000000      -2.86699510
Yb       0.00000000       0.00000000       2.47272727       0.00000000       0.00000000       2.86699510
2
Properties=species:S:1:pos:R:3:forces:R:3 energy=-66.13291715648856 pbc="F F F"
Yb       0.00000000       0.00000000       0.00000000       0.00000000       0.00000000      -2.50476694
Yb       0.00000000       0.00000000       2.53151515       0.00000000       0.00000000       2.50476694
2
Properties=species:S:1:pos:R:3:forces:R:3 energy=-66.27345236000646 pbc="F F F"
Yb       0.00000000       0.00000000       0.00000000       0.00000000       0.00000000      -2.29533744
Yb       0.00000000       0.00000000       2.59030303       0.00000000       0.00000000       2.29533744
2
Properties=species:S:1:pos:R:3:forces:R:3 energy=-66.40426697362115 pbc="F F F"
Yb       0.00000000       0.00000000       0.00000000       0.00000000       0.00000000      -2.16184402
Yb       0.00000000       0.00000000       2.64909091       0.00000000       0.00000000       2.16184402
2
Properties=species:S:1:pos:R:3:forces:R:3 energy=-66.52792437886049 pbc="F F F"
Yb       0.00000000       0.00000000       0.00000000       0.00000000       0.00000000      -2.04429913
Yb       0.00000000       0.00000000       2.70787879       0.00000000       0.00000000       2.04429913
2
Properties=species:S:1:pos:R:3:forces:R:3 energy=-66.6443482152549 pbc="F F F"
Yb       0.00000000       0.00000000       0.00000000       0.00000000       0.00000000      -1.91327333
Yb       0.00000000       0.00000000       2.76666667       0.00000000       0.00000000       1.91327333
2
Properties=species:S:1:pos:R:3:forces:R:3 energy=-66.75258471662112 pbc="F F F"
Yb       0.00000000       0.00000000       0.00000000       0.00000000       0.00000000      -1.76754260
Yb       0.00000000       0.00000000       2.82545455       0.00000000       0.00000000       1.76754260
2
Properties=species:S:1:pos:R:3:forces:R:3 energy=-66.85215313923683 pbc="F F F"
Yb       0.00000000       0.00000000       0.00000000       0.00000000       0.00000000      -1.62112236
Yb       0.00000000       0.00000000       2.88424242       0.00000000       0.00000000       1.62112236
2
Properties=species:S:1:pos:R:3:forces:R:3 energy=-66.9434653658686 pbc="F F F"
Yb       0.00000000       0.00000000       0.00000000       0.00000000       0.00000000      -1.48861110
Yb       0.00000000       0.00000000       2.94303030       0.00000000       0.00000000       1.48861110
2
Properties=species:S:1:pos:R:3:forces:R:3 energy=-67.02757415159145 pbc="F F F"
Yb       0.00000000       0.00000000       0.00000000       0.00000000       0.00000000      -1.37592459
Yb       0.00000000       0.00000000       3.00181818       0.00000000       0.00000000       1.37592459
2
Properties=species:S:1:pos:R:3:forces:R:3 energy=-67.1055474912625 pbc="F F F"
Yb       0.00000000       0.00000000       0.00000000       0.00000000       0.00000000      -1.27874279
Yb       0.00000000       0.00000000       3.06060606       0.00000000       0.00000000       1.27874279
2
Properties=species:S:1:pos:R:3:forces:R:3 energy=-67.17801849791493 pbc="F F F"
Yb       0.00000000       0.00000000       0.00000000       0.00000000       0.00000000      -1.18640256
Yb       0.00000000       0.00000000       3.11939394       0.00000000       0.00000000       1.18640256
2
Properties=species:S:1:pos:R:3:forces:R:3 energy=-67.24491077940098 pbc="F F F"
Yb       0.00000000       0.00000000       0.00000000       0.00000000       0.00000000      -1.08757722
Yb       0.00000000       0.00000000       3.17818182       0.00000000       0.00000000       1.08757722
2
Properties=species:S:1:pos:R:3:forces:R:3 energy=-67.30561379092099 pbc="F F F"
Yb       0.00000000       0.00000000       0.00000000       0.00000000       0.00000000      -0.97469187
Yb       0.00000000       0.00000000       3.23696970       0.00000000       0.00000000       0.97469187
2
Properties=species:S:1:pos:R:3:forces:R:3 energy=-67.35918901874513 pbc="F F F"
Yb       0.00000000       0.00000000       0.00000000       0.00000000       0.00000000      -0.84557086
Yb       0.00000000       0.00000000       3.29575758       0.00000000       0.00000000       0.84557086
2
Properties=species:S:1:pos:R:3:forces:R:3 energy=-67.40475887342602 pbc="F F F"
Yb       0.00000000       0.00000000       0.00000000       0.00000000       0.00000000      -0.70266497
Yb       0.00000000       0.00000000       3.35454545       0.00000000       0.00000000       0.70266497
2
Properties=species:S:1:pos:R:3:forces:R:3 energy=-67.44163652889002 pbc="F F F"
Yb       0.00000000       0.00000000       0.00000000       0.00000000       0.00000000      -0.55103874
Yb       0.00000000       0.00000000       3.41333333       0.00000000       0.00000000       0.55103874
2
Properties=species:S:1:pos:R:3:forces:R:3 energy=-67.46949372476729 pbc="F F F"
Yb       0.00000000       0.00000000       0.00000000       0.00000000       0.00000000      -0.39652511
Yb       0.00000000       0.00000000       3.47212121       0.00000000       0.00000000       0.39652511
2
Properties=species:S:1:pos:R:3:forces:R:3 energy=-67.48831498685686 pbc="F F F"
Yb       0.00000000       0.00000000       0.00000000       0.00000000       0.00000000      -0.24489325
Yb       0.00000000       0.00000000       3.53090909       0.00000000       0.00000000       0.24489325
2
Properties=species:S:1:pos:R:3:forces:R:3 energy=-67.498451039224 pbc="F F F"
Yb       0.00000000       0.00000000       0.00000000       0.00000000       0.00000000      -0.10197032
Yb       0.00000000       0.00000000       3.58969697       0.00000000       0.00000000       0.10197032
2
Properties=species:S:1:pos:R:3:forces:R:3 energy=-67.50059594769475 pbc="F F F"
Yb       0.00000000       0.00000000       0.00000000       0.00000000       0.00000000       0.02606990
Yb       0.00000000       0.00000000       3.64848485       0.00000000       0.00000000      -0.02606990
2
Properties=species:S:1:pos:R:3:forces:R:3 energy=-67.49580234696691 pbc="F F F"
Yb       0.00000000       0.00000000       0.00000000       0.00000000       0.00000000       0.13313536
Yb       0.00000000       0.00000000       3.70727273       0.00000000       0.00000000      -0.13313536
2
Properties=species:S:1:pos:R:3:forces:R:3 energy=-67.48544330947637 pbc="F F F"
Yb       0.00000000       0.00000000       0.00000000       0.00000000       0.00000000       0.21463284
Yb       0.00000000       0.00000000       3.76606061       0.00000000       0.00000000      -0.21463284
2
Properties=species:S:1:pos:R:3:forces:R:3 energy=-67.47109787280095 pbc="F F F"
Yb       0.00000000       0.00000000       0.00000000       0.00000000       0.00000000       0.26917344
Yb       0.00000000       0.00000000       3.82484848       0.00000000       0.00000000      -0.26917344
2
Properties=species:S:1:pos:R:3:forces:R:3 energy=-67.45427644164594 pbc="F F F"
Yb       0.00000000       0.00000000       0.00000000       0.00000000       0.00000000       0.29939735
Yb       0.00000000       0.00000000       3.88363636       0.00000000       0.00000000      -0.29939735
2
Properties=species:S:1:pos:R:3:forces:R:3 energy=-67.43625283029061 pbc="F F F"
Yb       0.00000000       0.00000000       0.00000000       0.00000000       0.00000000       0.31122753
Yb       0.00000000       0.00000000       3.94242424       0.00000000       0.00000000      -0.31122753
2
Properties=species:S:1:pos:R:3:forces:R:3 energy=-67.41790415617682 pbc="F F F"
Yb       0.00000000       0.00000000       0.00000000       0.00000000       0.00000000       0.31191930
Yb       0.00000000       0.00000000       4.00121212       0.00000000       0.00000000      -0.31191930
2
Properties=species:S:1:pos:R:3:forces:R:3 energy=-67.39967262957991 pbc="F F F"
Yb       0.00000000       0.00000000       0.00000000       0.00000000       0.00000000       0.30801553
Yb       0.00000000       0.00000000       4.06000000       0.00000000       0.00000000      -0.30801553
2
Properties=species:S:1:pos:R:3:forces:R:3 energy=-67.38168765876726 pbc="F F F"
Yb       0.00000000       0.00000000       0.00000000       0.00000000       0.00000000       0.30410069
Yb       0.00000000       0.00000000       4.11878788       0.00000000       0.00000000      -0.30410069
2
Properties=species:S:1:pos:R:3:forces:R:3 energy=-67.3638650131203 pbc="F F F"
Yb       0.00000000       0.00000000       0.00000000       0.00000000       0.00000000       0.30256027
Yb       0.00000000       0.00000000       4.17757576       0.00000000       0.00000000      -0.30256027
2
Properties=species:S:1:pos:R:3:forces:R:3 energy=-67.34605179113402 pbc="F F F"
Yb       0.00000000       0.00000000       0.00000000       0.00000000       0.00000000       0.30397788
Yb       0.00000000       0.00000000       4.23636364       0.00000000       0.00000000      -0.30397788
2
Properties=species:S:1:pos:R:3:forces:R:3 energy=-67.32807981984303 pbc="F F F"
Yb       0.00000000       0.00000000       0.00000000       0.00000000       0.00000000       0.30773890
Yb       0.00000000       0.00000000       4.29515152       0.00000000       0.00000000      -0.30773890
2
Properties=species:S:1:pos:R:3:forces:R:3 energy=-67.3098495987523 pbc="F F F"
Yb       0.00000000       0.00000000       0.00000000       0.00000000       0.00000000       0.31255010
Yb       0.00000000       0.00000000       4.35393939       0.00000000       0.00000000      -0.31255010
2
Properties=species:S:1:pos:R:3:forces:R:3 energy=-67.29134552853189 pbc="F F F"
Yb       0.00000000       0.00000000       0.00000000       0.00000000       0.00000000       0.31678164
Yb       0.00000000       0.00000000       4.41272727       0.00000000       0.00000000      -0.31678164
2
Properties=species:S:1:pos:R:3:forces:R:3 energy=-67.27265119514858 pbc="F F F"
Yb       0.00000000       0.00000000       0.00000000       0.00000000       0.00000000       0.31870437
Yb       0.00000000       0.00000000       4.47151515       0.00000000       0.00000000      -0.31870437
2
Properties=species:S:1:pos:R:3:forces:R:3 energy=-67.25394937303373 pbc="F F F"
Yb       0.00000000       0.00000000       0.00000000       0.00000000       0.00000000       0.31669039
Yb       0.00000000       0.00000000       4.53030303       0.00000000       0.00000000      -0.31669039
2
Properties=species:S:1:pos:R:3:forces:R:3 energy=-67.23551437193001 pbc="F F F"
Yb       0.00000000       0.00000000       0.00000000       0.00000000       0.00000000       0.30946890
Yb       0.00000000       0.00000000       4.58909091       0.00000000       0.00000000      -0.30946890
2
Properties=species:S:1:pos:R:3:forces:R:3 energy=-67.21767392634875 pbc="F F F"
Yb       0.00000000       0.00000000       0.00000000       0.00000000       0.00000000       0.29642996
Yb       0.00000000       0.00000000       4.64787879       0.00000000       0.00000000      -0.29642996
2
Properties=species:S:1:pos:R:3:forces:R:3 energy=-67.20077102483863 pbc="F F F"
Yb       0.00000000       0.00000000       0.00000000       0.00000000       0.00000000       0.27787203
Yb       0.00000000       0.00000000       4.70666667       0.00000000       0.00000000      -0.27787203
2
Properties=species:S:1:pos:R:3:forces:R:3 energy=-67.1850876239599 pbc="F F F"
Yb       0.00000000       0.00000000       0.00000000       0.00000000       0.00000000       0.25510007
Yb       0.00000000       0.00000000       4.76545455       0.00000000       0.00000000      -0.25510007
2
Properties=species:S:1:pos:R:3:forces:R:3 energy=-67.17082177277206 pbc="F F F"
Yb       0.00000000       0.00000000       0.00000000       0.00000000       0.00000000       0.23019861
Yb       0.00000000       0.00000000       4.82424242       0.00000000       0.00000000      -0.23019861
2
Properties=species:S:1:pos:R:3:forces:R:3 energy=-67.15801894194746 pbc="F F F"
Yb       0.00000000       0.00000000       0.00000000       0.00000000       0.00000000       0.20559023
Yb       0.00000000       0.00000000       4.88303030       0.00000000       0.00000000      -0.20559023
2
Properties=species:S:1:pos:R:3:forces:R:3 energy=-67.14660254610116 pbc="F F F"
Yb       0.00000000       0.00000000       0.00000000       0.00000000       0.00000000       0.18341091
Yb       0.00000000       0.00000000       4.94181818       0.00000000       0.00000000      -0.18341091
2
Properties=species:S:1:pos:R:3:forces:R:3 energy=-67.1363739453748 pbc="F F F"
Yb       0.00000000       0.00000000       0.00000000       0.00000000       0.00000000       0.16501357
Yb       0.00000000       0.00000000       5.00060606       0.00000000       0.00000000      -0.16501357
2
Properties=species:S:1:pos:R:3:forces:R:3 energy=-67.12711927279922 pbc="F F F"
Yb       0.00000000       0.00000000       0.00000000       0.00000000       0.00000000       0.15070869
Yb       0.00000000       0.00000000       5.05939394       0.00000000       0.00000000      -0.15070869
2
Properties=species:S:1:pos:R:3:forces:R:3 energy=-67.11858652393605 pbc="F F F"
Yb       0.00000000       0.00000000       0.00000000       0.00000000       0.00000000       0.13984400
Yb       0.00000000       0.00000000       5.11818182       0.00000000       0.00000000      -0.13984400
2
Properties=species:S:1:pos:R:3:forces:R:3 energy=-67.11063054705203 pbc="F F F"
Yb       0.00000000       0.00000000       0.00000000       0.00000000       0.00000000       0.13108335
Yb       0.00000000       0.00000000       5.17696970       0.00000000       0.00000000      -0.13108335
2
Properties=species:S:1:pos:R:3:forces:R:3 energy=-67.10317488347509 pbc="F F F"
Yb       0.00000000       0.00000000       0.00000000       0.00000000       0.00000000       0.12255409
Yb       0.00000000       0.00000000       5.23575758       0.00000000       0.00000000      -0.12255409
2
Properties=species:S:1:pos:R:3:forces:R:3 energy=-67.09626517494 pbc="F F F"
Yb       0.00000000       0.00000000       0.00000000       0.00000000       0.00000000       0.11196246
Yb       0.00000000       0.00000000       5.29454545       0.00000000       0.00000000      -0.11196246
2
Properties=species:S:1:pos:R:3:forces:R:3 energy=-67.09006918893087 pbc="F F F"
Yb       0.00000000       0.00000000       0.00000000       0.00000000       0.00000000       0.09836219
Yb       0.00000000       0.00000000       5.35333333       0.00000000       0.00000000      -0.09836219
2
Properties=species:S:1:pos:R:3:forces:R:3 energy=-67.08465553772945 pbc="F F F"
Yb       0.00000000       0.00000000       0.00000000       0.00000000       0.00000000       0.08721706
Yb       0.00000000       0.00000000       5.41212121       0.00000000       0.00000000      -0.08721706
2
Properties=species:S:1:pos:R:3:forces:R:3 energy=-67.07955883302103 pbc="F F F"
Yb       0.00000000       0.00000000       0.00000000       0.00000000       0.00000000       0.08886597
Yb       0.00000000       0.00000000       5.47090909       0.00000000       0.00000000      -0.08886597
2
Properties=species:S:1:pos:R:3:forces:R:3 energy=-67.07403144482672 pbc="F F F"
Yb       0.00000000       0.00000000       0.00000000       0.00000000       0.00000000       0.09866175
Yb       0.00000000       0.00000000       5.52969697       0.00000000       0.00000000      -0.09866175
2
Properties=species:S:1:pos:R:3:forces:R:3 energy=-67.06818791385089 pbc="F F F"
Yb       0.00000000       0.00000000       0.00000000       0.00000000       0.00000000       0.09754717
Yb       0.00000000       0.00000000       5.58848485       0.00000000       0.00000000      -0.09754717
2
Properties=species:S:1:pos:R:3:forces:R:3 energy=-67.06276846242545 pbc="F F F"
Yb       0.00000000       0.00000000       0.00000000       0.00000000       0.00000000       0.08684780
Yb       0.00000000       0.00000000       5.64727273       0.00000000       0.00000000      -0.08684780
2
Properties=species:S:1:pos:R:3:forces:R:3 energy=-67.05767411749778 pbc="F F F"
Yb       0.00000000       0.00000000       0.00000000       0.00000000       0.00000000       0.09106353
Yb       0.00000000       0.00000000       5.70606061       0.00000000       0.00000000      -0.09106353
2
Properties=species:S:1:pos:R:3:forces:R:3 energy=-67.05153948987947 pbc="F F F"
Yb       0.00000000       0.00000000       0.00000000       0.00000000       0.00000000       0.11922463
Yb       0.00000000       0.00000000       5.76484848       0.00000000       0.00000000      -0.11922463
2
Properties=species:S:1:pos:R:3:forces:R:3 energy=-67.04401397588252 pbc="F F F"
Yb       0.00000000       0.00000000       0.00000000       0.00000000       0.00000000       0.12968314
Yb       0.00000000       0.00000000       5.82363636       0.00000000       0.00000000      -0.12968314
2
Properties=species:S:1:pos:R:3:forces:R:3 energy=-67.03738678034063 pbc="F F F"
Yb       0.00000000       0.00000000       0.00000000       0.00000000       0.00000000       0.08873517
Yb       0.00000000       0.00000000       5.88242424       0.00000000       0.00000000      -0.08873517
2
Properties=species:S:1:pos:R:3:forces:R:3 energy=-67.03390903080688 pbc="F F F"
Yb       0.00000000       0.00000000       0.00000000       0.00000000       0.00000000       0.03102484
Yb       0.00000000       0.00000000       5.94121212       0.00000000       0.00000000      -0.03102484
2
Properties=species:S:1:pos:R:3:forces:R:3 energy=-67.03305481224581 pbc="F F F"
Yb       0.00000000       0.00000000       0.00000000       0.00000000       0.00000000       0.00629483
Yb       0.00000000       0.00000000       6.00000000       0.00000000       0.00000000      -0.00629483
