2
Properties=species:S:1:pos:R:3:forces:R:3 energy=106439695.96975397 pbc="F F F"
Fe       0.00000000       0.00000000       0.00000000       0.00000000       0.00000000 -933422528.00000000
Fe       0.00000000       0.00000000       0.18000000       0.00000000       0.00000000 933422528.00000000
2
Properties=species:S:1:pos:R:3:forces:R:3 energy=58195847.96975397 pbc="F F F"
Fe       0.00000000       0.00000000       0.00000000       0.00000000       0.00000000 -683753408.00000000
Fe       0.00000000       0.00000000       0.23878788       0.00000000       0.00000000 683753408.00000000
2
Properties=species:S:1:pos:R:3:forces:R:3 energy=26746981.969753977 pbc="F F F"
Fe       0.00000000       0.00000000       0.00000000       0.00000000       0.00000000 -391546496.00000000
Fe       0.00000000       0.00000000       0.29757576       0.00000000       0.00000000 391546496.00000000
2
Properties=species:S:1:pos:R:3:forces:R:3 energy=10544082.969753977 pbc="F F F"
Fe       0.00000000       0.00000000       0.00000000       0.00000000       0.00000000 -178193648.00000000
Fe       0.00000000       0.00000000       0.35636364       0.00000000       0.00000000 178193648.00000000
2
Properties=species:S:1:pos:R:3:forces:R:3 energy=3696176.9697539825 pbc="F F F"
Fe       0.00000000       0.00000000       0.00000000       0.00000000       0.00000000 -69360336.00000000
Fe       0.00000000       0.00000000       0.41515152       0.00000000       0.00000000 69360336.00000000
2
Properties=species:S:1:pos:R:3:forces:R:3 energy=1163389.8447539953 pbc="F F F"
Fe       0.00000000       0.00000000       0.00000000       0.00000000       0.00000000 -23466744.00000000
Fe       0.00000000       0.00000000       0.47393939       0.00000000       0.00000000 23466744.00000000
2
Properties=species:S:1:pos:R:3:forces:R:3 energy=340916.2510040143 pbc="F F F"
Fe       0.00000000       0.00000000       0.00000000       0.00000000       0.00000000 -7561768.00000000
Fe       0.00000000       0.00000000       0.53272727       0.00000000       0.00000000 7561768.00000000
2
Properties=species:S:1:pos:R:3:forces:R:3 energy=87124.82912904595 pbc="F F F"
Fe       0.00000000       0.00000000       0.00000000       0.00000000       0.00000000 -2060413.50000000
Fe       0.00000000       0.00000000       0.59151515       0.00000000       0.00000000 2060413.50000000
2
Properties=species:S:1:pos:R:3:forces:R:3 energy=19927.278347856136 pbc="F F F"
Fe       0.00000000       0.00000000       0.00000000       0.00000000       0.00000000 -519211.34375000
Fe       0.00000000       0.00000000       0.65030303       0.00000000       0.00000000  519211.34375000
2
Properties=species:S:1:pos:R:3:forces:R:3 energy=4664.125515916754 pbc="F F F"
Fe       0.00000000       0.00000000       0.00000000       0.00000000       0.00000000 -121865.39843750
Fe       0.00000000       0.00000000       0.70909091       0.00000000       0.00000000  121865.39843750
2
Properties=species:S:1:pos:R:3:forces:R:3 energy=875.1145907631691 pbc="F F F"
Fe       0.00000000       0.00000000       0.00000000       0.00000000       0.00000000  -27796.72265625
Fe       0.00000000       0.00000000       0.76787879       0.00000000       0.00000000   27796.72265625
2
Properties=species:S:1:pos:R:3:forces:R:3 energy=128.53304799715974 pbc="F F F"
Fe       0.00000000       0.00000000       0.00000000       0.00000000       0.00000000   -3901.47778320
Fe       0.00000000       0.00000000       0.82666667       0.00000000       0.00000000    3901.47778320
2
Properties=species:S:1:pos:R:3:forces:R:3 energy=43.9458099768318 pbc="F F F"
Fe       0.00000000       0.00000000       0.00000000       0.00000000       0.00000000    -253.23150635
Fe       0.00000000       0.00000000       0.88545455       0.00000000       0.00000000     253.23150635
2
Properties=species:S:1:pos:R:3:forces:R:3 energy=40.56256682785766 pbc="F F F"
Fe       0.00000000       0.00000000       0.00000000       0.00000000       0.00000000     -43.55710220
Fe       0.00000000       0.00000000       0.94424242       0.00000000       0.00000000      43.55710220
2
Properties=species:S:1:pos:R:3:forces:R:3 energy=35.01327005896633 pbc="F F F"
Fe       0.00000000       0.00000000       0.00000000       0.00000000       0.00000000    -123.51335907
Fe       0.00000000       0.00000000       1.00303030       0.00000000       0.00000000     123.51335907
2
Properties=species:S:1:pos:R:3:forces:R:3 energy=28.132438147124503 pbc="F F F"
Fe       0.00000000       0.00000000       0.00000000       0.00000000       0.00000000    -113.30369568
Fe       0.00000000       0.00000000       1.06181818       0.00000000       0.00000000     113.30369568
2
Properties=species:S:1:pos:R:3:forces:R:3 energy=22.19108631658931 pbc="F F F"
Fe       0.00000000       0.00000000       0.00000000       0.00000000       0.00000000     -97.31214905
Fe       0.00000000       0.00000000       1.12060606       0.00000000       0.00000000      97.31214905
2
Properties=species:S:1:pos:R:3:forces:R:3 energy=16.33404913964634 pbc="F F F"
Fe       0.00000000       0.00000000       0.00000000       0.00000000       0.00000000    -102.72763062
Fe       0.00000000       0.00000000       1.17939394       0.00000000       0.00000000     102.72763062
2
Properties=species:S:1:pos:R:3:forces:R:3 energy=10.867566783613904 pbc="F F F"
Fe       0.00000000       0.00000000       0.00000000       0.00000000       0.00000000     -86.72280121
Fe       0.00000000       0.00000000       1.23818182       0.00000000       0.00000000      86.72280121
2
Properties=species:S:1:pos:R:3:forces:R:3 energy=6.220796584767631 pbc="F F F"
Fe       0.00000000       0.00000000       0.00000000       0.00000000       0.00000000     -73.57362366
Fe       0.00000000       0.00000000       1.29696970       0.00000000       0.00000000      73.57362366
2
Properties=species:S:1:pos:R:3:forces:R:3 energy=2.2705849706256824 pbc="F F F"
Fe       0.00000000       0.00000000       0.00000000       0.00000000       0.00000000     -60.47526550
Fe       0.00000000       0.00000000       1.35575758       0.00000000       0.00000000      60.47526550
2
Properties=species:S:1:pos:R:3:forces:R:3 energy=-0.9079832679945146 pbc="F F F"
Fe       0.00000000       0.00000000       0.00000000       0.00000000       0.00000000     -47.84813309
Fe       0.00000000       0.00000000       1.41454545       0.00000000       0.00000000      47.84813309
2
Properties=species:S:1:pos:R:3:forces:R:3 energy=-3.3838204946444788 pbc="F F F"
Fe       0.00000000       0.00000000       0.00000000       0.00000000       0.00000000     -36.24548721
Fe       0.00000000       0.00000000       1.47333333       0.00000000       0.00000000      36.24548721
2
Properties=species:S:1:pos:R:3:forces:R:3 energy=-5.169318620343063 pbc="F F F"
Fe       0.00000000       0.00000000       0.00000000       0.00000000       0.00000000     -24.96605682
Fe       0.00000000       0.00000000       1.53212121       0.00000000       0.00000000      24.96605682
2
Properties=species:S:1:pos:R:3:forces:R:3 energy=-6.3892643785033085 pbc="F F F"
Fe       0.00000000       0.00000000       0.00000000       0.00000000       0.00000000     -17.22290802
Fe       0.00000000       0.00000000       1.59090909       0.00000000       0.00000000      17.22290802
2
Properties=species:S:1:pos:R:3:forces:R:3 energy=-7.257641686694311 pbc="F F F"
Fe       0.00000000       0.00000000       0.00000000       0.00000000       0.00000000     -12.47734261
Fe       0.00000000       0.00000000       1.64969697       0.00000000       0.00000000      12.47734261
2
Properties=species:S:1:pos:R:3:forces:R:3 energy=-7.884260003755814 pbc="F F F"
Fe       0.00000000       0.00000000       0.00000000       0.00000000       0.00000000      -8.99902248
Fe       0.00000000       0.00000000       1.70848485       0.00000000       0.00000000       8.99902248
2
Properties=species:S:1:pos:R:3:forces:R:3 energy=-8.319600984904456 pbc="F F F"
Fe       0.00000000       0.00000000       0.00000000       0.00000000       0.00000000      -5.91850328
Fe       0.00000000       0.00000000       1.76727273       0.00000000       0.00000000       5.91850328
2
Properties=species:S:1:pos:R:3:forces:R:3 energy=-8.605960944552654 pbc="F F F"
Fe       0.00000000       0.00000000       0.00000000       0.00000000       0.00000000      -3.93063498
Fe       0.00000000       0.00000000       1.82606061       0.00000000       0.00000000       3.93063498
2
Properties=species:S:1:pos:R:3:forces:R:3 energy=-8.777866643975441 pbc="F F F"
Fe       0.00000000       0.00000000       0.00000000       0.00000000       0.00000000      -2.06702495
Fe       0.00000000       0.00000000       1.88484848       0.00000000       0.00000000       2.06702495
2
Properties=species:S:1:pos:R:3:forces:R:3 energy=-8.862894256633913 pbc="F F F"
Fe       0.00000000       0.00000000       0.00000000       0.00000000       0.00000000      -0.85286939
Fe       0.00000000       0.00000000       1.94363636       0.00000000       0.00000000       0.85286939
2
Properties=species:S:1:pos:R:3:forces:R:3 energy=-8.888366230624126 pbc="F F F"
Fe       0.00000000       0.00000000       0.00000000       0.00000000       0.00000000      -0.15498015
Fe       0.00000000       0.00000000       2.00242424       0.00000000       0.00000000       0.15498015
2
Properties=species:S:1:pos:R:3:forces:R:3 energy=-8.892395803286972 pbc="F F F"
Fe       0.00000000       0.00000000       0.00000000       0.00000000       0.00000000      -0.00320077
Fe       0.00000000       0.00000000       2.06121212       0.00000000       0.00000000       0.00320077
2
Properties=species:S:1:pos:R:3:forces:R:3 energy=-8.889010478246457 pbc="F F F"
Fe       0.00000000       0.00000000       0.00000000       0.00000000       0.00000000       0.11515531
Fe       0.00000000       0.00000000       2.12000000       0.00000000       0.00000000      -0.11515531
2
Properties=species:S:1:pos:R:3:forces:R:3 energy=-8.87965545313134 pbc="F F F"
Fe       0.00000000       0.00000000       0.00000000       0.00000000       0.00000000       0.18494983
Fe       0.00000000       0.00000000       2.17878788       0.00000000       0.00000000      -0.18494983
2
Properties=species:S:1:pos:R:3:forces:R:3 energy=-8.86865384107647 pbc="F F F"
Fe       0.00000000       0.00000000       0.00000000       0.00000000       0.00000000       0.18468815
Fe       0.00000000       0.00000000       2.23757576       0.00000000       0.00000000      -0.18468815
2
Properties=species:S:1:pos:R:3:forces:R:3 energy=-8.859753044399605 pbc="F F F"
Fe       0.00000000       0.00000000       0.00000000       0.00000000       0.00000000       0.10479096
Fe       0.00000000       0.00000000       2.29636364       0.00000000       0.00000000      -0.10479096
2
Properties=species:S:1:pos:R:3:forces:R:3 energy=-8.85412480206915 pbc="F F F"
Fe       0.00000000       0.00000000       0.00000000       0.00000000       0.00000000       0.13461109
Fe       0.00000000       0.00000000       2.35515152       0.00000000       0.00000000      -0.13461109
2
Properties=species:S:1:pos:R:3:forces:R:3 energy=-8.839298494598605 pbc="F F F"
Fe       0.00000000       0.00000000       0.00000000       0.00000000       0.00000000       0.38244021
Fe       0.00000000       0.00000000       2.41393939       0.00000000       0.00000000      -0.38244021
2
Properties=species:S:1:pos:R:3:forces:R:3 energy=-8.81067822157835 pbc="F F F"
Fe       0.00000000       0.00000000       0.00000000       0.00000000       0.00000000       0.56172621
Fe       0.00000000       0.00000000       2.47272727       0.00000000       0.00000000      -0.56172621
2
Properties=species:S:1:pos:R:3:forces:R:3 energy=-8.776455315067105 pbc="F F F"
Fe       0.00000000       0.00000000       0.00000000       0.00000000       0.00000000       0.58964282
Fe       0.00000000       0.00000000       2.53151515       0.00000000       0.00000000      -0.58964282
2
Properties=species:S:1:pos:R:3:forces:R:3 energy=-8.740805694038098 pbc="F F F"
Fe       0.00000000       0.00000000       0.00000000       0.00000000       0.00000000       0.63822246
Fe       0.00000000       0.00000000       2.59030303       0.00000000       0.00000000      -0.63822246
2
Properties=species:S:1:pos:R:3:forces:R:3 energy=-8.699887261849623 pbc="F F F"
Fe       0.00000000       0.00000000       0.00000000       0.00000000       0.00000000       0.75931424
Fe       0.00000000       0.00000000       2.64909091       0.00000000       0.00000000      -0.75931424
2
Properties=species:S:1:pos:R:3:forces:R:3 energy=-8.651941817241607 pbc="F F F"
Fe       0.00000000       0.00000000       0.00000000       0.00000000       0.00000000       0.86214739
Fe       0.00000000       0.00000000       2.70787879       0.00000000       0.00000000      -0.86214739
2
Properties=species:S:1:pos:R:3:forces:R:3 energy=-8.599750977205217 pbc="F F F"
Fe       0.00000000       0.00000000       0.00000000       0.00000000       0.00000000       0.90472627
Fe       0.00000000       0.00000000       2.76666667       0.00000000       0.00000000      -0.90472627
2
Properties=species:S:1:pos:R:3:forces:R:3 energy=-8.546229069668728 pbc="F F F"
Fe       0.00000000       0.00000000       0.00000000       0.00000000       0.00000000       0.91293854
Fe       0.00000000       0.00000000       2.82545455       0.00000000       0.00000000      -0.91293854
2
Properties=species:S:1:pos:R:3:forces:R:3 energy=-8.492675884220908 pbc="F F F"
Fe       0.00000000       0.00000000       0.00000000       0.00000000       0.00000000       0.90698373
Fe       0.00000000       0.00000000       2.88424242       0.00000000       0.00000000      -0.90698373
2
Properties=species:S:1:pos:R:3:forces:R:3 energy=-8.4398268961672 pbc="F F F"
Fe       0.00000000       0.00000000       0.00000000       0.00000000       0.00000000       0.88918489
Fe       0.00000000       0.00000000       2.94303030       0.00000000       0.00000000      -0.88918489
2
Properties=species:S:1:pos:R:3:forces:R:3 energy=-8.38827495598566 pbc="F F F"
Fe       0.00000000       0.00000000       0.00000000       0.00000000       0.00000000       0.86394531
Fe       0.00000000       0.00000000       3.00181818       0.00000000       0.00000000      -0.86394531
2
Properties=species:S:1:pos:R:3:forces:R:3 energy=-8.338291683269398 pbc="F F F"
Fe       0.00000000       0.00000000       0.00000000       0.00000000       0.00000000       0.83602232
Fe       0.00000000       0.00000000       3.06060606       0.00000000       0.00000000      -0.83602232
2
Properties=species:S:1:pos:R:3:forces:R:3 energy=-8.290083926343339 pbc="F F F"
Fe       0.00000000       0.00000000       0.00000000       0.00000000       0.00000000       0.80276793
Fe       0.00000000       0.00000000       3.11939394       0.00000000       0.00000000      -0.80276793
2
Properties=species:S:1:pos:R:3:forces:R:3 energy=-8.244073095213738 pbc="F F F"
Fe       0.00000000       0.00000000       0.00000000       0.00000000       0.00000000       0.76126868
Fe       0.00000000       0.00000000       3.17818182       0.00000000       0.00000000      -0.76126868
2
Properties=species:S:1:pos:R:3:forces:R:3 energy=-8.200700098181041 pbc="F F F"
Fe       0.00000000       0.00000000       0.00000000       0.00000000       0.00000000       0.71346956
Fe       0.00000000       0.00000000       3.23696970       0.00000000       0.00000000      -0.71346956
2
Properties=species:S:1:pos:R:3:forces:R:3 energy=-8.16027001631154 pbc="F F F"
Fe       0.00000000       0.00000000       0.00000000       0.00000000       0.00000000       0.66135699
Fe       0.00000000       0.00000000       3.29575758       0.00000000       0.00000000      -0.66135699
2
Properties=species:S:1:pos:R:3:forces:R:3 energy=-8.123019253449444 pbc="F F F"
Fe       0.00000000       0.00000000       0.00000000       0.00000000       0.00000000       0.60528862
Fe       0.00000000       0.00000000       3.35454545       0.00000000       0.00000000      -0.60528862
2
Properties=species:S:1:pos:R:3:forces:R:3 energy=-8.089163448015915 pbc="F F F"
Fe       0.00000000       0.00000000       0.00000000       0.00000000       0.00000000       0.54614329
Fe       0.00000000       0.00000000       3.41333333       0.00000000       0.00000000      -0.54614329
2
Properties=species:S:1:pos:R:3:forces:R:3 energy=-8.058817465736793 pbc="F F F"
Fe       0.00000000       0.00000000       0.00000000       0.00000000       0.00000000       0.48642260
Fe       0.00000000       0.00000000       3.47212121       0.00000000       0.00000000      -0.48642260
2
Properties=species:S:1:pos:R:3:forces:R:3 energy=-8.031918297742775 pbc="F F F"
Fe       0.00000000       0.00000000       0.00000000       0.00000000       0.00000000       0.42943087
Fe       0.00000000       0.00000000       3.53090909       0.00000000       0.00000000      -0.42943087
2
Properties=species:S:1:pos:R:3:forces:R:3 energy=-8.008223146885156 pbc="F F F"
Fe       0.00000000       0.00000000       0.00000000       0.00000000       0.00000000       0.37766090
Fe       0.00000000       0.00000000       3.58969697       0.00000000       0.00000000      -0.37766090
2
Properties=species:S:1:pos:R:3:forces:R:3 energy=-7.98739404332472 pbc="F F F"
Fe       0.00000000       0.00000000       0.00000000       0.00000000       0.00000000       0.33195332
Fe       0.00000000       0.00000000       3.64848485       0.00000000       0.00000000      -0.33195332
2
Properties=species:S:1:pos:R:3:forces:R:3 energy=-7.969083071670185 pbc="F F F"
Fe       0.00000000       0.00000000       0.00000000       0.00000000       0.00000000       0.29190099
Fe       0.00000000       0.00000000       3.70727273       0.00000000       0.00000000      -0.29190099
2
Properties=species:S:1:pos:R:3:forces:R:3 energy=-7.952978400771153 pbc="F F F"
Fe       0.00000000       0.00000000       0.00000000       0.00000000       0.00000000       0.25672367
Fe       0.00000000       0.00000000       3.76606061       0.00000000       0.00000000      -0.25672367
2
Properties=species:S:1:pos:R:3:forces:R:3 energy=-7.938814183256842 pbc="F F F"
Fe       0.00000000       0.00000000       0.00000000       0.00000000       0.00000000       0.22584000
Fe       0.00000000       0.00000000       3.82484848       0.00000000       0.00000000      -0.22584000
2
Properties=species:S:1:pos:R:3:forces:R:3 energy=-7.92634678020244 pbc="F F F"
Fe       0.00000000       0.00000000       0.00000000       0.00000000       0.00000000       0.19896151
Fe       0.00000000       0.00000000       3.88363636       0.00000000       0.00000000      -0.19896151
2
Properties=species:S:1:pos:R:3:forces:R:3 energy=-7.915346225577584 pbc="F F F"
Fe       0.00000000       0.00000000       0.00000000       0.00000000       0.00000000       0.17590861
Fe       0.00000000       0.00000000       3.94242424       0.00000000       0.00000000      -0.17590861
2
Properties=species:S:1:pos:R:3:forces:R:3 energy=-7.9055956575423645 pbc="F F F"
Fe       0.00000000       0.00000000       0.00000000       0.00000000       0.00000000       0.15638447
Fe       0.00000000       0.00000000       4.00121212       0.00000000       0.00000000      -0.15638447
2
Properties=species:S:1:pos:R:3:forces:R:3 energy=-7.896899892012706 pbc="F F F"
Fe       0.00000000       0.00000000       0.00000000       0.00000000       0.00000000       0.13990483
Fe       0.00000000       0.00000000       4.06000000       0.00000000       0.00000000      -0.13990483
2
Properties=species:S:1:pos:R:3:forces:R:3 energy=-7.889097245386835 pbc="F F F"
Fe       0.00000000       0.00000000       0.00000000       0.00000000       0.00000000       0.12589116
Fe       0.00000000       0.00000000       4.11878788       0.00000000       0.00000000      -0.12589116
2
Properties=species:S:1:pos:R:3:forces:R:3 energy=-7.882059986039861 pbc="F F F"
Fe       0.00000000       0.00000000       0.00000000       0.00000000       0.00000000       0.11382408
Fe       0.00000000       0.00000000       4.17757576       0.00000000       0.00000000      -0.11382408
2
Properties=species:S:1:pos:R:3:forces:R:3 energy=-7.875684121170658 pbc="F F F"
Fe       0.00000000       0.00000000       0.00000000       0.00000000       0.00000000       0.10333743
Fe       0.00000000       0.00000000       4.23636364       0.00000000       0.00000000      -0.10333743
2
Properties=species:S:1:pos:R:3:forces:R:3 energy=-7.869882626046988 pbc="F F F"
Fe       0.00000000       0.00000000       0.00000000       0.00000000       0.00000000       0.09421356
Fe       0.00000000       0.00000000       4.29515152       0.00000000       0.00000000      -0.09421356
2
Properties=species:S:1:pos:R:3:forces:R:3 energy=-7.864582061795879 pbc="F F F"
Fe       0.00000000       0.00000000       0.00000000       0.00000000       0.00000000       0.08631693
Fe       0.00000000       0.00000000       4.35393939       0.00000000       0.00000000      -0.08631693
2
Properties=species:S:1:pos:R:3:forces:R:3 energy=-7.859712260880204 pbc="F F F"
Fe       0.00000000       0.00000000       0.00000000       0.00000000       0.00000000       0.07952895
Fe       0.00000000       0.00000000       4.41272727       0.00000000       0.00000000      -0.07952895
2
Properties=species:S:1:pos:R:3:forces:R:3 energy=-7.855212011130709 pbc="F F F"
Fe       0.00000000       0.00000000       0.00000000       0.00000000       0.00000000       0.07372230
Fe       0.00000000       0.00000000       4.47151515       0.00000000       0.00000000      -0.07372230
2
Properties=species:S:1:pos:R:3:forces:R:3 energy=-7.851027997533568 pbc="F F F"
Fe       0.00000000       0.00000000       0.00000000       0.00000000       0.00000000       0.06876744
Fe       0.00000000       0.00000000       4.53030303       0.00000000       0.00000000      -0.06876744
2
Properties=species:S:1:pos:R:3:forces:R:3 energy=-7.847113191153047 pbc="F F F"
Fe       0.00000000       0.00000000       0.00000000       0.00000000       0.00000000       0.06455414
Fe       0.00000000       0.00000000       4.58909091       0.00000000       0.00000000      -0.06455414
2
Properties=species:S:1:pos:R:3:forces:R:3 energy=-7.843424837244739 pbc="F F F"
Fe       0.00000000       0.00000000       0.00000000       0.00000000       0.00000000       0.06100189
Fe       0.00000000       0.00000000       4.64787879       0.00000000       0.00000000      -0.06100189
2
Properties=species:S:1:pos:R:3:forces:R:3 energy=-7.839928285791936 pbc="F F F"
Fe       0.00000000       0.00000000       0.00000000       0.00000000       0.00000000       0.05805735
Fe       0.00000000       0.00000000       4.70666667       0.00000000       0.00000000      -0.05805735
2
Properties=species:S:1:pos:R:3:forces:R:3 energy=-7.836586797359456 pbc="F F F"
Fe       0.00000000       0.00000000       0.00000000       0.00000000       0.00000000       0.05568291
Fe       0.00000000       0.00000000       4.76545455       0.00000000       0.00000000      -0.05568291
2
Properties=species:S:1:pos:R:3:forces:R:3 energy=-7.833370183183275 pbc="F F F"
Fe       0.00000000       0.00000000       0.00000000       0.00000000       0.00000000       0.05384547
Fe       0.00000000       0.00000000       4.82424242       0.00000000       0.00000000      -0.05384547
2
Properties=species:S:1:pos:R:3:forces:R:3 energy=-7.830246654589338 pbc="F F F"
Fe       0.00000000       0.00000000       0.00000000       0.00000000       0.00000000       0.05250841
Fe       0.00000000       0.00000000       4.88303030       0.00000000       0.00000000      -0.05250841
2
Properties=species:S:1:pos:R:3:forces:R:3 energy=-7.827187543847805 pbc="F F F"
Fe       0.00000000       0.00000000       0.00000000       0.00000000       0.00000000       0.05162605
Fe       0.00000000       0.00000000       4.94181818       0.00000000       0.00000000      -0.05162605
2
Properties=species:S:1:pos:R:3:forces:R:3 energy=-7.824168810712258 pbc="F F F"
Fe       0.00000000       0.00000000       0.00000000       0.00000000       0.00000000       0.05112930
Fe       0.00000000       0.00000000       5.00060606       0.00000000       0.00000000      -0.05112930
2
Properties=species:S:1:pos:R:3:forces:R:3 energy=-7.821171099440495 pbc="F F F"
Fe       0.00000000       0.00000000       0.00000000       0.00000000       0.00000000       0.05090870
Fe       0.00000000       0.00000000       5.05939394       0.00000000       0.00000000      -0.05090870
2
Properties=species:S:1:pos:R:3:forces:R:3 energy=-7.818181601793662 pbc="F F F"
Fe       0.00000000       0.00000000       0.00000000       0.00000000       0.00000000       0.05079548
Fe       0.00000000       0.00000000       5.11818182       0.00000000       0.00000000      -0.05079548
2
Properties=species:S:1:pos:R:3:forces:R:3 energy=-7.815200848381968 pbc="F F F"
Fe       0.00000000       0.00000000       0.00000000       0.00000000       0.00000000       0.05055595
Fe       0.00000000       0.00000000       5.17696970       0.00000000       0.00000000      -0.05055595
2
Properties=species:S:1:pos:R:3:forces:R:3 energy=-7.812245590278482 pbc="F F F"
Fe       0.00000000       0.00000000       0.00000000       0.00000000       0.00000000       0.04991021
Fe       0.00000000       0.00000000       5.23575758       0.00000000       0.00000000      -0.04991021
2
Properties=species:S:1:pos:R:3:forces:R:3 energy=-7.809347454038856 pbc="F F F"
Fe       0.00000000       0.00000000       0.00000000       0.00000000       0.00000000       0.04857694
Fe       0.00000000       0.00000000       5.29454545       0.00000000       0.00000000      -0.04857694
2
Properties=species:S:1:pos:R:3:forces:R:3 energy=-7.8065520307926075 pbc="F F F"
Fe       0.00000000       0.00000000       0.00000000       0.00000000       0.00000000       0.04633261
Fe       0.00000000       0.00000000       5.35333333       0.00000000       0.00000000      -0.04633261
2
Properties=species:S:1:pos:R:3:forces:R:3 energy=-7.803918434252002 pbc="F F F"
Fe       0.00000000       0.00000000       0.00000000       0.00000000       0.00000000       0.04307730
Fe       0.00000000       0.00000000       5.41212121       0.00000000       0.00000000      -0.04307730
2
Properties=species:S:1:pos:R:3:forces:R:3 energy=-7.801505077960688 pbc="F F F"
Fe       0.00000000       0.00000000       0.00000000       0.00000000       0.00000000       0.03887282
Fe       0.00000000       0.00000000       5.47090909       0.00000000       0.00000000      -0.03887282
2
Properties=species:S:1:pos:R:3:forces:R:3 energy=-7.799362543327165 pbc="F F F"
Fe       0.00000000       0.00000000       0.00000000       0.00000000       0.00000000       0.03394661
Fe       0.00000000       0.00000000       5.52969697       0.00000000       0.00000000      -0.03394661
2
Properties=species:S:1:pos:R:3:forces:R:3 energy=-7.797521230959913 pbc="F F F"
Fe       0.00000000       0.00000000       0.00000000       0.00000000       0.00000000       0.02866204
Fe       0.00000000       0.00000000       5.58848485       0.00000000       0.00000000      -0.02866204
2
Properties=species:S:1:pos:R:3:forces:R:3 energy=-7.795991435111215 pbc="F F F"
Fe       0.00000000       0.00000000       0.00000000       0.00000000       0.00000000       0.02345105
Fe       0.00000000       0.00000000       5.64727273       0.00000000       0.00000000      -0.02345105
2
Properties=species:S:1:pos:R:3:forces:R:3 energy=-7.79475425842857 pbc="F F F"
Fe       0.00000000       0.00000000       0.00000000       0.00000000       0.00000000       0.01873185
Fe       0.00000000       0.00000000       5.70606061       0.00000000       0.00000000      -0.01873185
2
Properties=species:S:1:pos:R:3:forces:R:3 energy=-7.793772157017112 pbc="F F F"
Fe       0.00000000       0.00000000       0.00000000       0.00000000       0.00000000       0.01483164
Fe       0.00000000       0.00000000       5.76484848       0.00000000       0.00000000      -0.01483164
2
Properties=species:S:1:pos:R:3:forces:R:3 energy=-7.792989963014051 pbc="F F F"
Fe       0.00000000       0.00000000       0.00000000       0.00000000       0.00000000       0.01193693
Fe       0.00000000       0.00000000       5.82363636       0.00000000       0.00000000      -0.01193693
2
Properties=species:S:1:pos:R:3:forces:R:3 energy=-7.792349127930893 pbc="F F F"
Fe       0.00000000       0.00000000       0.00000000       0.00000000       0.00000000       0.01004290
Fe       0.00000000       0.00000000       5.88242424       0.00000000       0.00000000      -0.01004290
2
Properties=species:S:1:pos:R:3:forces:R:3 energy=-7.7917930470577295 pbc="F F F"
Fe       0.00000000       0.00000000       0.00000000       0.00000000       0.00000000       0.00896507
Fe       0.00000000       0.00000000       5.94121212       0.00000000       0.00000000      -0.00896507
2
Properties=species:S:1:pos:R:3:forces:R:3 energy=-7.791285652152634 pbc="F F F"
Fe       0.00000000       0.00000000       0.00000000       0.00000000       0.00000000       0.00836448
Fe       0.00000000       0.00000000       6.00000000       0.00000000       0.00000000      -0.00836448
