2
Properties=species:S:1:pos:R:3:forces:R:3 energy=-45.777951986099616 pbc="F F F"
N        0.00000000       0.00000000       0.00000000       0.00000000       0.00000000    3192.30493164
N        0.00000000       0.00000000       0.18000000       0.00000000       0.00000000   -3192.30493164
2
Properties=species:S:1:pos:R:3:forces:R:3 energy=88.8151533300625 pbc="F F F"
N        0.00000000       0.00000000       0.00000000       0.00000000       0.00000000     566.09051514
N        0.00000000       0.00000000       0.23878788       0.00000000       0.00000000    -566.09051514
2
Properties=species:S:1:pos:R:3:forces:R:3 energy=105.72868940500766 pbc="F F F"
N        0.00000000       0.00000000       0.00000000       0.00000000       0.00000000    -262.66894531
N        0.00000000       0.00000000       0.29757576       0.00000000       0.00000000     262.66894531
2
Properties=species:S:1:pos:R:3:forces:R:3 energy=95.66402266488035 pbc="F F F"
N        0.00000000       0.00000000       0.00000000       0.00000000       0.00000000     578.71093750
N        0.00000000       0.00000000       0.35636364       0.00000000       0.00000000    -578.71093750
2
Properties=species:S:1:pos:R:3:forces:R:3 energy=98.43017410894211 pbc="F F F"
N        0.00000000       0.00000000       0.00000000       0.00000000       0.00000000     -91.42061615
N        0.00000000       0.00000000       0.41515152       0.00000000       0.00000000      91.42061615
2
Properties=species:S:1:pos:R:3:forces:R:3 energy=89.55895832030784 pbc="F F F"
N        0.00000000       0.00000000       0.00000000       0.00000000       0.00000000    -351.25506592
N        0.00000000       0.00000000       0.47393939       0.00000000       0.00000000     351.25506592
2
Properties=species:S:1:pos:R:3:forces:R:3 energy=65.74320826001005 pbc="F F F"
N        0.00000000       0.00000000       0.00000000       0.00000000       0.00000000    -424.12152100
N        0.00000000       0.00000000       0.53272727       0.00000000       0.00000000     424.12152100
2
Properties=species:S:1:pos:R:3:forces:R:3 energy=47.591963248944595 pbc="F F F"
N        0.00000000       0.00000000       0.00000000       0.00000000       0.00000000    -196.96823120
N        0.00000000       0.00000000       0.59151515       0.00000000       0.00000000     196.96823120
2
Properties=species:S:1:pos:R:3:forces:R:3 energy=33.67826713490427 pbc="F F F"
N        0.00000000       0.00000000       0.00000000       0.00000000       0.00000000    -303.72549438
N        0.00000000       0.00000000       0.65030303       0.00000000       0.00000000     303.72549438
2
Properties=species:S:1:pos:R:3:forces:R:3 energy=14.96355049998083 pbc="F F F"
N        0.00000000       0.00000000       0.00000000       0.00000000       0.00000000    -232.14622498
N        0.00000000       0.00000000       0.70909091       0.00000000       0.00000000     232.14622498
2
Properties=species:S:1:pos:R:3:forces:R:3 energy=4.02773701432476 pbc="F F F"
N        0.00000000       0.00000000       0.00000000       0.00000000       0.00000000    -155.61131287
N        0.00000000       0.00000000       0.76787879       0.00000000       0.00000000     155.61131287
2
Properties=species:S:1:pos:R:3:forces:R:3 energy=-3.878684985377057 pbc="F F F"
N        0.00000000       0.00000000       0.00000000       0.00000000       0.00000000    -112.22550964
N        0.00000000       0.00000000       0.82666667       0.00000000       0.00000000     112.22550964
2
Properties=species:S:1:pos:R:3:forces:R:3 energy=-9.400776921560501 pbc="F F F"
N        0.00000000       0.00000000       0.00000000       0.00000000       0.00000000     -77.65917969
N        0.00000000       0.00000000       0.88545455       0.00000000       0.00000000      77.65917969
2
Properties=species:S:1:pos:R:3:forces:R:3 energy=-13.018074766004883 pbc="F F F"
N        0.00000000       0.00000000       0.00000000       0.00000000       0.00000000     -46.88634491
N        0.00000000       0.00000000       0.94424242       0.00000000       0.00000000      46.88634491
2
Properties=species:S:1:pos:R:3:forces:R:3 energy=-15.080224980094545 pbc="F F F"
N        0.00000000       0.00000000       0.00000000       0.00000000       0.00000000     -24.31606102
N        0.00000000       0.00000000       1.00303030       0.00000000       0.00000000      24.31606102
2
Properties=species:S:1:pos:R:3:forces:R:3 energy=-16.024312590372876 pbc="F F F"
N        0.00000000       0.00000000       0.00000000       0.00000000       0.00000000      -8.96729565
N        0.00000000       0.00000000       1.06181818       0.00000000       0.00000000       8.96729565
2
Properties=species:S:1:pos:R:3:forces:R:3 energy=-16.232422287321217 pbc="F F F"
N        0.00000000       0.00000000       0.00000000       0.00000000       0.00000000       1.11567545
N        0.00000000       0.00000000       1.12060606       0.00000000       0.00000000      -1.11567545
2
Properties=species:S:1:pos:R:3:forces:R:3 energy=-15.993588741738089 pbc="F F F"
N        0.00000000       0.00000000       0.00000000       0.00000000       0.00000000       6.57187414
N        0.00000000       0.00000000       1.17939394       0.00000000       0.00000000      -6.57187414
2
Properties=species:S:1:pos:R:3:forces:R:3 energy=-15.516655951597468 pbc="F F F"
N        0.00000000       0.00000000       0.00000000       0.00000000       0.00000000       9.86393261
N        0.00000000       0.00000000       1.23818182       0.00000000       0.00000000      -9.86393261
2
Properties=species:S:1:pos:R:3:forces:R:3 energy=-14.872019198079466 pbc="F F F"
N        0.00000000       0.00000000       0.00000000       0.00000000       0.00000000      11.88912773
N        0.00000000       0.00000000       1.29696970       0.00000000       0.00000000     -11.88912773
2
Properties=species:S:1:pos:R:3:forces:R:3 energy=-14.132212913252555 pbc="F F F"
N        0.00000000       0.00000000       0.00000000       0.00000000       0.00000000      13.09563351
N        0.00000000       0.00000000       1.35575758       0.00000000       0.00000000     -13.09563351
2
Properties=species:S:1:pos:R:3:forces:R:3 energy=-13.349084564505947 pbc="F F F"
N        0.00000000       0.00000000       0.00000000       0.00000000       0.00000000      13.38834190
N        0.00000000       0.00000000       1.41454545       0.00000000       0.00000000     -13.38834190
2
Properties=species:S:1:pos:R:3:forces:R:3 energy=-12.562464654271807 pbc="F F F"
N        0.00000000       0.00000000       0.00000000       0.00000000       0.00000000      13.21370125
N        0.00000000       0.00000000       1.47333333       0.00000000       0.00000000     -13.21370125
2
Properties=species:S:1:pos:R:3:forces:R:3 energy=-11.808260785199616 pbc="F F F"
N        0.00000000       0.00000000       0.00000000       0.00000000       0.00000000      12.50603104
N        0.00000000       0.00000000       1.53212121       0.00000000       0.00000000     -12.50603104
2
Properties=species:S:1:pos:R:3:forces:R:3 energy=-11.089813554554983 pbc="F F F"
N        0.00000000       0.00000000       0.00000000       0.00000000       0.00000000      12.00055790
N        0.00000000       0.00000000       1.59090909       0.00000000       0.00000000     -12.00055790
2
Properties=species:S:1:pos:R:3:forces:R:3 energy=-10.388972752485904 pbc="F F F"
N        0.00000000       0.00000000       0.00000000       0.00000000       0.00000000      11.68579769
N        0.00000000       0.00000000       1.64969697       0.00000000       0.00000000     -11.68579769
2
Properties=species:S:1:pos:R:3:forces:R:3 energy=-9.732208515626784 pbc="F F F"
N        0.00000000       0.00000000       0.00000000       0.00000000       0.00000000      10.72128582
N        0.00000000       0.00000000       1.70848485       0.00000000       0.00000000     -10.72128582
2
Properties=species:S:1:pos:R:3:forces:R:3 energy=-9.12394949980705 pbc="F F F"
N        0.00000000       0.00000000       0.00000000       0.00000000       0.00000000       9.99156189
N        0.00000000       0.00000000       1.76727273       0.00000000       0.00000000      -9.99156189
2
Properties=species:S:1:pos:R:3:forces:R:3 energy=-8.56376464477297 pbc="F F F"
N        0.00000000       0.00000000       0.00000000       0.00000000       0.00000000       8.95800018
N        0.00000000       0.00000000       1.82606061       0.00000000       0.00000000      -8.95800018
2
Properties=species:S:1:pos:R:3:forces:R:3 energy=-8.060008838678264 pbc="F F F"
N        0.00000000       0.00000000       0.00000000       0.00000000       0.00000000       8.19215298
N        0.00000000       0.00000000       1.88484848       0.00000000       0.00000000      -8.19215298
2
Properties=species:S:1:pos:R:3:forces:R:3 energy=-7.608166631435528 pbc="F F F"
N        0.00000000       0.00000000       0.00000000       0.00000000       0.00000000       7.12247467
N        0.00000000       0.00000000       1.94363636       0.00000000       0.00000000      -7.12247467
2
Properties=species:S:1:pos:R:3:forces:R:3 energy=-7.228163305977141 pbc="F F F"
N        0.00000000       0.00000000       0.00000000       0.00000000       0.00000000       5.77806234
N        0.00000000       0.00000000       2.00242424       0.00000000       0.00000000      -5.77806234
2
Properties=species:S:1:pos:R:3:forces:R:3 energy=-6.924346728037742 pbc="F F F"
N        0.00000000       0.00000000       0.00000000       0.00000000       0.00000000       4.63836193
N        0.00000000       0.00000000       2.06121212       0.00000000       0.00000000      -4.63836193
2
Properties=species:S:1:pos:R:3:forces:R:3 energy=-6.679745894570257 pbc="F F F"
N        0.00000000       0.00000000       0.00000000       0.00000000       0.00000000       3.68067479
N        0.00000000       0.00000000       2.12000000       0.00000000       0.00000000      -3.68067479
2
Properties=species:S:1:pos:R:3:forces:R:3 energy=-6.4885380328632865 pbc="F F F"
N        0.00000000       0.00000000       0.00000000       0.00000000       0.00000000       2.85678792
N        0.00000000       0.00000000       2.17878788       0.00000000       0.00000000      -2.85678792
2
Properties=species:S:1:pos:R:3:forces:R:3 energy=-6.342416176225138 pbc="F F F"
N        0.00000000       0.00000000       0.00000000       0.00000000       0.00000000       2.12492657
N        0.00000000       0.00000000       2.23757576       0.00000000       0.00000000      -2.12492657
2
Properties=species:S:1:pos:R:3:forces:R:3 energy=-6.235714391735523 pbc="F F F"
N        0.00000000       0.00000000       0.00000000       0.00000000       0.00000000       1.53076470
N        0.00000000       0.00000000       2.29636364       0.00000000       0.00000000      -1.53076470
2
Properties=species:S:1:pos:R:3:forces:R:3 energy=-6.160317929256796 pbc="F F F"
N        0.00000000       0.00000000       0.00000000       0.00000000       0.00000000       1.05491686
N        0.00000000       0.00000000       2.35515152       0.00000000       0.00000000      -1.05491686
2
Properties=species:S:1:pos:R:3:forces:R:3 energy=-6.108397618415427 pbc="F F F"
N        0.00000000       0.00000000       0.00000000       0.00000000       0.00000000       0.74030769
N        0.00000000       0.00000000       2.41393939       0.00000000       0.00000000      -0.74030769
2
Properties=species:S:1:pos:R:3:forces:R:3 energy=-6.070645499680806 pbc="F F F"
N        0.00000000       0.00000000       0.00000000       0.00000000       0.00000000       0.55847925
N        0.00000000       0.00000000       2.47272727       0.00000000       0.00000000      -0.55847925
2
Properties=species:S:1:pos:R:3:forces:R:3 energy=-6.0418218036304685 pbc="F F F"
N        0.00000000       0.00000000       0.00000000       0.00000000       0.00000000       0.42544714
N        0.00000000       0.00000000       2.53151515       0.00000000       0.00000000      -0.42544714
2
Properties=species:S:1:pos:R:3:forces:R:3 energy=-6.020300262129171 pbc="F F F"
N        0.00000000       0.00000000       0.00000000       0.00000000       0.00000000       0.31016496
N        0.00000000       0.00000000       2.59030303       0.00000000       0.00000000      -0.31016496
2
Properties=species:S:1:pos:R:3:forces:R:3 energy=-6.004909658578235 pbc="F F F"
N        0.00000000       0.00000000       0.00000000       0.00000000       0.00000000       0.21731173
N        0.00000000       0.00000000       2.64909091       0.00000000       0.00000000      -0.21731173
2
Properties=species:S:1:pos:R:3:forces:R:3 energy=-5.994251085804024 pbc="F F F"
N        0.00000000       0.00000000       0.00000000       0.00000000       0.00000000       0.14972557
N        0.00000000       0.00000000       2.70787879       0.00000000       0.00000000      -0.14972557
2
Properties=species:S:1:pos:R:3:forces:R:3 energy=-5.9868324679895295 pbc="F F F"
N        0.00000000       0.00000000       0.00000000       0.00000000       0.00000000       0.10587128
N        0.00000000       0.00000000       2.76666667       0.00000000       0.00000000      -0.10587128
2
Properties=species:S:1:pos:R:3:forces:R:3 energy=-5.981519696143365 pbc="F F F"
N        0.00000000       0.00000000       0.00000000       0.00000000       0.00000000       0.07675823
N        0.00000000       0.00000000       2.82545455       0.00000000       0.00000000      -0.07675823
2
Properties=species:S:1:pos:R:3:forces:R:3 energy=-5.977633918719151 pbc="F F F"
N        0.00000000       0.00000000       0.00000000       0.00000000       0.00000000       0.05676810
N        0.00000000       0.00000000       2.88424242       0.00000000       0.00000000      -0.05676810
2
Properties=species:S:1:pos:R:3:forces:R:3 energy=-5.974655921584363 pbc="F F F"
N        0.00000000       0.00000000       0.00000000       0.00000000       0.00000000       0.04644826
N        0.00000000       0.00000000       2.94303030       0.00000000       0.00000000      -0.04644826
2
Properties=species:S:1:pos:R:3:forces:R:3 energy=-5.971943823791604 pbc="F F F"
N        0.00000000       0.00000000       0.00000000       0.00000000       0.00000000       0.04763733
N        0.00000000       0.00000000       3.00181818       0.00000000       0.00000000      -0.04763733
2
Properties=species:S:1:pos:R:3:forces:R:3 energy=-5.968908512471141 pbc="F F F"
N        0.00000000       0.00000000       0.00000000       0.00000000       0.00000000       0.05595685
N        0.00000000       0.00000000       3.06060606       0.00000000       0.00000000      -0.05595685
2
Properties=species:S:1:pos:R:3:forces:R:3 energy=-5.9654046199982735 pbc="F F F"
N        0.00000000       0.00000000       0.00000000       0.00000000       0.00000000       0.06240773
N        0.00000000       0.00000000       3.11939394       0.00000000       0.00000000      -0.06240773
2
Properties=species:S:1:pos:R:3:forces:R:3 energy=-5.961704697175149 pbc="F F F"
N        0.00000000       0.00000000       0.00000000       0.00000000       0.00000000       0.06257367
N        0.00000000       0.00000000       3.17818182       0.00000000       0.00000000      -0.06257367
2
Properties=species:S:1:pos:R:3:forces:R:3 energy=-5.958114803285696 pbc="F F F"
N        0.00000000       0.00000000       0.00000000       0.00000000       0.00000000       0.05932309
N        0.00000000       0.00000000       3.23696970       0.00000000       0.00000000      -0.05932309
2
Properties=species:S:1:pos:R:3:forces:R:3 energy=-5.95472170954187 pbc="F F F"
N        0.00000000       0.00000000       0.00000000       0.00000000       0.00000000       0.05628865
N        0.00000000       0.00000000       3.29575758       0.00000000       0.00000000      -0.05628865
2
Properties=species:S:1:pos:R:3:forces:R:3 energy=-5.9514834015251346 pbc="F F F"
N        0.00000000       0.00000000       0.00000000       0.00000000       0.00000000       0.05397265
N        0.00000000       0.00000000       3.35454545       0.00000000       0.00000000      -0.05397265
2
Properties=species:S:1:pos:R:3:forces:R:3 energy=-5.948380622327882 pbc="F F F"
N        0.00000000       0.00000000       0.00000000       0.00000000       0.00000000       0.05151750
N        0.00000000       0.00000000       3.41333333       0.00000000       0.00000000      -0.05151750
2
Properties=species:S:1:pos:R:3:forces:R:3 energy=-5.945432087388966 pbc="F F F"
N        0.00000000       0.00000000       0.00000000       0.00000000       0.00000000       0.04876873
N        0.00000000       0.00000000       3.47212121       0.00000000       0.00000000      -0.04876873
2
Properties=species:S:1:pos:R:3:forces:R:3 energy=-5.942637177315586 pbc="F F F"
N        0.00000000       0.00000000       0.00000000       0.00000000       0.00000000       0.04631038
N        0.00000000       0.00000000       3.53090909       0.00000000       0.00000000      -0.04631038
2
Properties=species:S:1:pos:R:3:forces:R:3 energy=-5.939973992916761 pbc="F F F"
N        0.00000000       0.00000000       0.00000000       0.00000000       0.00000000       0.04454115
N        0.00000000       0.00000000       3.58969697       0.00000000       0.00000000      -0.04454115
2
Properties=species:S:1:pos:R:3:forces:R:3 energy=-5.937395530606631 pbc="F F F"
N        0.00000000       0.00000000       0.00000000       0.00000000       0.00000000       0.04311506
N        0.00000000       0.00000000       3.64848485       0.00000000       0.00000000      -0.04311506
2
Properties=species:S:1:pos:R:3:forces:R:3 energy=-5.934909765704445 pbc="F F F"
N        0.00000000       0.00000000       0.00000000       0.00000000       0.00000000       0.04119427
N        0.00000000       0.00000000       3.70727273       0.00000000       0.00000000      -0.04119427
2
Properties=species:S:1:pos:R:3:forces:R:3 energy=-5.932573941872026 pbc="F F F"
N        0.00000000       0.00000000       0.00000000       0.00000000       0.00000000       0.03810675
N        0.00000000       0.00000000       3.76606061       0.00000000       0.00000000      -0.03810675
2
Properties=species:S:1:pos:R:3:forces:R:3 energy=-5.930455494225462 pbc="F F F"
N        0.00000000       0.00000000       0.00000000       0.00000000       0.00000000       0.03379740
N        0.00000000       0.00000000       3.82484848       0.00000000       0.00000000      -0.03379740
2
Properties=species:S:1:pos:R:3:forces:R:3 energy=-5.928612984560289 pbc="F F F"
N        0.00000000       0.00000000       0.00000000       0.00000000       0.00000000       0.02879964
N        0.00000000       0.00000000       3.88363636       0.00000000       0.00000000      -0.02879964
2
Properties=species:S:1:pos:R:3:forces:R:3 energy=-5.927068498253314 pbc="F F F"
N        0.00000000       0.00000000       0.00000000       0.00000000       0.00000000       0.02386639
N        0.00000000       0.00000000       3.94242424       0.00000000       0.00000000      -0.02386639
2
Properties=species:S:1:pos:R:3:forces:R:3 energy=-5.925798127318341 pbc="F F F"
N        0.00000000       0.00000000       0.00000000       0.00000000       0.00000000       0.01957839
N        0.00000000       0.00000000       4.00121212       0.00000000       0.00000000      -0.01957839
2
Properties=species:S:1:pos:R:3:forces:R:3 energy=-5.924752035778666 pbc="F F F"
N        0.00000000       0.00000000       0.00000000       0.00000000       0.00000000       0.01618407
N        0.00000000       0.00000000       4.06000000       0.00000000       0.00000000      -0.01618407
2
Properties=species:S:1:pos:R:3:forces:R:3 energy=-5.923873571167274 pbc="F F F"
N        0.00000000       0.00000000       0.00000000       0.00000000       0.00000000       0.01367022
N        0.00000000       0.00000000       4.11878788       0.00000000       0.00000000      -0.01367022
2
Properties=species:S:1:pos:R:3:forces:R:3 energy=-5.923129812991231 pbc="F F F"
N        0.00000000       0.00000000       0.00000000       0.00000000       0.00000000       0.01189244
N        0.00000000       0.00000000       4.17757576       0.00000000       0.00000000      -0.01189244
2
Properties=species:S:1:pos:R:3:forces:R:3 energy=-5.922466770035687 pbc="F F F"
N        0.00000000       0.00000000       0.00000000       0.00000000       0.00000000       0.01065493
N        0.00000000       0.00000000       4.23636364       0.00000000       0.00000000      -0.01065493
2
Properties=species:S:1:pos:R:3:forces:R:3 energy=-5.921869497087832 pbc="F F F"
N        0.00000000       0.00000000       0.00000000       0.00000000       0.00000000       0.00972080
N        0.00000000       0.00000000       4.29515152       0.00000000       0.00000000      -0.00972080
2
Properties=species:S:1:pos:R:3:forces:R:3 energy=-5.921323970336987 pbc="F F F"
N        0.00000000       0.00000000       0.00000000       0.00000000       0.00000000       0.00881956
N        0.00000000       0.00000000       4.35393939       0.00000000       0.00000000      -0.00881956
2
Properties=species:S:1:pos:R:3:forces:R:3 energy=-5.920837120474911 pbc="F F F"
N        0.00000000       0.00000000       0.00000000       0.00000000       0.00000000       0.00769219
N        0.00000000       0.00000000       4.41272727       0.00000000       0.00000000      -0.00769219
2
Properties=species:S:1:pos:R:3:forces:R:3 energy=-5.920429224882057 pbc="F F F"
N        0.00000000       0.00000000       0.00000000       0.00000000       0.00000000       0.00617720
N        0.00000000       0.00000000       4.47151515       0.00000000       0.00000000      -0.00617720
2
Properties=species:S:1:pos:R:3:forces:R:3 energy=-5.9201158032587005 pbc="F F F"
N        0.00000000       0.00000000       0.00000000       0.00000000       0.00000000       0.00428358
N        0.00000000       0.00000000       4.53030303       0.00000000       0.00000000      -0.00428358
2
Properties=species:S:1:pos:R:3:forces:R:3 energy=-5.919926691309248 pbc="F F F"
N        0.00000000       0.00000000       0.00000000       0.00000000       0.00000000       0.00221290
N        0.00000000       0.00000000       4.58909091       0.00000000       0.00000000      -0.00221290
2
Properties=species:S:1:pos:R:3:forces:R:3 energy=-5.919852646265889 pbc="F F F"
N        0.00000000       0.00000000       0.00000000       0.00000000       0.00000000       0.00030526
N        0.00000000       0.00000000       4.64787879       0.00000000       0.00000000      -0.00030526
2
Properties=species:S:1:pos:R:3:forces:R:3 energy=-5.919877778744966 pbc="F F F"
N        0.00000000       0.00000000       0.00000000       0.00000000       0.00000000      -0.00106787
N        0.00000000       0.00000000       4.70666667       0.00000000       0.00000000       0.00106787
2
Properties=species:S:1:pos:R:3:forces:R:3 energy=-5.919965244464402 pbc="F F F"
N        0.00000000       0.00000000       0.00000000       0.00000000       0.00000000      -0.00162123
N        0.00000000       0.00000000       4.76545455       0.00000000       0.00000000       0.00162123
2
Properties=species:S:1:pos:R:3:forces:R:3 energy=-5.920052484187655 pbc="F F F"
N        0.00000000       0.00000000       0.00000000       0.00000000       0.00000000      -0.00123818
N        0.00000000       0.00000000       4.82424242       0.00000000       0.00000000       0.00123818
2
Properties=species:S:1:pos:R:3:forces:R:3 energy=-5.9200912770550635 pbc="F F F"
N        0.00000000       0.00000000       0.00000000       0.00000000       0.00000000       0.00001278
N        0.00000000       0.00000000       4.88303030       0.00000000       0.00000000      -0.00001278
2
Properties=species:S:1:pos:R:3:forces:R:3 energy=-5.920039153852199 pbc="F F F"
N        0.00000000       0.00000000       0.00000000       0.00000000       0.00000000       0.00191877
N        0.00000000       0.00000000       4.94181818       0.00000000       0.00000000      -0.00191877
2
Properties=species:S:1:pos:R:3:forces:R:3 energy=-5.919858448087288 pbc="F F F"
N        0.00000000       0.00000000       0.00000000       0.00000000       0.00000000       0.00419487
N        0.00000000       0.00000000       5.00060606       0.00000000       0.00000000      -0.00419487
2
Properties=species:S:1:pos:R:3:forces:R:3 energy=-5.919542997189165 pbc="F F F"
N        0.00000000       0.00000000       0.00000000       0.00000000       0.00000000       0.00655404
N        0.00000000       0.00000000       5.05939394       0.00000000       0.00000000      -0.00655404
2
Properties=species:S:1:pos:R:3:forces:R:3 energy=-5.919090482487292 pbc="F F F"
N        0.00000000       0.00000000       0.00000000       0.00000000       0.00000000       0.00875180
N        0.00000000       0.00000000       5.11818182       0.00000000       0.00000000      -0.00875180
2
Properties=species:S:1:pos:R:3:forces:R:3 energy=-5.918516734920465 pbc="F F F"
N        0.00000000       0.00000000       0.00000000       0.00000000       0.00000000       0.01059979
N        0.00000000       0.00000000       5.17696970       0.00000000       0.00000000      -0.01059979
2
Properties=species:S:1:pos:R:3:forces:R:3 energy=-5.917856686533263 pbc="F F F"
N        0.00000000       0.00000000       0.00000000       0.00000000       0.00000000       0.01196051
N        0.00000000       0.00000000       5.23575758       0.00000000       0.00000000      -0.01196051
2
Properties=species:S:1:pos:R:3:forces:R:3 energy=-5.917126222315449 pbc="F F F"
N        0.00000000       0.00000000       0.00000000       0.00000000       0.00000000       0.01273866
N        0.00000000       0.00000000       5.29454545       0.00000000       0.00000000      -0.01273866
2
Properties=species:S:1:pos:R:3:forces:R:3 energy=-5.916367955480224 pbc="F F F"
N        0.00000000       0.00000000       0.00000000       0.00000000       0.00000000       0.01287933
N        0.00000000       0.00000000       5.35333333       0.00000000       0.00000000      -0.01287933
2
Properties=species:S:1:pos:R:3:forces:R:3 energy=-5.915622613967917 pbc="F F F"
N        0.00000000       0.00000000       0.00000000       0.00000000       0.00000000       0.01237476
N        0.00000000       0.00000000       5.41212121       0.00000000       0.00000000      -0.01237476
2
Properties=species:S:1:pos:R:3:forces:R:3 energy=-5.914927133245844 pbc="F F F"
N        0.00000000       0.00000000       0.00000000       0.00000000       0.00000000       0.01127788
N        0.00000000       0.00000000       5.47090909       0.00000000       0.00000000      -0.01127788
2
Properties=species:S:1:pos:R:3:forces:R:3 energy=-5.914308931936038 pbc="F F F"
N        0.00000000       0.00000000       0.00000000       0.00000000       0.00000000       0.00970531
N        0.00000000       0.00000000       5.52969697       0.00000000       0.00000000      -0.00970531
2
Properties=species:S:1:pos:R:3:forces:R:3 energy=-5.913792585456584 pbc="F F F"
N        0.00000000       0.00000000       0.00000000       0.00000000       0.00000000       0.00783114
N        0.00000000       0.00000000       5.58848485       0.00000000       0.00000000      -0.00783114
2
Properties=species:S:1:pos:R:3:forces:R:3 energy=-5.913386475868115 pbc="F F F"
N        0.00000000       0.00000000       0.00000000       0.00000000       0.00000000       0.00586634
N        0.00000000       0.00000000       5.64727273       0.00000000       0.00000000      -0.00586634
2
Properties=species:S:1:pos:R:3:forces:R:3 energy=-5.913098999337971 pbc="F F F"
N        0.00000000       0.00000000       0.00000000       0.00000000       0.00000000       0.00402546
N        0.00000000       0.00000000       5.70606061       0.00000000       0.00000000      -0.00402546
2
Properties=species:S:1:pos:R:3:forces:R:3 energy=-5.912909956653168 pbc="F F F"
N        0.00000000       0.00000000       0.00000000       0.00000000       0.00000000       0.00248802
N        0.00000000       0.00000000       5.76484848       0.00000000       0.00000000      -0.00248802
2
Properties=species:S:1:pos:R:3:forces:R:3 energy=-5.912800117421188 pbc="F F F"
N        0.00000000       0.00000000       0.00000000       0.00000000       0.00000000       0.00137415
N        0.00000000       0.00000000       5.82363636       0.00000000       0.00000000      -0.00137415
2
Properties=species:S:1:pos:R:3:forces:R:3 energy=-5.912737864323288 pbc="F F F"
N        0.00000000       0.00000000       0.00000000       0.00000000       0.00000000       0.00070926
N        0.00000000       0.00000000       5.88242424       0.00000000       0.00000000      -0.00070926
2
Properties=species:S:1:pos:R:3:forces:R:3 energy=-5.912706850758622 pbc="F F F"
N        0.00000000       0.00000000       0.00000000       0.00000000       0.00000000       0.00042327
N        0.00000000       0.00000000       5.94121212       0.00000000       0.00000000      -0.00042327
2
Properties=species:S:1:pos:R:3:forces:R:3 energy=-5.912685972842136 pbc="F F F"
N        0.00000000       0.00000000       0.00000000       0.00000000       0.00000000       0.00035882
N        0.00000000       0.00000000       6.00000000       0.00000000       0.00000000      -0.00035882
