2
Properties=species:S:1:pos:R:3:forces:R:3 energy=-7170412.059967197 pbc="F F F"
Pu       0.00000000       0.00000000       0.00000000       0.00000000       0.00000000 70024832.00000000
Pu       0.00000000       0.00000000       0.18000000       0.00000000       0.00000000 -70024832.00000000
2
Properties=species:S:1:pos:R:3:forces:R:3 energy=-3636730.8099671965 pbc="F F F"
Pu       0.00000000       0.00000000       0.00000000       0.00000000       0.00000000 48732272.00000000
Pu       0.00000000       0.00000000       0.23878788       0.00000000       0.00000000 -48732272.00000000
2
Properties=species:S:1:pos:R:3:forces:R:3 energy=-1468760.4349671963 pbc="F F F"
Pu       0.00000000       0.00000000       0.00000000       0.00000000       0.00000000 25761014.00000000
Pu       0.00000000       0.00000000       0.29757576       0.00000000       0.00000000 -25761014.00000000
2
Properties=species:S:1:pos:R:3:forces:R:3 energy=-458205.3412171964 pbc="F F F"
Pu       0.00000000       0.00000000       0.00000000       0.00000000       0.00000000 10117364.00000000
Pu       0.00000000       0.00000000       0.35636364       0.00000000       0.00000000 -10117364.00000000
2
Properties=species:S:1:pos:R:3:forces:R:3 energy=-108204.30215469637 pbc="F F F"
Pu       0.00000000       0.00000000       0.00000000       0.00000000       0.00000000 2914105.25000000
Pu       0.00000000       0.00000000       0.41515152       0.00000000       0.00000000 -2914105.25000000
2
Properties=species:S:1:pos:R:3:forces:R:3 energy=-18858.00332656504 pbc="F F F"
Pu       0.00000000       0.00000000       0.00000000       0.00000000       0.00000000  628385.12500000
Pu       0.00000000       0.00000000       0.47393939       0.00000000       0.00000000 -628385.12500000
2
Properties=species:S:1:pos:R:3:forces:R:3 energy=-2134.313141011832 pbc="F F F"
Pu       0.00000000       0.00000000       0.00000000       0.00000000       0.00000000   86027.29687500
Pu       0.00000000       0.00000000       0.53272727       0.00000000       0.00000000  -86027.29687500
2
Properties=species:S:1:pos:R:3:forces:R:3 energy=-214.43661512025477 pbc="F F F"
Pu       0.00000000       0.00000000       0.00000000       0.00000000       0.00000000    7751.20800781
Pu       0.00000000       0.00000000       0.59151515       0.00000000       0.00000000   -7751.20800781
2
Properties=species:S:1:pos:R:3:forces:R:3 energy=-38.88937389031034 pbc="F F F"
Pu       0.00000000       0.00000000       0.00000000       0.00000000       0.00000000     732.08526611
Pu       0.00000000       0.00000000       0.65030303       0.00000000       0.00000000    -732.08526611
2
Properties=species:S:1:pos:R:3:forces:R:3 energy=-24.200817187489537 pbc="F F F"
Pu       0.00000000       0.00000000       0.00000000       0.00000000       0.00000000      52.95384216
Pu       0.00000000       0.00000000       0.70909091       0.00000000       0.00000000     -52.95384216
2
Properties=species:S:1:pos:R:3:forces:R:3 energy=-23.55296710018329 pbc="F F F"
Pu       0.00000000       0.00000000       0.00000000       0.00000000       0.00000000     -23.73064423
Pu       0.00000000       0.00000000       0.76787879       0.00000000       0.00000000      23.73064423
2
Properties=species:S:1:pos:R:3:forces:R:3 energy=-25.326114613499016 pbc="F F F"
Pu       0.00000000       0.00000000       0.00000000       0.00000000       0.00000000     -35.40884018
Pu       0.00000000       0.00000000       0.82666667       0.00000000       0.00000000      35.40884018
2
Properties=species:S:1:pos:R:3:forces:R:3 energy=-27.53360924784648 pbc="F F F"
Pu       0.00000000       0.00000000       0.00000000       0.00000000       0.00000000     -30.77651787
Pu       0.00000000       0.00000000       0.88545455       0.00000000       0.00000000      30.77651787
2
Properties=species:S:1:pos:R:3:forces:R:3 energy=-28.732497880813185 pbc="F F F"
Pu       0.00000000       0.00000000       0.00000000       0.00000000       0.00000000      -9.71979046
Pu       0.00000000       0.00000000       0.94424242       0.00000000       0.00000000       9.71979046
2
Properties=species:S:1:pos:R:3:forces:R:3 energy=-28.590604297567392 pbc="F F F"
Pu       0.00000000       0.00000000       0.00000000       0.00000000       0.00000000      11.57456970
Pu       0.00000000       0.00000000       1.00303030       0.00000000       0.00000000     -11.57456970
2
Properties=species:S:1:pos:R:3:forces:R:3 energy=-27.641577923682245 pbc="F F F"
Pu       0.00000000       0.00000000       0.00000000       0.00000000       0.00000000      19.29726791
Pu       0.00000000       0.00000000       1.06181818       0.00000000       0.00000000     -19.29726791
2
Properties=species:S:1:pos:R:3:forces:R:3 energy=-26.59919628226507 pbc="F F F"
Pu       0.00000000       0.00000000       0.00000000       0.00000000       0.00000000      11.25524044
Pu       0.00000000       0.00000000       1.12060606       0.00000000       0.00000000     -11.25524044
2
Properties=species:S:1:pos:R:3:forces:R:3 energy=-26.2295440189938 pbc="F F F"
Pu       0.00000000       0.00000000       0.00000000       0.00000000       0.00000000       3.28910398
Pu       0.00000000       0.00000000       1.17939394       0.00000000       0.00000000      -3.28910398
2
Properties=species:S:1:pos:R:3:forces:R:3 energy=-25.86606762388269 pbc="F F F"
Pu       0.00000000       0.00000000       0.00000000       0.00000000       0.00000000       5.86166000
Pu       0.00000000       0.00000000       1.23818182       0.00000000       0.00000000      -5.86166000
2
Properties=species:S:1:pos:R:3:forces:R:3 energy=-25.73496334164473 pbc="F F F"
Pu       0.00000000       0.00000000       0.00000000       0.00000000       0.00000000       1.10951388
Pu       0.00000000       0.00000000       1.29696970       0.00000000       0.00000000      -1.10951388
2
Properties=species:S:1:pos:R:3:forces:R:3 energy=-25.70551862511078 pbc="F F F"
Pu       0.00000000       0.00000000       0.00000000       0.00000000       0.00000000       0.04930417
Pu       0.00000000       0.00000000       1.35575758       0.00000000       0.00000000      -0.04930417
2
Properties=species:S:1:pos:R:3:forces:R:3 energy=-25.630846617041097 pbc="F F F"
Pu       0.00000000       0.00000000       0.00000000       0.00000000       0.00000000       2.99345207
Pu       0.00000000       0.00000000       1.41454545       0.00000000       0.00000000      -2.99345207
2
Properties=species:S:1:pos:R:3:forces:R:3 energy=-25.42516426198979 pbc="F F F"
Pu       0.00000000       0.00000000       0.00000000       0.00000000       0.00000000       3.06193638
Pu       0.00000000       0.00000000       1.47333333       0.00000000       0.00000000      -3.06193638
2
Properties=species:S:1:pos:R:3:forces:R:3 energy=-25.269764984149234 pbc="F F F"
Pu       0.00000000       0.00000000       0.00000000       0.00000000       0.00000000       3.00230503
Pu       0.00000000       0.00000000       1.53212121       0.00000000       0.00000000      -3.00230503
2
Properties=species:S:1:pos:R:3:forces:R:3 energy=-25.051108083420214 pbc="F F F"
Pu       0.00000000       0.00000000       0.00000000       0.00000000       0.00000000       4.48600817
Pu       0.00000000       0.00000000       1.59090909       0.00000000       0.00000000      -4.48600817
2
Properties=species:S:1:pos:R:3:forces:R:3 energy=-24.726747328293463 pbc="F F F"
Pu       0.00000000       0.00000000       0.00000000       0.00000000       0.00000000       6.29311609
Pu       0.00000000       0.00000000       1.64969697       0.00000000       0.00000000      -6.29311609
2
Properties=species:S:1:pos:R:3:forces:R:3 energy=-24.336981123662238 pbc="F F F"
Pu       0.00000000       0.00000000       0.00000000       0.00000000       0.00000000       6.72952700
Pu       0.00000000       0.00000000       1.70848485       0.00000000       0.00000000      -6.72952700
2
Properties=species:S:1:pos:R:3:forces:R:3 energy=-23.967622884159457 pbc="F F F"
Pu       0.00000000       0.00000000       0.00000000       0.00000000       0.00000000       5.64647865
Pu       0.00000000       0.00000000       1.76727273       0.00000000       0.00000000      -5.64647865
2
Properties=species:S:1:pos:R:3:forces:R:3 energy=-23.664620524307974 pbc="F F F"
Pu       0.00000000       0.00000000       0.00000000       0.00000000       0.00000000       4.81679726
Pu       0.00000000       0.00000000       1.82606061       0.00000000       0.00000000      -4.81679726
2
Properties=species:S:1:pos:R:3:forces:R:3 energy=-23.401484678589338 pbc="F F F"
Pu       0.00000000       0.00000000       0.00000000       0.00000000       0.00000000       4.16723251
Pu       0.00000000       0.00000000       1.88484848       0.00000000       0.00000000      -4.16723251
2
Properties=species:S:1:pos:R:3:forces:R:3 energy=-23.176326932472886 pbc="F F F"
Pu       0.00000000       0.00000000       0.00000000       0.00000000       0.00000000       3.52163982
Pu       0.00000000       0.00000000       1.94363636       0.00000000       0.00000000      -3.52163982
2
Properties=species:S:1:pos:R:3:forces:R:3 energy=-22.99563211925472 pbc="F F F"
Pu       0.00000000       0.00000000       0.00000000       0.00000000       0.00000000       2.43470550
Pu       0.00000000       0.00000000       2.00242424       0.00000000       0.00000000      -2.43470550
2
Properties=species:S:1:pos:R:3:forces:R:3 energy=-22.90896446112293 pbc="F F F"
Pu       0.00000000       0.00000000       0.00000000       0.00000000       0.00000000       0.52863109
Pu       0.00000000       0.00000000       2.06121212       0.00000000       0.00000000      -0.52863109
2
Properties=species:S:1:pos:R:3:forces:R:3 energy=-22.913281527931925 pbc="F F F"
Pu       0.00000000       0.00000000       0.00000000       0.00000000       0.00000000      -0.48678026
Pu       0.00000000       0.00000000       2.12000000       0.00000000       0.00000000       0.48678026
2
Properties=species:S:1:pos:R:3:forces:R:3 energy=-22.958084205223887 pbc="F F F"
Pu       0.00000000       0.00000000       0.00000000       0.00000000       0.00000000      -1.06164813
Pu       0.00000000       0.00000000       2.17878788       0.00000000       0.00000000       1.06164813
2
Properties=species:S:1:pos:R:3:forces:R:3 energy=-23.037142895959086 pbc="F F F"
Pu       0.00000000       0.00000000       0.00000000       0.00000000       0.00000000      -1.56910443
Pu       0.00000000       0.00000000       2.23757576       0.00000000       0.00000000       1.56910443
2
Properties=species:S:1:pos:R:3:forces:R:3 energy=-23.13631823465315 pbc="F F F"
Pu       0.00000000       0.00000000       0.00000000       0.00000000       0.00000000      -1.75763285
Pu       0.00000000       0.00000000       2.29636364       0.00000000       0.00000000       1.75763285
2
Properties=species:S:1:pos:R:3:forces:R:3 energy=-23.237738288588893 pbc="F F F"
Pu       0.00000000       0.00000000       0.00000000       0.00000000       0.00000000      -1.65743494
Pu       0.00000000       0.00000000       2.35515152       0.00000000       0.00000000       1.65743494
2
Properties=species:S:1:pos:R:3:forces:R:3 energy=-23.33079235694474 pbc="F F F"
Pu       0.00000000       0.00000000       0.00000000       0.00000000       0.00000000      -1.52275562
Pu       0.00000000       0.00000000       2.41393939       0.00000000       0.00000000       1.52275562
2
Properties=species:S:1:pos:R:3:forces:R:3 energy=-23.418908192303984 pbc="F F F"
Pu       0.00000000       0.00000000       0.00000000       0.00000000       0.00000000      -1.49058175
Pu       0.00000000       0.00000000       2.47272727       0.00000000       0.00000000       1.49058175
2
Properties=species:S:1:pos:R:3:forces:R:3 energy=-23.50596745821066 pbc="F F F"
Pu       0.00000000       0.00000000       0.00000000       0.00000000       0.00000000      -1.45796847
Pu       0.00000000       0.00000000       2.53151515       0.00000000       0.00000000       1.45796847
2
Properties=species:S:1:pos:R:3:forces:R:3 energy=-23.58969187408035 pbc="F F F"
Pu       0.00000000       0.00000000       0.00000000       0.00000000       0.00000000      -1.39776027
Pu       0.00000000       0.00000000       2.59030303       0.00000000       0.00000000       1.39776027
2
Properties=species:S:1:pos:R:3:forces:R:3 energy=-23.67177851737453 pbc="F F F"
Pu       0.00000000       0.00000000       0.00000000       0.00000000       0.00000000      -1.40531361
Pu       0.00000000       0.00000000       2.64909091       0.00000000       0.00000000       1.40531361
2
Properties=species:S:1:pos:R:3:forces:R:3 energy=-23.75491926491625 pbc="F F F"
Pu       0.00000000       0.00000000       0.00000000       0.00000000       0.00000000      -1.41081572
Pu       0.00000000       0.00000000       2.70787879       0.00000000       0.00000000       1.41081572
2
Properties=species:S:1:pos:R:3:forces:R:3 energy=-23.835477055649108 pbc="F F F"
Pu       0.00000000       0.00000000       0.00000000       0.00000000       0.00000000      -1.31203389
Pu       0.00000000       0.00000000       2.76666667       0.00000000       0.00000000       1.31203389
2
Properties=species:S:1:pos:R:3:forces:R:3 energy=-23.907913328322973 pbc="F F F"
Pu       0.00000000       0.00000000       0.00000000       0.00000000       0.00000000      -1.14886498
Pu       0.00000000       0.00000000       2.82545455       0.00000000       0.00000000       1.14886498
2
Properties=species:S:1:pos:R:3:forces:R:3 energy=-23.970652231229987 pbc="F F F"
Pu       0.00000000       0.00000000       0.00000000       0.00000000       0.00000000      -0.98833930
Pu       0.00000000       0.00000000       2.88424242       0.00000000       0.00000000       0.98833930
2
Properties=species:S:1:pos:R:3:forces:R:3 energy=-24.02442808502024 pbc="F F F"
Pu       0.00000000       0.00000000       0.00000000       0.00000000       0.00000000      -0.84283543
Pu       0.00000000       0.00000000       2.94303030       0.00000000       0.00000000       0.84283543
2
Properties=species:S:1:pos:R:3:forces:R:3 energy=-24.069803465644398 pbc="F F F"
Pu       0.00000000       0.00000000       0.00000000       0.00000000       0.00000000      -0.70032632
Pu       0.00000000       0.00000000       3.00181818       0.00000000       0.00000000       0.70032632
2
Properties=species:S:1:pos:R:3:forces:R:3 energy=-24.10668112552461 pbc="F F F"
Pu       0.00000000       0.00000000       0.00000000       0.00000000       0.00000000      -0.55389690
Pu       0.00000000       0.00000000       3.06060606       0.00000000       0.00000000       0.55389690
2
Properties=species:S:1:pos:R:3:forces:R:3 energy=-24.135012398861836 pbc="F F F"
Pu       0.00000000       0.00000000       0.00000000       0.00000000       0.00000000      -0.41181108
Pu       0.00000000       0.00000000       3.11939394       0.00000000       0.00000000       0.41181108
2
Properties=species:S:1:pos:R:3:forces:R:3 energy=-24.15541102513143 pbc="F F F"
Pu       0.00000000       0.00000000       0.00000000       0.00000000       0.00000000      -0.28525352
Pu       0.00000000       0.00000000       3.17818182       0.00000000       0.00000000       0.28525352
2
Properties=species:S:1:pos:R:3:forces:R:3 energy=-24.16895577888206 pbc="F F F"
Pu       0.00000000       0.00000000       0.00000000       0.00000000       0.00000000      -0.17924038
Pu       0.00000000       0.00000000       3.23696970       0.00000000       0.00000000       0.17924038
2
Properties=species:S:1:pos:R:3:forces:R:3 energy=-24.17693075258037 pbc="F F F"
Pu       0.00000000       0.00000000       0.00000000       0.00000000       0.00000000      -0.09601045
Pu       0.00000000       0.00000000       3.29575758       0.00000000       0.00000000       0.09601045
2
Properties=species:S:1:pos:R:3:forces:R:3 energy=-24.18072649664078 pbc="F F F"
Pu       0.00000000       0.00000000       0.00000000       0.00000000       0.00000000      -0.03728968
Pu       0.00000000       0.00000000       3.35454545       0.00000000       0.00000000       0.03728968
2
Properties=species:S:1:pos:R:3:forces:R:3 energy=-24.181796479540786 pbc="F F F"
Pu       0.00000000       0.00000000       0.00000000       0.00000000       0.00000000      -0.00289781
Pu       0.00000000       0.00000000       3.41333333       0.00000000       0.00000000       0.00289781
2
Properties=species:S:1:pos:R:3:forces:R:3 energy=-24.181446812232142 pbc="F F F"
Pu       0.00000000       0.00000000       0.00000000       0.00000000       0.00000000       0.01229774
Pu       0.00000000       0.00000000       3.47212121       0.00000000       0.00000000      -0.01229774
2
Properties=species:S:1:pos:R:3:forces:R:3 energy=-24.180531073057367 pbc="F F F"
Pu       0.00000000       0.00000000       0.00000000       0.00000000       0.00000000       0.01814882
Pu       0.00000000       0.00000000       3.53090909       0.00000000       0.00000000      -0.01814882
2
Properties=species:S:1:pos:R:3:forces:R:3 energy=-24.179291228817714 pbc="F F F"
Pu       0.00000000       0.00000000       0.00000000       0.00000000       0.00000000       0.02500204
Pu       0.00000000       0.00000000       3.58969697       0.00000000       0.00000000      -0.02500204
2
Properties=species:S:1:pos:R:3:forces:R:3 energy=-24.177415826097945 pbc="F F F"
Pu       0.00000000       0.00000000       0.00000000       0.00000000       0.00000000       0.04077470
Pu       0.00000000       0.00000000       3.64848485       0.00000000       0.00000000      -0.04077470
2
Properties=species:S:1:pos:R:3:forces:R:3 energy=-24.174232310215718 pbc="F F F"
Pu       0.00000000       0.00000000       0.00000000       0.00000000       0.00000000       0.06984735
Pu       0.00000000       0.00000000       3.70727273       0.00000000       0.00000000      -0.06984735
2
Properties=species:S:1:pos:R:3:forces:R:3 energy=-24.16897063920422 pbc="F F F"
Pu       0.00000000       0.00000000       0.00000000       0.00000000       0.00000000       0.11056498
Pu       0.00000000       0.00000000       3.76606061       0.00000000       0.00000000      -0.11056498
2
Properties=species:S:1:pos:R:3:forces:R:3 energy=-24.161166128721312 pbc="F F F"
Pu       0.00000000       0.00000000       0.00000000       0.00000000       0.00000000       0.15460928
Pu       0.00000000       0.00000000       3.82484848       0.00000000       0.00000000      -0.15460928
2
Properties=species:S:1:pos:R:3:forces:R:3 energy=-24.150907716334135 pbc="F F F"
Pu       0.00000000       0.00000000       0.00000000       0.00000000       0.00000000       0.19291930
Pu       0.00000000       0.00000000       3.88363636       0.00000000       0.00000000      -0.19291930
2
Properties=species:S:1:pos:R:3:forces:R:3 energy=-24.13867203785331 pbc="F F F"
Pu       0.00000000       0.00000000       0.00000000       0.00000000       0.00000000       0.22188830
Pu       0.00000000       0.00000000       3.94242424       0.00000000       0.00000000      -0.22188830
2
Properties=species:S:1:pos:R:3:forces:R:3 energy=-24.124977651611378 pbc="F F F"
Pu       0.00000000       0.00000000       0.00000000       0.00000000       0.00000000       0.24294515
Pu       0.00000000       0.00000000       4.00121212       0.00000000       0.00000000      -0.24294515
2
Properties=species:S:1:pos:R:3:forces:R:3 energy=-24.110207103549573 pbc="F F F"
Pu       0.00000000       0.00000000       0.00000000       0.00000000       0.00000000       0.25880611
Pu       0.00000000       0.00000000       4.06000000       0.00000000       0.00000000      -0.25880611
2
Properties=species:S:1:pos:R:3:forces:R:3 energy=-24.094613245512047 pbc="F F F"
Pu       0.00000000       0.00000000       0.00000000       0.00000000       0.00000000       0.27120742
Pu       0.00000000       0.00000000       4.11878788       0.00000000       0.00000000      -0.27120742
2
Properties=species:S:1:pos:R:3:forces:R:3 energy=-24.078377956554803 pbc="F F F"
Pu       0.00000000       0.00000000       0.00000000       0.00000000       0.00000000       0.28063232
Pu       0.00000000       0.00000000       4.17757576       0.00000000       0.00000000      -0.28063232
2
Properties=species:S:1:pos:R:3:forces:R:3 energy=-24.061679253287075 pbc="F F F"
Pu       0.00000000       0.00000000       0.00000000       0.00000000       0.00000000       0.28680843
Pu       0.00000000       0.00000000       4.23636364       0.00000000       0.00000000      -0.28680843
2
Properties=species:S:1:pos:R:3:forces:R:3 energy=-24.044729089603983 pbc="F F F"
Pu       0.00000000       0.00000000       0.00000000       0.00000000       0.00000000       0.28928426
Pu       0.00000000       0.00000000       4.29515152       0.00000000       0.00000000      -0.28928426
2
Properties=species:S:1:pos:R:3:forces:R:3 energy=-24.027746283780736 pbc="F F F"
Pu       0.00000000       0.00000000       0.00000000       0.00000000       0.00000000       0.28785518
Pu       0.00000000       0.00000000       4.35393939       0.00000000       0.00000000      -0.28785518
2
Properties=species:S:1:pos:R:3:forces:R:3 energy=-24.010955180372846 pbc="F F F"
Pu       0.00000000       0.00000000       0.00000000       0.00000000       0.00000000       0.28279161
Pu       0.00000000       0.00000000       4.41272727       0.00000000       0.00000000      -0.28279161
2
Properties=species:S:1:pos:R:3:forces:R:3 energy=-23.994551976528083 pbc="F F F"
Pu       0.00000000       0.00000000       0.00000000       0.00000000       0.00000000       0.27484253
Pu       0.00000000       0.00000000       4.47151515       0.00000000       0.00000000      -0.27484253
2
Properties=species:S:1:pos:R:3:forces:R:3 energy=-23.97867545253025 pbc="F F F"
Pu       0.00000000       0.00000000       0.00000000       0.00000000       0.00000000       0.26505727
Pu       0.00000000       0.00000000       4.53030303       0.00000000       0.00000000      -0.26505727
2
Properties=species:S:1:pos:R:3:forces:R:3 energy=-23.96340332816433 pbc="F F F"
Pu       0.00000000       0.00000000       0.00000000       0.00000000       0.00000000       0.25453869
Pu       0.00000000       0.00000000       4.58909091       0.00000000       0.00000000      -0.25453869
2
Properties=species:S:1:pos:R:3:forces:R:3 energy=-23.948743036419874 pbc="F F F"
Pu       0.00000000       0.00000000       0.00000000       0.00000000       0.00000000       0.24423635
Pu       0.00000000       0.00000000       4.64787879       0.00000000       0.00000000      -0.24423635
2
Properties=species:S:1:pos:R:3:forces:R:3 energy=-23.934666163472368 pbc="F F F"
Pu       0.00000000       0.00000000       0.00000000       0.00000000       0.00000000       0.23481388
Pu       0.00000000       0.00000000       4.70666667       0.00000000       0.00000000      -0.23481388
2
Properties=species:S:1:pos:R:3:forces:R:3 energy=-23.921112257044832 pbc="F F F"
Pu       0.00000000       0.00000000       0.00000000       0.00000000       0.00000000       0.22663853
Pu       0.00000000       0.00000000       4.76545455       0.00000000       0.00000000      -0.22663853
2
Properties=species:S:1:pos:R:3:forces:R:3 energy=-23.90799276148235 pbc="F F F"
Pu       0.00000000       0.00000000       0.00000000       0.00000000       0.00000000       0.21980135
Pu       0.00000000       0.00000000       4.82424242       0.00000000       0.00000000      -0.21980135
2
Properties=species:S:1:pos:R:3:forces:R:3 energy=-23.895246305519823 pbc="F F F"
Pu       0.00000000       0.00000000       0.00000000       0.00000000       0.00000000       0.21417469
Pu       0.00000000       0.00000000       4.88303030       0.00000000       0.00000000      -0.21417469
2
Properties=species:S:1:pos:R:3:forces:R:3 energy=-23.882794807920845 pbc="F F F"
Pu       0.00000000       0.00000000       0.00000000       0.00000000       0.00000000       0.20946044
Pu       0.00000000       0.00000000       4.94181818       0.00000000       0.00000000      -0.20946044
2
Properties=species:S:1:pos:R:3:forces:R:3 energy=-23.87060458232604 pbc="F F F"
Pu       0.00000000       0.00000000       0.00000000       0.00000000       0.00000000       0.20521744
Pu       0.00000000       0.00000000       5.00060606       0.00000000       0.00000000      -0.20521744
2
Properties=species:S:1:pos:R:3:forces:R:3 energy=-23.85866730811626 pbc="F F F"
Pu       0.00000000       0.00000000       0.00000000       0.00000000       0.00000000       0.20088209
Pu       0.00000000       0.00000000       5.05939394       0.00000000       0.00000000      -0.20088209
2
Properties=species:S:1:pos:R:3:forces:R:3 energy=-23.847003680383065 pbc="F F F"
Pu       0.00000000       0.00000000       0.00000000       0.00000000       0.00000000       0.19581531
Pu       0.00000000       0.00000000       5.11818182       0.00000000       0.00000000      -0.19581531
2
Properties=species:S:1:pos:R:3:forces:R:3 energy=-23.83567308605609 pbc="F F F"
Pu       0.00000000       0.00000000       0.00000000       0.00000000       0.00000000       0.18936989
Pu       0.00000000       0.00000000       5.17696970       0.00000000       0.00000000      -0.18936989
2
Properties=species:S:1:pos:R:3:forces:R:3 energy=-23.82477724120226 pbc="F F F"
Pu       0.00000000       0.00000000       0.00000000       0.00000000       0.00000000       0.18097177
Pu       0.00000000       0.00000000       5.23575758       0.00000000       0.00000000      -0.18097177
2
Properties=species:S:1:pos:R:3:forces:R:3 energy=-23.81444120623848 pbc="F F F"
Pu       0.00000000       0.00000000       0.00000000       0.00000000       0.00000000       0.17023607
Pu       0.00000000       0.00000000       5.29454545       0.00000000       0.00000000      -0.17023607
2
Properties=species:S:1:pos:R:3:forces:R:3 energy=-23.804809457192786 pbc="F F F"
Pu       0.00000000       0.00000000       0.00000000       0.00000000       0.00000000       0.15705155
Pu       0.00000000       0.00000000       5.35333333       0.00000000       0.00000000      -0.15705155
2
Properties=species:S:1:pos:R:3:forces:R:3 energy=-23.796019068781863 pbc="F F F"
Pu       0.00000000       0.00000000       0.00000000       0.00000000       0.00000000       0.14164570
Pu       0.00000000       0.00000000       5.41212121       0.00000000       0.00000000      -0.14164570
2
Properties=species:S:1:pos:R:3:forces:R:3 energy=-23.78818829566185 pbc="F F F"
Pu       0.00000000       0.00000000       0.00000000       0.00000000       0.00000000       0.12457328
Pu       0.00000000       0.00000000       5.47090909       0.00000000       0.00000000      -0.12457328
2
Properties=species:S:1:pos:R:3:forces:R:3 energy=-23.78138974917022 pbc="F F F"
Pu       0.00000000       0.00000000       0.00000000       0.00000000       0.00000000       0.10668120
Pu       0.00000000       0.00000000       5.52969697       0.00000000       0.00000000      -0.10668120
2
Properties=species:S:1:pos:R:3:forces:R:3 energy=-23.775638927891425 pbc="F F F"
Pu       0.00000000       0.00000000       0.00000000       0.00000000       0.00000000       0.08901121
Pu       0.00000000       0.00000000       5.58848485       0.00000000       0.00000000      -0.08901121
2
Properties=species:S:1:pos:R:3:forces:R:3 energy=-23.770895998292623 pbc="F F F"
Pu       0.00000000       0.00000000       0.00000000       0.00000000       0.00000000       0.07264441
Pu       0.00000000       0.00000000       5.64727273       0.00000000       0.00000000      -0.07264441
2
Properties=species:S:1:pos:R:3:forces:R:3 energy=-23.767054274604163 pbc="F F F"
Pu       0.00000000       0.00000000       0.00000000       0.00000000       0.00000000       0.05856590
Pu       0.00000000       0.00000000       5.70606061       0.00000000       0.00000000      -0.05856590
2
Properties=species:S:1:pos:R:3:forces:R:3 energy=-23.76395161222623 pbc="F F F"
Pu       0.00000000       0.00000000       0.00000000       0.00000000       0.00000000       0.04747384
Pu       0.00000000       0.00000000       5.76484848       0.00000000       0.00000000      -0.04747384
2
Properties=species:S:1:pos:R:3:forces:R:3 energy=-23.761404752675503 pbc="F F F"
Pu       0.00000000       0.00000000       0.00000000       0.00000000       0.00000000       0.03970367
Pu       0.00000000       0.00000000       5.82363636       0.00000000       0.00000000      -0.03970367
2
Properties=species:S:1:pos:R:3:forces:R:3 energy=-23.75922247862064 pbc="F F F"
Pu       0.00000000       0.00000000       0.00000000       0.00000000       0.00000000       0.03508055
Pu       0.00000000       0.00000000       5.88242424       0.00000000       0.00000000      -0.03508055
2
Properties=species:S:1:pos:R:3:forces:R:3 energy=-23.757232329434405 pbc="F F F"
Pu       0.00000000       0.00000000       0.00000000       0.00000000       0.00000000       0.03293214
Pu       0.00000000       0.00000000       5.94121212       0.00000000       0.00000000      -0.03293214
2
Properties=species:S:1:pos:R:3:forces:R:3 energy=-23.755322562863604 pbc="F F F"
Pu       0.00000000       0.00000000       0.00000000       0.00000000       0.00000000       0.03215090
Pu       0.00000000       0.00000000       6.00000000       0.00000000       0.00000000      -0.03215090
