2
Properties=species:S:1:pos:R:3:forces:R:3 energy=-313882.7329627747 pbc="F F F"
Tm       0.00000000       0.00000000       0.00000000       0.00000000       0.00000000 2498869.00000000
Tm       0.00000000       0.00000000       0.18000000       0.00000000       0.00000000 -2498869.00000000
2
Properties=species:S:1:pos:R:3:forces:R:3 energy=-171443.9517127747 pbc="F F F"
Tm       0.00000000       0.00000000       0.00000000       0.00000000       0.00000000 2120459.00000000
Tm       0.00000000       0.00000000       0.23878788       0.00000000       0.00000000 -2120459.00000000
2
Properties=species:S:1:pos:R:3:forces:R:3 energy=-74257.93608777471 pbc="F F F"
Tm       0.00000000       0.00000000       0.00000000       0.00000000       0.00000000 1198267.62500000
Tm       0.00000000       0.00000000       0.29757576       0.00000000       0.00000000 -1198267.62500000
2
Properties=species:S:1:pos:R:3:forces:R:3 energy=-25052.856009649706 pbc="F F F"
Tm       0.00000000       0.00000000       0.00000000       0.00000000       0.00000000  528463.25000000
Tm       0.00000000       0.00000000       0.35636364       0.00000000       0.00000000 -528463.25000000
2
Properties=species:S:1:pos:R:3:forces:R:3 energy=-5690.247611199537 pbc="F F F"
Tm       0.00000000       0.00000000       0.00000000       0.00000000       0.00000000  177242.23437500
Tm       0.00000000       0.00000000       0.41515152       0.00000000       0.00000000 -177242.23437500
2
Properties=species:S:1:pos:R:3:forces:R:3 energy=-472.97222057453627 pbc="F F F"
Tm       0.00000000       0.00000000       0.00000000       0.00000000       0.00000000   20275.76562500
Tm       0.00000000       0.00000000       0.47393939       0.00000000       0.00000000  -20275.76562500
2
Properties=species:S:1:pos:R:3:forces:R:3 energy=5.648650028344978 pbc="F F F"
Tm       0.00000000       0.00000000       0.00000000       0.00000000       0.00000000     561.18701172
Tm       0.00000000       0.00000000       0.53272727       0.00000000       0.00000000    -561.18701172
2
Properties=species:S:1:pos:R:3:forces:R:3 energy=16.58536805341939 pbc="F F F"
Tm       0.00000000       0.00000000       0.00000000       0.00000000       0.00000000    1093.34497070
Tm       0.00000000       0.00000000       0.59151515       0.00000000       0.00000000   -1093.34497070
2
Properties=species:S:1:pos:R:3:forces:R:3 energy=91.69390958008071 pbc="F F F"
Tm       0.00000000       0.00000000       0.00000000       0.00000000       0.00000000    1350.44140625
Tm       0.00000000       0.00000000       0.65030303       0.00000000       0.00000000   -1350.44140625
2
Properties=species:S:1:pos:R:3:forces:R:3 energy=151.95577336460454 pbc="F F F"
Tm       0.00000000       0.00000000       0.00000000       0.00000000       0.00000000     945.20532227
Tm       0.00000000       0.00000000       0.70909091       0.00000000       0.00000000    -945.20532227
2
Properties=species:S:1:pos:R:3:forces:R:3 energy=186.75537978921705 pbc="F F F"
Tm       0.00000000       0.00000000       0.00000000       0.00000000       0.00000000     558.82043457
Tm       0.00000000       0.00000000       0.76787879       0.00000000       0.00000000    -558.82043457
2
Properties=species:S:1:pos:R:3:forces:R:3 energy=221.24202850084282 pbc="F F F"
Tm       0.00000000       0.00000000       0.00000000       0.00000000       0.00000000     361.20962524
Tm       0.00000000       0.00000000       0.82666667       0.00000000       0.00000000    -361.20962524
2
Properties=species:S:1:pos:R:3:forces:R:3 energy=205.80732108732445 pbc="F F F"
Tm       0.00000000       0.00000000       0.00000000       0.00000000       0.00000000    -663.35412598
Tm       0.00000000       0.00000000       0.88545455       0.00000000       0.00000000     663.35412598
2
Properties=species:S:1:pos:R:3:forces:R:3 energy=153.95612510237288 pbc="F F F"
Tm       0.00000000       0.00000000       0.00000000       0.00000000       0.00000000   -1065.91186523
Tm       0.00000000       0.00000000       0.94424242       0.00000000       0.00000000    1065.91186523
2
Properties=species:S:1:pos:R:3:forces:R:3 energy=97.38988712987637 pbc="F F F"
Tm       0.00000000       0.00000000       0.00000000       0.00000000       0.00000000    -797.56030273
Tm       0.00000000       0.00000000       1.00303030       0.00000000       0.00000000     797.56030273
2
Properties=species:S:1:pos:R:3:forces:R:3 energy=63.804438494005645 pbc="F F F"
Tm       0.00000000       0.00000000       0.00000000       0.00000000       0.00000000    -416.34948730
Tm       0.00000000       0.00000000       1.06181818       0.00000000       0.00000000     416.34948730
2
Properties=species:S:1:pos:R:3:forces:R:3 energy=49.96122332457144 pbc="F F F"
Tm       0.00000000       0.00000000       0.00000000       0.00000000       0.00000000     -59.04355621
Tm       0.00000000       0.00000000       1.12060606       0.00000000       0.00000000      59.04355621
2
Properties=species:S:1:pos:R:3:forces:R:3 energy=44.91571499989562 pbc="F F F"
Tm       0.00000000       0.00000000       0.00000000       0.00000000       0.00000000    -103.13981628
Tm       0.00000000       0.00000000       1.17939394       0.00000000       0.00000000     103.13981628
2
Properties=species:S:1:pos:R:3:forces:R:3 energy=39.20245183970631 pbc="F F F"
Tm       0.00000000       0.00000000       0.00000000       0.00000000       0.00000000     -83.30776215
Tm       0.00000000       0.00000000       1.23818182       0.00000000       0.00000000      83.30776215
2
Properties=species:S:1:pos:R:3:forces:R:3 energy=34.452789205675785 pbc="F F F"
Tm       0.00000000       0.00000000       0.00000000       0.00000000       0.00000000     -78.93504333
Tm       0.00000000       0.00000000       1.29696970       0.00000000       0.00000000      78.93504333
2
Properties=species:S:1:pos:R:3:forces:R:3 energy=30.245044803372384 pbc="F F F"
Tm       0.00000000       0.00000000       0.00000000       0.00000000       0.00000000     -65.28303528
Tm       0.00000000       0.00000000       1.35575758       0.00000000       0.00000000      65.28303528
2
Properties=species:S:1:pos:R:3:forces:R:3 energy=26.3285893091176 pbc="F F F"
Tm       0.00000000       0.00000000       0.00000000       0.00000000       0.00000000     -71.29976654
Tm       0.00000000       0.00000000       1.41454545       0.00000000       0.00000000      71.29976654
2
Properties=species:S:1:pos:R:3:forces:R:3 energy=22.05928260609404 pbc="F F F"
Tm       0.00000000       0.00000000       0.00000000       0.00000000       0.00000000     -68.33735657
Tm       0.00000000       0.00000000       1.47333333       0.00000000       0.00000000      68.33735657
2
Properties=species:S:1:pos:R:3:forces:R:3 energy=18.650217574284515 pbc="F F F"
Tm       0.00000000       0.00000000       0.00000000       0.00000000       0.00000000     -50.01298523
Tm       0.00000000       0.00000000       1.53212121       0.00000000       0.00000000      50.01298523
2
Properties=species:S:1:pos:R:3:forces:R:3 energy=15.884124493626128 pbc="F F F"
Tm       0.00000000       0.00000000       0.00000000       0.00000000       0.00000000     -45.20925522
Tm       0.00000000       0.00000000       1.59090909       0.00000000       0.00000000      45.20925522
2
Properties=species:S:1:pos:R:3:forces:R:3 energy=13.398017905212429 pbc="F F F"
Tm       0.00000000       0.00000000       0.00000000       0.00000000       0.00000000     -38.32722092
Tm       0.00000000       0.00000000       1.64969697       0.00000000       0.00000000      38.32722092
2
Properties=species:S:1:pos:R:3:forces:R:3 energy=11.253871545547511 pbc="F F F"
Tm       0.00000000       0.00000000       0.00000000       0.00000000       0.00000000     -35.56113052
Tm       0.00000000       0.00000000       1.70848485       0.00000000       0.00000000      35.56113052
2
Properties=species:S:1:pos:R:3:forces:R:3 energy=9.32141563844211 pbc="F F F"
Tm       0.00000000       0.00000000       0.00000000       0.00000000       0.00000000     -29.46031570
Tm       0.00000000       0.00000000       1.76727273       0.00000000       0.00000000      29.46031570
2
Properties=species:S:1:pos:R:3:forces:R:3 energy=7.768918615714772 pbc="F F F"
Tm       0.00000000       0.00000000       0.00000000       0.00000000       0.00000000     -23.42193794
Tm       0.00000000       0.00000000       1.82606061       0.00000000       0.00000000      23.42193794
2
Properties=species:S:1:pos:R:3:forces:R:3 energy=6.521927364238143 pbc="F F F"
Tm       0.00000000       0.00000000       0.00000000       0.00000000       0.00000000     -19.52709198
Tm       0.00000000       0.00000000       1.88484848       0.00000000       0.00000000      19.52709198
2
Properties=species:S:1:pos:R:3:forces:R:3 energy=5.432815311292095 pbc="F F F"
Tm       0.00000000       0.00000000       0.00000000       0.00000000       0.00000000     -17.60581779
Tm       0.00000000       0.00000000       1.94363636       0.00000000       0.00000000      17.60581779
2
Properties=species:S:1:pos:R:3:forces:R:3 energy=4.449647603078569 pbc="F F F"
Tm       0.00000000       0.00000000       0.00000000       0.00000000       0.00000000     -15.88878250
Tm       0.00000000       0.00000000       2.00242424       0.00000000       0.00000000      15.88878250
2
Properties=species:S:1:pos:R:3:forces:R:3 energy=3.548744848445989 pbc="F F F"
Tm       0.00000000       0.00000000       0.00000000       0.00000000       0.00000000     -14.83633614
Tm       0.00000000       0.00000000       2.06121212       0.00000000       0.00000000      14.83633614
2
Properties=species:S:1:pos:R:3:forces:R:3 energy=2.7199431920113333 pbc="F F F"
Tm       0.00000000       0.00000000       0.00000000       0.00000000       0.00000000     -13.18807125
Tm       0.00000000       0.00000000       2.12000000       0.00000000       0.00000000      13.18807125
2
Properties=species:S:1:pos:R:3:forces:R:3 energy=1.9983955252437244 pbc="F F F"
Tm       0.00000000       0.00000000       0.00000000       0.00000000       0.00000000     -11.48537445
Tm       0.00000000       0.00000000       2.17878788       0.00000000       0.00000000      11.48537445
2
Properties=species:S:1:pos:R:3:forces:R:3 energy=1.362606523231621 pbc="F F F"
Tm       0.00000000       0.00000000       0.00000000       0.00000000       0.00000000     -10.12387466
Tm       0.00000000       0.00000000       2.23757576       0.00000000       0.00000000      10.12387466
2
Properties=species:S:1:pos:R:3:forces:R:3 energy=0.8082699376275418 pbc="F F F"
Tm       0.00000000       0.00000000       0.00000000       0.00000000       0.00000000      -8.74725342
Tm       0.00000000       0.00000000       2.29636364       0.00000000       0.00000000       8.74725342
2
Properties=species:S:1:pos:R:3:forces:R:3 energy=0.3329792900074414 pbc="F F F"
Tm       0.00000000       0.00000000       0.00000000       0.00000000       0.00000000      -7.45317030
Tm       0.00000000       0.00000000       2.35515152       0.00000000       0.00000000       7.45317030
2
Properties=species:S:1:pos:R:3:forces:R:3 energy=-0.07426159193544263 pbc="F F F"
Tm       0.00000000       0.00000000       0.00000000       0.00000000       0.00000000      -6.44795752
Tm       0.00000000       0.00000000       2.41393939       0.00000000       0.00000000       6.44795752
2
Properties=species:S:1:pos:R:3:forces:R:3 energy=-0.4283454797231111 pbc="F F F"
Tm       0.00000000       0.00000000       0.00000000       0.00000000       0.00000000      -5.61306334
Tm       0.00000000       0.00000000       2.47272727       0.00000000       0.00000000       5.61306334
2
Properties=species:S:1:pos:R:3:forces:R:3 energy=-0.7345616445113541 pbc="F F F"
Tm       0.00000000       0.00000000       0.00000000       0.00000000       0.00000000      -4.80351353
Tm       0.00000000       0.00000000       2.53151515       0.00000000       0.00000000       4.80351353
2
Properties=species:S:1:pos:R:3:forces:R:3 energy=-0.9949710685246175 pbc="F F F"
Tm       0.00000000       0.00000000       0.00000000       0.00000000       0.00000000      -4.08792496
Tm       0.00000000       0.00000000       2.59030303       0.00000000       0.00000000       4.08792496
2
Properties=species:S:1:pos:R:3:forces:R:3 energy=-1.2189865332647918 pbc="F F F"
Tm       0.00000000       0.00000000       0.00000000       0.00000000       0.00000000      -3.55678535
Tm       0.00000000       0.00000000       2.64909091       0.00000000       0.00000000       3.55678535
2
Properties=species:S:1:pos:R:3:forces:R:3 energy=-1.4145473427297652 pbc="F F F"
Tm       0.00000000       0.00000000       0.00000000       0.00000000       0.00000000      -3.09855127
Tm       0.00000000       0.00000000       2.70787879       0.00000000       0.00000000       3.09855127
2
Properties=species:S:1:pos:R:3:forces:R:3 energy=-1.5831572925887192 pbc="F F F"
Tm       0.00000000       0.00000000       0.00000000       0.00000000       0.00000000      -2.63697553
Tm       0.00000000       0.00000000       2.76666667       0.00000000       0.00000000       2.63697553
2
Properties=species:S:1:pos:R:3:forces:R:3 energy=-1.7249210622609359 pbc="F F F"
Tm       0.00000000       0.00000000       0.00000000       0.00000000       0.00000000      -2.19221759
Tm       0.00000000       0.00000000       2.82545455       0.00000000       0.00000000       2.19221759
2
Properties=species:S:1:pos:R:3:forces:R:3 energy=-1.8419135082617955 pbc="F F F"
Tm       0.00000000       0.00000000       0.00000000       0.00000000       0.00000000      -1.79784489
Tm       0.00000000       0.00000000       2.88424242       0.00000000       0.00000000       1.79784489
2
Properties=species:S:1:pos:R:3:forces:R:3 energy=-1.9374597541354863 pbc="F F F"
Tm       0.00000000       0.00000000       0.00000000       0.00000000       0.00000000      -1.46168661
Tm       0.00000000       0.00000000       2.94303030       0.00000000       0.00000000       1.46168661
2
Properties=species:S:1:pos:R:3:forces:R:3 energy=-2.014652011481088 pbc="F F F"
Tm       0.00000000       0.00000000       0.00000000       0.00000000       0.00000000      -1.17039633
Tm       0.00000000       0.00000000       3.00181818       0.00000000       0.00000000       1.17039633
2
Properties=species:S:1:pos:R:3:forces:R:3 energy=-2.075687907375025 pbc="F F F"
Tm       0.00000000       0.00000000       0.00000000       0.00000000       0.00000000      -0.91134077
Tm       0.00000000       0.00000000       3.06060606       0.00000000       0.00000000       0.91134077
2
Properties=species:S:1:pos:R:3:forces:R:3 energy=-2.1225189385567136 pbc="F F F"
Tm       0.00000000       0.00000000       0.00000000       0.00000000       0.00000000      -0.68877459
Tm       0.00000000       0.00000000       3.11939394       0.00000000       0.00000000       0.68877459
2
Properties=species:S:1:pos:R:3:forces:R:3 energy=-2.157518914760986 pbc="F F F"
Tm       0.00000000       0.00000000       0.00000000       0.00000000       0.00000000      -0.50885242
Tm       0.00000000       0.00000000       3.17818182       0.00000000       0.00000000       0.50885242
2
Properties=species:S:1:pos:R:3:forces:R:3 energy=-2.1830739991392774 pbc="F F F"
Tm       0.00000000       0.00000000       0.00000000       0.00000000       0.00000000      -0.36577961
Tm       0.00000000       0.00000000       3.23696970       0.00000000       0.00000000       0.36577961
2
Properties=species:S:1:pos:R:3:forces:R:3 energy=-2.2009941201440077 pbc="F F F"
Tm       0.00000000       0.00000000       0.00000000       0.00000000       0.00000000      -0.24687926
Tm       0.00000000       0.00000000       3.29575758       0.00000000       0.00000000       0.24687926
2
Properties=species:S:1:pos:R:3:forces:R:3 energy=-2.2123644327540615 pbc="F F F"
Tm       0.00000000       0.00000000       0.00000000       0.00000000       0.00000000      -0.14180973
Tm       0.00000000       0.00000000       3.35454545       0.00000000       0.00000000       0.14180973
2
Properties=species:S:1:pos:R:3:forces:R:3 energy=-2.2178721943464748 pbc="F F F"
Tm       0.00000000       0.00000000       0.00000000       0.00000000       0.00000000      -0.04714933
Tm       0.00000000       0.00000000       3.41333333       0.00000000       0.00000000       0.04714933
2
Properties=species:S:1:pos:R:3:forces:R:3 energy=-2.2181083348566837 pbc="F F F"
Tm       0.00000000       0.00000000       0.00000000       0.00000000       0.00000000       0.03747816
Tm       0.00000000       0.00000000       3.47212121       0.00000000       0.00000000      -0.03747816
2
Properties=species:S:1:pos:R:3:forces:R:3 energy=-2.2136227128680743 pbc="F F F"
Tm       0.00000000       0.00000000       0.00000000       0.00000000       0.00000000       0.11396875
Tm       0.00000000       0.00000000       3.53090909       0.00000000       0.00000000      -0.11396875
2
Properties=species:S:1:pos:R:3:forces:R:3 energy=-2.204823891109743 pbc="F F F"
Tm       0.00000000       0.00000000       0.00000000       0.00000000       0.00000000       0.18461388
Tm       0.00000000       0.00000000       3.58969697       0.00000000       0.00000000      -0.18461388
2
Properties=species:S:1:pos:R:3:forces:R:3 energy=-2.1920232335582432 pbc="F F F"
Tm       0.00000000       0.00000000       0.00000000       0.00000000       0.00000000       0.24983402
Tm       0.00000000       0.00000000       3.64848485       0.00000000       0.00000000      -0.24983402
2
Properties=species:S:1:pos:R:3:forces:R:3 energy=-2.175573869455078 pbc="F F F"
Tm       0.00000000       0.00000000       0.00000000       0.00000000       0.00000000       0.30854270
Tm       0.00000000       0.00000000       3.70727273       0.00000000       0.00000000      -0.30854270
2
Properties=species:S:1:pos:R:3:forces:R:3 energy=-2.1558929129199687 pbc="F F F"
Tm       0.00000000       0.00000000       0.00000000       0.00000000       0.00000000       0.35969323
Tm       0.00000000       0.00000000       3.76606061       0.00000000       0.00000000      -0.35969323
2
Properties=species:S:1:pos:R:3:forces:R:3 energy=-2.1334374183523286 pbc="F F F"
Tm       0.00000000       0.00000000       0.00000000       0.00000000       0.00000000       0.40299770
Tm       0.00000000       0.00000000       3.82484848       0.00000000       0.00000000      -0.40299770
2
Properties=species:S:1:pos:R:3:forces:R:3 energy=-2.1086597097938555 pbc="F F F"
Tm       0.00000000       0.00000000       0.00000000       0.00000000       0.00000000       0.43873632
Tm       0.00000000       0.00000000       3.88363636       0.00000000       0.00000000      -0.43873632
2
Properties=species:S:1:pos:R:3:forces:R:3 energy=-2.081992115803824 pbc="F F F"
Tm       0.00000000       0.00000000       0.00000000       0.00000000       0.00000000       0.46738452
Tm       0.00000000       0.00000000       3.94242424       0.00000000       0.00000000      -0.46738452
2
Properties=species:S:1:pos:R:3:forces:R:3 energy=-2.0538364980485375 pbc="F F F"
Tm       0.00000000       0.00000000       0.00000000       0.00000000       0.00000000       0.48949504
Tm       0.00000000       0.00000000       4.00121212       0.00000000       0.00000000      -0.48949504
2
Properties=species:S:1:pos:R:3:forces:R:3 energy=-2.0245538052333583 pbc="F F F"
Tm       0.00000000       0.00000000       0.00000000       0.00000000       0.00000000       0.50578755
Tm       0.00000000       0.00000000       4.06000000       0.00000000       0.00000000      -0.50578755
2
Properties=species:S:1:pos:R:3:forces:R:3 energy=-1.9944621910966527 pbc="F F F"
Tm       0.00000000       0.00000000       0.00000000       0.00000000       0.00000000       0.51714361
Tm       0.00000000       0.00000000       4.11878788       0.00000000       0.00000000      -0.51714361
2
Properties=species:S:1:pos:R:3:forces:R:3 energy=-1.9638284756904525 pbc="F F F"
Tm       0.00000000       0.00000000       0.00000000       0.00000000       0.00000000       0.52435929
Tm       0.00000000       0.00000000       4.17757576       0.00000000       0.00000000      -0.52435929
2
Properties=species:S:1:pos:R:3:forces:R:3 energy=-1.9328844085289882 pbc="F F F"
Tm       0.00000000       0.00000000       0.00000000       0.00000000       0.00000000       0.52789134
Tm       0.00000000       0.00000000       4.23636364       0.00000000       0.00000000      -0.52789134
2
Properties=species:S:1:pos:R:3:forces:R:3 energy=-1.9018352453218932 pbc="F F F"
Tm       0.00000000       0.00000000       0.00000000       0.00000000       0.00000000       0.52775955
Tm       0.00000000       0.00000000       4.29515152       0.00000000       0.00000000      -0.52775955
2
Properties=species:S:1:pos:R:3:forces:R:3 energy=-1.8709095037654075 pbc="F F F"
Tm       0.00000000       0.00000000       0.00000000       0.00000000       0.00000000       0.52375352
Tm       0.00000000       0.00000000       4.35393939       0.00000000       0.00000000      -0.52375352
2
Properties=species:S:1:pos:R:3:forces:R:3 energy=-1.840335013978516 pbc="F F F"
Tm       0.00000000       0.00000000       0.00000000       0.00000000       0.00000000       0.51568317
Tm       0.00000000       0.00000000       4.41272727       0.00000000       0.00000000      -0.51568317
2
Properties=species:S:1:pos:R:3:forces:R:3 energy=-1.8103542723266735 pbc="F F F"
Tm       0.00000000       0.00000000       0.00000000       0.00000000       0.00000000       0.50361115
Tm       0.00000000       0.00000000       4.47151515       0.00000000       0.00000000      -0.50361115
2
Properties=species:S:1:pos:R:3:forces:R:3 energy=-1.7811921558792234 pbc="F F F"
Tm       0.00000000       0.00000000       0.00000000       0.00000000       0.00000000       0.48791540
Tm       0.00000000       0.00000000       4.53030303       0.00000000       0.00000000      -0.48791540
2
Properties=species:S:1:pos:R:3:forces:R:3 energy=-1.7530453369572512 pbc="F F F"
Tm       0.00000000       0.00000000       0.00000000       0.00000000       0.00000000       0.46921992
Tm       0.00000000       0.00000000       4.58909091       0.00000000       0.00000000      -0.46921992
2
Properties=species:S:1:pos:R:3:forces:R:3 energy=-1.7260680667178596 pbc="F F F"
Tm       0.00000000       0.00000000       0.00000000       0.00000000       0.00000000       0.44832385
Tm       0.00000000       0.00000000       4.64787879       0.00000000       0.00000000      -0.44832385
2
Properties=species:S:1:pos:R:3:forces:R:3 energy=-1.700359847080142 pbc="F F F"
Tm       0.00000000       0.00000000       0.00000000       0.00000000       0.00000000       0.42609298
Tm       0.00000000       0.00000000       4.70666667       0.00000000       0.00000000      -0.42609298
2
Properties=species:S:1:pos:R:3:forces:R:3 energy=-1.6759767987892475 pbc="F F F"
Tm       0.00000000       0.00000000       0.00000000       0.00000000       0.00000000       0.40341914
Tm       0.00000000       0.00000000       4.76545455       0.00000000       0.00000000      -0.40341914
2
Properties=species:S:1:pos:R:3:forces:R:3 energy=-1.6529174893501661 pbc="F F F"
Tm       0.00000000       0.00000000       0.00000000       0.00000000       0.00000000       0.38117629
Tm       0.00000000       0.00000000       4.82424242       0.00000000       0.00000000      -0.38117629
2
Properties=species:S:1:pos:R:3:forces:R:3 energy=-1.6311381221247025 pbc="F F F"
Tm       0.00000000       0.00000000       0.00000000       0.00000000       0.00000000       0.36012450
Tm       0.00000000       0.00000000       4.88303030       0.00000000       0.00000000      -0.36012450
2
Properties=species:S:1:pos:R:3:forces:R:3 energy=-1.6105429679100922 pbc="F F F"
Tm       0.00000000       0.00000000       0.00000000       0.00000000       0.00000000       0.34082088
Tm       0.00000000       0.00000000       4.94181818       0.00000000       0.00000000      -0.34082088
2
Properties=species:S:1:pos:R:3:forces:R:3 energy=-1.5910225435898775 pbc="F F F"
Tm       0.00000000       0.00000000       0.00000000       0.00000000       0.00000000       0.32349402
Tm       0.00000000       0.00000000       5.00060606       0.00000000       0.00000000      -0.32349402
2
Properties=species:S:1:pos:R:3:forces:R:3 energy=-1.5724726919558811 pbc="F F F"
Tm       0.00000000       0.00000000       0.00000000       0.00000000       0.00000000       0.30793336
Tm       0.00000000       0.00000000       5.05939394       0.00000000       0.00000000      -0.30793336
2
Properties=species:S:1:pos:R:3:forces:R:3 energy=-1.5547963433370202 pbc="F F F"
Tm       0.00000000       0.00000000       0.00000000       0.00000000       0.00000000       0.29349536
Tm       0.00000000       0.00000000       5.11818182       0.00000000       0.00000000      -0.29349536
2
Properties=species:S:1:pos:R:3:forces:R:3 energy=-1.5379626370712782 pbc="F F F"
Tm       0.00000000       0.00000000       0.00000000       0.00000000       0.00000000       0.27917308
Tm       0.00000000       0.00000000       5.17696970       0.00000000       0.00000000      -0.27917308
2
Properties=species:S:1:pos:R:3:forces:R:3 energy=-1.52199450473266 pbc="F F F"
Tm       0.00000000       0.00000000       0.00000000       0.00000000       0.00000000       0.26380336
Tm       0.00000000       0.00000000       5.23575758       0.00000000       0.00000000      -0.26380336
2
Properties=species:S:1:pos:R:3:forces:R:3 energy=-1.5069885769145936 pbc="F F F"
Tm       0.00000000       0.00000000       0.00000000       0.00000000       0.00000000       0.24630922
Tm       0.00000000       0.00000000       5.29454545       0.00000000       0.00000000      -0.24630922
2
Properties=species:S:1:pos:R:3:forces:R:3 energy=-1.4930903370125501 pbc="F F F"
Tm       0.00000000       0.00000000       0.00000000       0.00000000       0.00000000       0.22596882
Tm       0.00000000       0.00000000       5.35333333       0.00000000       0.00000000      -0.22596882
2
Properties=species:S:1:pos:R:3:forces:R:3 energy=-1.4804768220378182 pbc="F F F"
Tm       0.00000000       0.00000000       0.00000000       0.00000000       0.00000000       0.20259006
Tm       0.00000000       0.00000000       5.41212121       0.00000000       0.00000000      -0.20259006
2
Properties=species:S:1:pos:R:3:forces:R:3 energy=-1.4693213493390844 pbc="F F F"
Tm       0.00000000       0.00000000       0.00000000       0.00000000       0.00000000       0.17662790
Tm       0.00000000       0.00000000       5.47090909       0.00000000       0.00000000      -0.17662790
2
Properties=species:S:1:pos:R:3:forces:R:3 energy=-1.459739927107032 pbc="F F F"
Tm       0.00000000       0.00000000       0.00000000       0.00000000       0.00000000       0.14913861
Tm       0.00000000       0.00000000       5.52969697       0.00000000       0.00000000      -0.14913861
2
Properties=species:S:1:pos:R:3:forces:R:3 energy=-1.451790250014868 pbc="F F F"
Tm       0.00000000       0.00000000       0.00000000       0.00000000       0.00000000       0.12162790
Tm       0.00000000       0.00000000       5.58848485       0.00000000       0.00000000      -0.12162790
2
Properties=species:S:1:pos:R:3:forces:R:3 energy=-1.4454078157104138 pbc="F F F"
Tm       0.00000000       0.00000000       0.00000000       0.00000000       0.00000000       0.09583172
Tm       0.00000000       0.00000000       5.64727273       0.00000000       0.00000000      -0.09583172
2
Properties=species:S:1:pos:R:3:forces:R:3 energy=-1.4404533994556634 pbc="F F F"
Tm       0.00000000       0.00000000       0.00000000       0.00000000       0.00000000       0.07340117
Tm       0.00000000       0.00000000       5.70606061       0.00000000       0.00000000      -0.07340117
2
Properties=species:S:1:pos:R:3:forces:R:3 energy=-1.4366853849003194 pbc="F F F"
Tm       0.00000000       0.00000000       0.00000000       0.00000000       0.00000000       0.05558018
Tm       0.00000000       0.00000000       5.76484848       0.00000000       0.00000000      -0.05558018
2
Properties=species:S:1:pos:R:3:forces:R:3 energy=-1.4338141995455587 pbc="F F F"
Tm       0.00000000       0.00000000       0.00000000       0.00000000       0.00000000       0.04302789
Tm       0.00000000       0.00000000       5.82363636       0.00000000       0.00000000      -0.04302789
2
Properties=species:S:1:pos:R:3:forces:R:3 energy=-1.431527816860449 pbc="F F F"
Tm       0.00000000       0.00000000       0.00000000       0.00000000       0.00000000       0.03555766
Tm       0.00000000       0.00000000       5.88242424       0.00000000       0.00000000      -0.03555766
2
Properties=species:S:1:pos:R:3:forces:R:3 energy=-1.4295547938214959 pbc="F F F"
Tm       0.00000000       0.00000000       0.00000000       0.00000000       0.00000000       0.03213806
Tm       0.00000000       0.00000000       5.94121212       0.00000000       0.00000000      -0.03213806
2
Properties=species:S:1:pos:R:3:forces:R:3 energy=-1.4277033588883261 pbc="F F F"
Tm       0.00000000       0.00000000       0.00000000       0.00000000       0.00000000       0.03099215
Tm       0.00000000       0.00000000       6.00000000       0.00000000       0.00000000      -0.03099215
