2
Properties=species:S:1:pos:R:3:forces:R:3 energy=3068.5385406543355 pbc="F F F"
Cr       0.00000000       0.00000000       0.00000000       0.00000000       0.00000000  -46383.41796875
Cr       0.00000000       0.00000000       0.18000000       0.00000000       0.00000000   46383.41796875
2
Properties=species:S:1:pos:R:3:forces:R:3 energy=1373.5332916308978 pbc="F F F"
Cr       0.00000000       0.00000000       0.00000000       0.00000000       0.00000000  -17054.93164062
Cr       0.00000000       0.00000000       0.23878788       0.00000000       0.00000000   17054.93164062
2
Properties=species:S:1:pos:R:3:forces:R:3 energy=702.0398834309407 pbc="F F F"
Cr       0.00000000       0.00000000       0.00000000       0.00000000       0.00000000   -7371.05468750
Cr       0.00000000       0.00000000       0.29757576       0.00000000       0.00000000    7371.05468750
2
Properties=species:S:1:pos:R:3:forces:R:3 energy=397.19405823879606 pbc="F F F"
Cr       0.00000000       0.00000000       0.00000000       0.00000000       0.00000000   -3538.02294922
Cr       0.00000000       0.00000000       0.35636364       0.00000000       0.00000000    3538.02294922
2
Properties=species:S:1:pos:R:3:forces:R:3 energy=245.85010988087387 pbc="F F F"
Cr       0.00000000       0.00000000       0.00000000       0.00000000       0.00000000   -1824.49511719
Cr       0.00000000       0.00000000       0.41515152       0.00000000       0.00000000    1824.49511719
2
Properties=species:S:1:pos:R:3:forces:R:3 energy=165.8110473998808 pbc="F F F"
Cr       0.00000000       0.00000000       0.00000000       0.00000000       0.00000000    -993.45361328
Cr       0.00000000       0.00000000       0.47393939       0.00000000       0.00000000     993.45361328
2
Properties=species:S:1:pos:R:3:forces:R:3 energy=121.23136603824247 pbc="F F F"
Cr       0.00000000       0.00000000       0.00000000       0.00000000       0.00000000    -569.16253662
Cr       0.00000000       0.00000000       0.53272727       0.00000000       0.00000000     569.16253662
2
Properties=species:S:1:pos:R:3:forces:R:3 energy=94.97017377348593 pbc="F F F"
Cr       0.00000000       0.00000000       0.00000000       0.00000000       0.00000000    -348.33953857
Cr       0.00000000       0.00000000       0.59151515       0.00000000       0.00000000     348.33953857
2
Properties=species:S:1:pos:R:3:forces:R:3 energy=78.11044028697762 pbc="F F F"
Cr       0.00000000       0.00000000       0.00000000       0.00000000       0.00000000    -239.51744080
Cr       0.00000000       0.00000000       0.65030303       0.00000000       0.00000000     239.51744080
2
Properties=species:S:1:pos:R:3:forces:R:3 energy=65.56237525348621 pbc="F F F"
Cr       0.00000000       0.00000000       0.00000000       0.00000000       0.00000000    -194.82377625
Cr       0.00000000       0.00000000       0.70909091       0.00000000       0.00000000     194.82377625
2
Properties=species:S:1:pos:R:3:forces:R:3 energy=54.55823272033893 pbc="F F F"
Cr       0.00000000       0.00000000       0.00000000       0.00000000       0.00000000    -182.26866150
Cr       0.00000000       0.00000000       0.76787879       0.00000000       0.00000000     182.26866150
2
Properties=species:S:1:pos:R:3:forces:R:3 energy=44.003446373999175 pbc="F F F"
Cr       0.00000000       0.00000000       0.00000000       0.00000000       0.00000000    -178.38693237
Cr       0.00000000       0.00000000       0.82666667       0.00000000       0.00000000     178.38693237
2
Properties=species:S:1:pos:R:3:forces:R:3 energy=33.61939076736736 pbc="F F F"
Cr       0.00000000       0.00000000       0.00000000       0.00000000       0.00000000    -172.34672546
Cr       0.00000000       0.00000000       0.88545455       0.00000000       0.00000000     172.34672546
2
Properties=species:S:1:pos:R:3:forces:R:3 energy=23.840668685387605 pbc="F F F"
Cr       0.00000000       0.00000000       0.00000000       0.00000000       0.00000000    -160.76246643
Cr       0.00000000       0.00000000       0.94424242       0.00000000       0.00000000     160.76246643
2
Properties=species:S:1:pos:R:3:forces:R:3 energy=14.806756954868089 pbc="F F F"
Cr       0.00000000       0.00000000       0.00000000       0.00000000       0.00000000    -143.98777771
Cr       0.00000000       0.00000000       1.00303030       0.00000000       0.00000000     143.98777771
2
Properties=species:S:1:pos:R:3:forces:R:3 energy=7.29317407553059 pbc="F F F"
Cr       0.00000000       0.00000000       0.00000000       0.00000000       0.00000000    -109.47718811
Cr       0.00000000       0.00000000       1.06181818       0.00000000       0.00000000     109.47718811
2
Properties=species:S:1:pos:R:3:forces:R:3 energy=1.9479828388999618 pbc="F F F"
Cr       0.00000000       0.00000000       0.00000000       0.00000000       0.00000000     -73.51171875
Cr       0.00000000       0.00000000       1.12060606       0.00000000       0.00000000      73.51171875
2
Properties=species:S:1:pos:R:3:forces:R:3 energy=-1.5999943269933323 pbc="F F F"
Cr       0.00000000       0.00000000       0.00000000       0.00000000       0.00000000     -49.79040146
Cr       0.00000000       0.00000000       1.17939394       0.00000000       0.00000000      49.79040146
2
Properties=species:S:1:pos:R:3:forces:R:3 energy=-4.153532678432012 pbc="F F F"
Cr       0.00000000       0.00000000       0.00000000       0.00000000       0.00000000     -38.58520889
Cr       0.00000000       0.00000000       1.23818182       0.00000000       0.00000000      38.58520889
2
Properties=species:S:1:pos:R:3:forces:R:3 energy=-6.24072732139323 pbc="F F F"
Cr       0.00000000       0.00000000       0.00000000       0.00000000       0.00000000     -32.71718597
Cr       0.00000000       0.00000000       1.29696970       0.00000000       0.00000000      32.71718597
2
Properties=species:S:1:pos:R:3:forces:R:3 energy=-7.9978552709348065 pbc="F F F"
Cr       0.00000000       0.00000000       0.00000000       0.00000000       0.00000000     -26.93494415
Cr       0.00000000       0.00000000       1.35575758       0.00000000       0.00000000      26.93494415
2
Properties=species:S:1:pos:R:3:forces:R:3 energy=-9.400348736090294 pbc="F F F"
Cr       0.00000000       0.00000000       0.00000000       0.00000000       0.00000000     -20.80844116
Cr       0.00000000       0.00000000       1.41454545       0.00000000       0.00000000      20.80844116
2
Properties=species:S:1:pos:R:3:forces:R:3 energy=-10.456137284381768 pbc="F F F"
Cr       0.00000000       0.00000000       0.00000000       0.00000000       0.00000000     -15.24821091
Cr       0.00000000       0.00000000       1.47333333       0.00000000       0.00000000      15.24821091
2
Properties=species:S:1:pos:R:3:forces:R:3 energy=-11.209384391644495 pbc="F F F"
Cr       0.00000000       0.00000000       0.00000000       0.00000000       0.00000000     -10.50662708
Cr       0.00000000       0.00000000       1.53212121       0.00000000       0.00000000      10.50662708
2
Properties=species:S:1:pos:R:3:forces:R:3 energy=-11.706560421199969 pbc="F F F"
Cr       0.00000000       0.00000000       0.00000000       0.00000000       0.00000000      -6.54475403
Cr       0.00000000       0.00000000       1.59090909       0.00000000       0.00000000       6.54475403
2
Properties=species:S:1:pos:R:3:forces:R:3 energy=-11.996247240998294 pbc="F F F"
Cr       0.00000000       0.00000000       0.00000000       0.00000000       0.00000000      -3.46124434
Cr       0.00000000       0.00000000       1.64969697       0.00000000       0.00000000       3.46124434
2
Properties=species:S:1:pos:R:3:forces:R:3 energy=-12.12998319173381 pbc="F F F"
Cr       0.00000000       0.00000000       0.00000000       0.00000000       0.00000000      -1.21157360
Cr       0.00000000       0.00000000       1.70848485       0.00000000       0.00000000       1.21157360
2
Properties=species:S:1:pos:R:3:forces:R:3 energy=-12.150810595713056 pbc="F F F"
Cr       0.00000000       0.00000000       0.00000000       0.00000000       0.00000000       0.41845962
Cr       0.00000000       0.00000000       1.76727273       0.00000000       0.00000000      -0.41845962
2
Properties=species:S:1:pos:R:3:forces:R:3 energy=-12.089211548546503 pbc="F F F"
Cr       0.00000000       0.00000000       0.00000000       0.00000000       0.00000000       1.61317372
Cr       0.00000000       0.00000000       1.82606061       0.00000000       0.00000000      -1.61317372
2
Properties=species:S:1:pos:R:3:forces:R:3 energy=-11.968616794998681 pbc="F F F"
Cr       0.00000000       0.00000000       0.00000000       0.00000000       0.00000000       2.42327833
Cr       0.00000000       0.00000000       1.88484848       0.00000000       0.00000000      -2.42327833
2
Properties=species:S:1:pos:R:3:forces:R:3 energy=-11.812381827942447 pbc="F F F"
Cr       0.00000000       0.00000000       0.00000000       0.00000000       0.00000000       2.82380271
Cr       0.00000000       0.00000000       1.94363636       0.00000000       0.00000000      -2.82380271
2
Properties=species:S:1:pos:R:3:forces:R:3 energy=-11.643704390539105 pbc="F F F"
Cr       0.00000000       0.00000000       0.00000000       0.00000000       0.00000000       2.86650658
Cr       0.00000000       0.00000000       2.00242424       0.00000000       0.00000000      -2.86650658
2
Properties=species:S:1:pos:R:3:forces:R:3 energy=-11.479155094648817 pbc="F F F"
Cr       0.00000000       0.00000000       0.00000000       0.00000000       0.00000000       2.71521878
Cr       0.00000000       0.00000000       2.06121212       0.00000000       0.00000000      -2.71521878
2
Properties=species:S:1:pos:R:3:forces:R:3 energy=-11.32486414559743 pbc="F F F"
Cr       0.00000000       0.00000000       0.00000000       0.00000000       0.00000000       2.53953385
Cr       0.00000000       0.00000000       2.12000000       0.00000000       0.00000000      -2.53953385
2
Properties=species:S:1:pos:R:3:forces:R:3 energy=-11.179716951796188 pbc="F F F"
Cr       0.00000000       0.00000000       0.00000000       0.00000000       0.00000000       2.40179634
Cr       0.00000000       0.00000000       2.17878788       0.00000000       0.00000000      -2.40179634
2
Properties=species:S:1:pos:R:3:forces:R:3 energy=-11.043303721153624 pbc="F F F"
Cr       0.00000000       0.00000000       0.00000000       0.00000000       0.00000000       2.21919298
Cr       0.00000000       0.00000000       2.23757576       0.00000000       0.00000000      -2.21919298
2
Properties=species:S:1:pos:R:3:forces:R:3 energy=-10.922575325962235 pbc="F F F"
Cr       0.00000000       0.00000000       0.00000000       0.00000000       0.00000000       1.84633911
Cr       0.00000000       0.00000000       2.29636364       0.00000000       0.00000000      -1.84633911
2
Properties=species:S:1:pos:R:3:forces:R:3 energy=-10.831583639566906 pbc="F F F"
Cr       0.00000000       0.00000000       0.00000000       0.00000000       0.00000000       1.20357144
Cr       0.00000000       0.00000000       2.35515152       0.00000000       0.00000000      -1.20357144
2
Properties=species:S:1:pos:R:3:forces:R:3 energy=-10.785882688145607 pbc="F F F"
Cr       0.00000000       0.00000000       0.00000000       0.00000000       0.00000000       0.31738833
Cr       0.00000000       0.00000000       2.41393939       0.00000000       0.00000000      -0.31738833
2
Properties=species:S:1:pos:R:3:forces:R:3 energy=-10.79699651880107 pbc="F F F"
Cr       0.00000000       0.00000000       0.00000000       0.00000000       0.00000000      -0.70581931
Cr       0.00000000       0.00000000       2.47272727       0.00000000       0.00000000       0.70581931
2
Properties=species:S:1:pos:R:3:forces:R:3 energy=-10.868168104784434 pbc="F F F"
Cr       0.00000000       0.00000000       0.00000000       0.00000000       0.00000000      -1.69135273
Cr       0.00000000       0.00000000       2.53151515       0.00000000       0.00000000       1.69135273
2
Properties=species:S:1:pos:R:3:forces:R:3 energy=-10.990775121621475 pbc="F F F"
Cr       0.00000000       0.00000000       0.00000000       0.00000000       0.00000000      -2.41848016
Cr       0.00000000       0.00000000       2.59030303       0.00000000       0.00000000       2.41848016
2
Properties=species:S:1:pos:R:3:forces:R:3 energy=-11.14372154404219 pbc="F F F"
Cr       0.00000000       0.00000000       0.00000000       0.00000000       0.00000000      -2.70140171
Cr       0.00000000       0.00000000       2.64909091       0.00000000       0.00000000       2.70140171
2
Properties=species:S:1:pos:R:3:forces:R:3 energy=-11.29872998658735 pbc="F F F"
Cr       0.00000000       0.00000000       0.00000000       0.00000000       0.00000000      -2.49842191
Cr       0.00000000       0.00000000       2.70787879       0.00000000       0.00000000       2.49842191
2
Properties=species:S:1:pos:R:3:forces:R:3 energy=-11.43081761706016 pbc="F F F"
Cr       0.00000000       0.00000000       0.00000000       0.00000000       0.00000000      -1.95832729
Cr       0.00000000       0.00000000       2.76666667       0.00000000       0.00000000       1.95832729
2
Properties=species:S:1:pos:R:3:forces:R:3 energy=-11.526856102000648 pbc="F F F"
Cr       0.00000000       0.00000000       0.00000000       0.00000000       0.00000000      -1.30736649
Cr       0.00000000       0.00000000       2.82545455       0.00000000       0.00000000       1.30736649
2
Properties=species:S:1:pos:R:3:forces:R:3 energy=-11.585808469767501 pbc="F F F"
Cr       0.00000000       0.00000000       0.00000000       0.00000000       0.00000000      -0.71885818
Cr       0.00000000       0.00000000       2.88424242       0.00000000       0.00000000       0.71885818
2
Properties=species:S:1:pos:R:3:forces:R:3 energy=-11.614514124120584 pbc="F F F"
Cr       0.00000000       0.00000000       0.00000000       0.00000000       0.00000000      -0.28799736
Cr       0.00000000       0.00000000       2.94303030       0.00000000       0.00000000       0.28799736
2
Properties=species:S:1:pos:R:3:forces:R:3 energy=-11.62323521743901 pbc="F F F"
Cr       0.00000000       0.00000000       0.00000000       0.00000000       0.00000000      -0.03697639
Cr       0.00000000       0.00000000       3.00181818       0.00000000       0.00000000       0.03697639
2
Properties=species:S:1:pos:R:3:forces:R:3 energy=-11.621656544862152 pbc="F F F"
Cr       0.00000000       0.00000000       0.00000000       0.00000000       0.00000000       0.07244686
Cr       0.00000000       0.00000000       3.06060606       0.00000000       0.00000000      -0.07244686
2
Properties=species:S:1:pos:R:3:forces:R:3 energy=-11.61614186068374 pbc="F F F"
Cr       0.00000000       0.00000000       0.00000000       0.00000000       0.00000000       0.10898313
Cr       0.00000000       0.00000000       3.11939394       0.00000000       0.00000000      -0.10898313
2
Properties=species:S:1:pos:R:3:forces:R:3 energy=-11.608989718140458 pbc="F F F"
Cr       0.00000000       0.00000000       0.00000000       0.00000000       0.00000000       0.13706090
Cr       0.00000000       0.00000000       3.17818182       0.00000000       0.00000000      -0.13706090
2
Properties=species:S:1:pos:R:3:forces:R:3 energy=-11.599422961363457 pbc="F F F"
Cr       0.00000000       0.00000000       0.00000000       0.00000000       0.00000000       0.19491875
Cr       0.00000000       0.00000000       3.23696970       0.00000000       0.00000000      -0.19491875
2
Properties=species:S:1:pos:R:3:forces:R:3 energy=-11.585308794762295 pbc="F F F"
Cr       0.00000000       0.00000000       0.00000000       0.00000000       0.00000000       0.29101554
Cr       0.00000000       0.00000000       3.29575758       0.00000000       0.00000000      -0.29101554
2
Properties=species:S:1:pos:R:3:forces:R:3 energy=-11.564695253399277 pbc="F F F"
Cr       0.00000000       0.00000000       0.00000000       0.00000000       0.00000000       0.41291893
Cr       0.00000000       0.00000000       3.35454545       0.00000000       0.00000000      -0.41291893
2
Properties=species:S:1:pos:R:3:forces:R:3 energy=-11.536665235682895 pbc="F F F"
Cr       0.00000000       0.00000000       0.00000000       0.00000000       0.00000000       0.53968763
Cr       0.00000000       0.00000000       3.41333333       0.00000000       0.00000000      -0.53968763
2
Properties=species:S:1:pos:R:3:forces:R:3 energy=-11.501539144824939 pbc="F F F"
Cr       0.00000000       0.00000000       0.00000000       0.00000000       0.00000000       0.65145391
Cr       0.00000000       0.00000000       3.47212121       0.00000000       0.00000000      -0.65145391
2
Properties=species:S:1:pos:R:3:forces:R:3 energy=-11.460643063618235 pbc="F F F"
Cr       0.00000000       0.00000000       0.00000000       0.00000000       0.00000000       0.73426139
Cr       0.00000000       0.00000000       3.53090909       0.00000000       0.00000000      -0.73426139
2
Properties=species:S:1:pos:R:3:forces:R:3 energy=-11.41591430707267 pbc="F F F"
Cr       0.00000000       0.00000000       0.00000000       0.00000000       0.00000000       0.78121239
Cr       0.00000000       0.00000000       3.58969697       0.00000000       0.00000000      -0.78121239
2
Properties=species:S:1:pos:R:3:forces:R:3 energy=-11.369508400890872 pbc="F F F"
Cr       0.00000000       0.00000000       0.00000000       0.00000000       0.00000000       0.79171205
Cr       0.00000000       0.00000000       3.64848485       0.00000000       0.00000000      -0.79171205
2
Properties=species:S:1:pos:R:3:forces:R:3 energy=-11.323463647870252 pbc="F F F"
Cr       0.00000000       0.00000000       0.00000000       0.00000000       0.00000000       0.76989073
Cr       0.00000000       0.00000000       3.70727273       0.00000000       0.00000000      -0.76989073
2
Properties=species:S:1:pos:R:3:forces:R:3 energy=-11.279485527815417 pbc="F F F"
Cr       0.00000000       0.00000000       0.00000000       0.00000000       0.00000000       0.72266650
Cr       0.00000000       0.00000000       3.76606061       0.00000000       0.00000000      -0.72266650
2
Properties=species:S:1:pos:R:3:forces:R:3 energy=-11.238840991744507 pbc="F F F"
Cr       0.00000000       0.00000000       0.00000000       0.00000000       0.00000000       0.65780860
Cr       0.00000000       0.00000000       3.82484848       0.00000000       0.00000000      -0.65780860
2
Properties=species:S:1:pos:R:3:forces:R:3 energy=-11.20234985981341 pbc="F F F"
Cr       0.00000000       0.00000000       0.00000000       0.00000000       0.00000000       0.58237565
Cr       0.00000000       0.00000000       3.88363636       0.00000000       0.00000000      -0.58237565
2
Properties=species:S:1:pos:R:3:forces:R:3 energy=-11.170465877297017 pbc="F F F"
Cr       0.00000000       0.00000000       0.00000000       0.00000000       0.00000000       0.50185567
Cr       0.00000000       0.00000000       3.94242424       0.00000000       0.00000000      -0.50185567
2
Properties=species:S:1:pos:R:3:forces:R:3 energy=-11.143368216638446 pbc="F F F"
Cr       0.00000000       0.00000000       0.00000000       0.00000000       0.00000000       0.42003819
Cr       0.00000000       0.00000000       4.00121212       0.00000000       0.00000000      -0.42003819
2
Properties=species:S:1:pos:R:3:forces:R:3 energy=-11.121054886846892 pbc="F F F"
Cr       0.00000000       0.00000000       0.00000000       0.00000000       0.00000000       0.33949673
Cr       0.00000000       0.00000000       4.06000000       0.00000000       0.00000000      -0.33949673
2
Properties=species:S:1:pos:R:3:forces:R:3 energy=-11.103385503122038 pbc="F F F"
Cr       0.00000000       0.00000000       0.00000000       0.00000000       0.00000000       0.26237375
Cr       0.00000000       0.00000000       4.11878788       0.00000000       0.00000000      -0.26237375
2
Properties=species:S:1:pos:R:3:forces:R:3 energy=-11.090092648582493 pbc="F F F"
Cr       0.00000000       0.00000000       0.00000000       0.00000000       0.00000000       0.19104764
Cr       0.00000000       0.00000000       4.17757576       0.00000000       0.00000000      -0.19104764
2
Properties=species:S:1:pos:R:3:forces:R:3 energy=-11.080751109597525 pbc="F F F"
Cr       0.00000000       0.00000000       0.00000000       0.00000000       0.00000000       0.12845676
Cr       0.00000000       0.00000000       4.23636364       0.00000000       0.00000000      -0.12845676
2
Properties=species:S:1:pos:R:3:forces:R:3 energy=-11.074753945230139 pbc="F F F"
Cr       0.00000000       0.00000000       0.00000000       0.00000000       0.00000000       0.07786238
Cr       0.00000000       0.00000000       4.29515152       0.00000000       0.00000000      -0.07786238
2
Properties=species:S:1:pos:R:3:forces:R:3 energy=-11.071303657078099 pbc="F F F"
Cr       0.00000000       0.00000000       0.00000000       0.00000000       0.00000000       0.04220400
Cr       0.00000000       0.00000000       4.35393939       0.00000000       0.00000000      -0.04220400
2
Properties=species:S:1:pos:R:3:forces:R:3 energy=-11.069462474251281 pbc="F F F"
Cr       0.00000000       0.00000000       0.00000000       0.00000000       0.00000000       0.02326977
Cr       0.00000000       0.00000000       4.41272727       0.00000000       0.00000000      -0.02326977
2
Properties=species:S:1:pos:R:3:forces:R:3 energy=-11.068239074378022 pbc="F F F"
Cr       0.00000000       0.00000000       0.00000000       0.00000000       0.00000000       0.02104790
Cr       0.00000000       0.00000000       4.47151515       0.00000000       0.00000000      -0.02104790
2
Properties=species:S:1:pos:R:3:forces:R:3 energy=-11.066699843550104 pbc="F F F"
Cr       0.00000000       0.00000000       0.00000000       0.00000000       0.00000000       0.03345829
Cr       0.00000000       0.00000000       4.53030303       0.00000000       0.00000000      -0.03345829
2
Properties=species:S:1:pos:R:3:forces:R:3 energy=-11.064094675801327 pbc="F F F"
Cr       0.00000000       0.00000000       0.00000000       0.00000000       0.00000000       0.05656053
Cr       0.00000000       0.00000000       4.58909091       0.00000000       0.00000000      -0.05656053
2
Properties=species:S:1:pos:R:3:forces:R:3 energy=-11.059941761422635 pbc="F F F"
Cr       0.00000000       0.00000000       0.00000000       0.00000000       0.00000000       0.08515394
Cr       0.00000000       0.00000000       4.64787879       0.00000000       0.00000000      -0.08515394
2
Properties=species:S:1:pos:R:3:forces:R:3 energy=-11.054084544491879 pbc="F F F"
Cr       0.00000000       0.00000000       0.00000000       0.00000000       0.00000000       0.11363451
Cr       0.00000000       0.00000000       4.70666667       0.00000000       0.00000000      -0.11363451
2
Properties=species:S:1:pos:R:3:forces:R:3 energy=-11.04668320949704 pbc="F F F"
Cr       0.00000000       0.00000000       0.00000000       0.00000000       0.00000000       0.13696831
Cr       0.00000000       0.00000000       4.76545455       0.00000000       0.00000000      -0.13696831
2
Properties=species:S:1:pos:R:3:forces:R:3 energy=-11.038151640628877 pbc="F F F"
Cr       0.00000000       0.00000000       0.00000000       0.00000000       0.00000000       0.15166023
Cr       0.00000000       0.00000000       4.82424242       0.00000000       0.00000000      -0.15166023
2
Properties=species:S:1:pos:R:3:forces:R:3 energy=-11.02904679556021 pbc="F F F"
Cr       0.00000000       0.00000000       0.00000000       0.00000000       0.00000000       0.15649833
Cr       0.00000000       0.00000000       4.88303030       0.00000000       0.00000000      -0.15649833
2
Properties=species:S:1:pos:R:3:forces:R:3 energy=-11.019918927893093 pbc="F F F"
Cr       0.00000000       0.00000000       0.00000000       0.00000000       0.00000000       0.15286843
Cr       0.00000000       0.00000000       4.94181818       0.00000000       0.00000000      -0.15286843
2
Properties=species:S:1:pos:R:3:forces:R:3 energy=-11.011169591055983 pbc="F F F"
Cr       0.00000000       0.00000000       0.00000000       0.00000000       0.00000000       0.14431885
Cr       0.00000000       0.00000000       5.00060606       0.00000000       0.00000000      -0.14431885
2
Properties=species:S:1:pos:R:3:forces:R:3 energy=-11.002959195251488 pbc="F F F"
Cr       0.00000000       0.00000000       0.00000000       0.00000000       0.00000000       0.13525602
Cr       0.00000000       0.00000000       5.05939394       0.00000000       0.00000000      -0.13525602
2
Properties=species:S:1:pos:R:3:forces:R:3 energy=-10.995210806314523 pbc="F F F"
Cr       0.00000000       0.00000000       0.00000000       0.00000000       0.00000000       0.12893759
Cr       0.00000000       0.00000000       5.11818182       0.00000000       0.00000000      -0.12893759
2
Properties=species:S:1:pos:R:3:forces:R:3 energy=-10.98774091313525 pbc="F F F"
Cr       0.00000000       0.00000000       0.00000000       0.00000000       0.00000000       0.12545653
Cr       0.00000000       0.00000000       5.17696970       0.00000000       0.00000000      -0.12545653
2
Properties=species:S:1:pos:R:3:forces:R:3 energy=-10.980477001619581 pbc="F F F"
Cr       0.00000000       0.00000000       0.00000000       0.00000000       0.00000000       0.12109412
Cr       0.00000000       0.00000000       5.23575758       0.00000000       0.00000000      -0.12109412
2
Properties=species:S:1:pos:R:3:forces:R:3 energy=-10.973611061408066 pbc="F F F"
Cr       0.00000000       0.00000000       0.00000000       0.00000000       0.00000000       0.11149497
Cr       0.00000000       0.00000000       5.29454545       0.00000000       0.00000000      -0.11149497
2
Properties=species:S:1:pos:R:3:forces:R:3 energy=-10.967406183226823 pbc="F F F"
Cr       0.00000000       0.00000000       0.00000000       0.00000000       0.00000000       0.10051525
Cr       0.00000000       0.00000000       5.35333333       0.00000000       0.00000000      -0.10051525
2
Properties=species:S:1:pos:R:3:forces:R:3 energy=-10.961481322157152 pbc="F F F"
Cr       0.00000000       0.00000000       0.00000000       0.00000000       0.00000000       0.10514255
Cr       0.00000000       0.00000000       5.41212121       0.00000000       0.00000000      -0.10514255
2
Properties=species:S:1:pos:R:3:forces:R:3 energy=-10.9546225271417 pbc="F F F"
Cr       0.00000000       0.00000000       0.00000000       0.00000000       0.00000000       0.12940189
Cr       0.00000000       0.00000000       5.47090909       0.00000000       0.00000000      -0.12940189
2
Properties=species:S:1:pos:R:3:forces:R:3 energy=-10.946571188033673 pbc="F F F"
Cr       0.00000000       0.00000000       0.00000000       0.00000000       0.00000000       0.13895258
Cr       0.00000000       0.00000000       5.52969697       0.00000000       0.00000000      -0.13895258
2
Properties=species:S:1:pos:R:3:forces:R:3 energy=-10.9389224569915 pbc="F F F"
Cr       0.00000000       0.00000000       0.00000000       0.00000000       0.00000000       0.11789665
Cr       0.00000000       0.00000000       5.58848485       0.00000000       0.00000000      -0.11789665
2
Properties=species:S:1:pos:R:3:forces:R:3 energy=-10.93272582132179 pbc="F F F"
Cr       0.00000000       0.00000000       0.00000000       0.00000000       0.00000000       0.09598092
Cr       0.00000000       0.00000000       5.64727273       0.00000000       0.00000000      -0.09598092
2
Properties=species:S:1:pos:R:3:forces:R:3 energy=-10.92708135665811 pbc="F F F"
Cr       0.00000000       0.00000000       0.00000000       0.00000000       0.00000000       0.10103711
Cr       0.00000000       0.00000000       5.70606061       0.00000000       0.00000000      -0.10103711
2
Properties=species:S:1:pos:R:3:forces:R:3 energy=-10.920535977436199 pbc="F F F"
Cr       0.00000000       0.00000000       0.00000000       0.00000000       0.00000000       0.11984298
Cr       0.00000000       0.00000000       5.76484848       0.00000000       0.00000000      -0.11984298
2
Properties=species:S:1:pos:R:3:forces:R:3 energy=-10.913574435792333 pbc="F F F"
Cr       0.00000000       0.00000000       0.00000000       0.00000000       0.00000000       0.11034836
Cr       0.00000000       0.00000000       5.82363636       0.00000000       0.00000000      -0.11034836
2
Properties=species:S:1:pos:R:3:forces:R:3 energy=-10.908228335684445 pbc="F F F"
Cr       0.00000000       0.00000000       0.00000000       0.00000000       0.00000000       0.06932797
Cr       0.00000000       0.00000000       5.88242424       0.00000000       0.00000000      -0.06932797
2
Properties=species:S:1:pos:R:3:forces:R:3 energy=-10.905422121417963 pbc="F F F"
Cr       0.00000000       0.00000000       0.00000000       0.00000000       0.00000000       0.02835389
Cr       0.00000000       0.00000000       5.94121212       0.00000000       0.00000000      -0.02835389
2
Properties=species:S:1:pos:R:3:forces:R:3 energy=-10.904398944324537 pbc="F F F"
Cr       0.00000000       0.00000000       0.00000000       0.00000000       0.00000000       0.01175158
Cr       0.00000000       0.00000000       6.00000000       0.00000000       0.00000000      -0.01175158
