2
Properties=species:S:1:pos:R:3:forces:R:3 energy=11876.548485752633 pbc="F F F"
Eu       0.00000000       0.00000000       0.00000000       0.00000000       0.00000000 -204406.46875000
Eu       0.00000000       0.00000000       0.18000000       0.00000000       0.00000000  204406.46875000
2
Properties=species:S:1:pos:R:3:forces:R:3 energy=4686.5528802838835 pbc="F F F"
Eu       0.00000000       0.00000000       0.00000000       0.00000000       0.00000000  -68678.99218750
Eu       0.00000000       0.00000000       0.23878788       0.00000000       0.00000000   68678.99218750
2
Properties=species:S:1:pos:R:3:forces:R:3 energy=2081.954735752634 pbc="F F F"
Eu       0.00000000       0.00000000       0.00000000       0.00000000       0.00000000  -27170.89257812
Eu       0.00000000       0.00000000       0.29757576       0.00000000       0.00000000   27170.89257812
2
Properties=species:S:1:pos:R:3:forces:R:3 energy=1002.163537025333 pbc="F F F"
Eu       0.00000000       0.00000000       0.00000000       0.00000000       0.00000000  -11895.17187500
Eu       0.00000000       0.00000000       0.35636364       0.00000000       0.00000000   11895.17187500
2
Properties=species:S:1:pos:R:3:forces:R:3 energy=513.690392494083 pbc="F F F"
Eu       0.00000000       0.00000000       0.00000000       0.00000000       0.00000000   -5594.26367188
Eu       0.00000000       0.00000000       0.41515152       0.00000000       0.00000000    5594.26367188
2
Properties=species:S:1:pos:R:3:forces:R:3 energy=277.8911981613133 pbc="F F F"
Eu       0.00000000       0.00000000       0.00000000       0.00000000       0.00000000   -2786.57080078
Eu       0.00000000       0.00000000       0.47393939       0.00000000       0.00000000    2786.57080078
2
Properties=species:S:1:pos:R:3:forces:R:3 energy=157.73604680046145 pbc="F F F"
Eu       0.00000000       0.00000000       0.00000000       0.00000000       0.00000000   -1459.40686035
Eu       0.00000000       0.00000000       0.53272727       0.00000000       0.00000000    1459.40686035
2
Properties=species:S:1:pos:R:3:forces:R:3 energy=93.48351384781273 pbc="F F F"
Eu       0.00000000       0.00000000       0.00000000       0.00000000       0.00000000    -800.16552734
Eu       0.00000000       0.00000000       0.59151515       0.00000000       0.00000000     800.16552734
2
Properties=species:S:1:pos:R:3:forces:R:3 energy=57.554516820689095 pbc="F F F"
Eu       0.00000000       0.00000000       0.00000000       0.00000000       0.00000000    -458.11547852
Eu       0.00000000       0.00000000       0.65030303       0.00000000       0.00000000     458.11547852
2
Properties=species:S:1:pos:R:3:forces:R:3 energy=36.57959084482298 pbc="F F F"
Eu       0.00000000       0.00000000       0.00000000       0.00000000       0.00000000    -273.80535889
Eu       0.00000000       0.00000000       0.70909091       0.00000000       0.00000000     273.80535889
2
Properties=species:S:1:pos:R:3:forces:R:3 energy=23.77913387576878 pbc="F F F"
Eu       0.00000000       0.00000000       0.00000000       0.00000000       0.00000000    -171.43722534
Eu       0.00000000       0.00000000       0.76787879       0.00000000       0.00000000     171.43722534
2
Properties=species:S:1:pos:R:3:forces:R:3 energy=15.563729409620242 pbc="F F F"
Eu       0.00000000       0.00000000       0.00000000       0.00000000       0.00000000    -113.47266388
Eu       0.00000000       0.00000000       0.82666667       0.00000000       0.00000000     113.47266388
2
Properties=species:S:1:pos:R:3:forces:R:3 energy=9.951771922927858 pbc="F F F"
Eu       0.00000000       0.00000000       0.00000000       0.00000000       0.00000000     -80.57843781
Eu       0.00000000       0.00000000       0.88545455       0.00000000       0.00000000      80.57843781
2
Properties=species:S:1:pos:R:3:forces:R:3 energy=5.8038514031063695 pbc="F F F"
Eu       0.00000000       0.00000000       0.00000000       0.00000000       0.00000000     -62.41500473
Eu       0.00000000       0.00000000       0.94424242       0.00000000       0.00000000      62.41500473
2
Properties=species:S:1:pos:R:3:forces:R:3 energy=2.4386266883945975 pbc="F F F"
Eu       0.00000000       0.00000000       0.00000000       0.00000000       0.00000000     -53.23943710
Eu       0.00000000       0.00000000       1.00303030       0.00000000       0.00000000      53.23943710
2
Properties=species:S:1:pos:R:3:forces:R:3 energy=-0.5637687735936412 pbc="F F F"
Eu       0.00000000       0.00000000       0.00000000       0.00000000       0.00000000     -49.59138107
Eu       0.00000000       0.00000000       1.06181818       0.00000000       0.00000000      49.59138107
2
Properties=species:S:1:pos:R:3:forces:R:3 energy=-3.443144009609763 pbc="F F F"
Eu       0.00000000       0.00000000       0.00000000       0.00000000       0.00000000     -48.49756241
Eu       0.00000000       0.00000000       1.12060606       0.00000000       0.00000000      48.49756241
2
Properties=species:S:1:pos:R:3:forces:R:3 energy=-6.237585894988973 pbc="F F F"
Eu       0.00000000       0.00000000       0.00000000       0.00000000       0.00000000     -45.97866058
Eu       0.00000000       0.00000000       1.17939394       0.00000000       0.00000000      45.97866058
2
Properties=species:S:1:pos:R:3:forces:R:3 energy=-8.76600406214055 pbc="F F F"
Eu       0.00000000       0.00000000       0.00000000       0.00000000       0.00000000     -39.44512177
Eu       0.00000000       0.00000000       1.23818182       0.00000000       0.00000000      39.44512177
2
Properties=species:S:1:pos:R:3:forces:R:3 energy=-10.8325490702496 pbc="F F F"
Eu       0.00000000       0.00000000       0.00000000       0.00000000       0.00000000     -30.63372231
Eu       0.00000000       0.00000000       1.29696970       0.00000000       0.00000000      30.63372231
2
Properties=species:S:1:pos:R:3:forces:R:3 energy=-12.347927414054116 pbc="F F F"
Eu       0.00000000       0.00000000       0.00000000       0.00000000       0.00000000     -20.85309219
Eu       0.00000000       0.00000000       1.35575758       0.00000000       0.00000000      20.85309219
2
Properties=species:S:1:pos:R:3:forces:R:3 energy=-13.287366430504193 pbc="F F F"
Eu       0.00000000       0.00000000       0.00000000       0.00000000       0.00000000     -11.12196922
Eu       0.00000000       0.00000000       1.41454545       0.00000000       0.00000000      11.12196922
2
Properties=species:S:1:pos:R:3:forces:R:3 energy=-13.65385298954495 pbc="F F F"
Eu       0.00000000       0.00000000       0.00000000       0.00000000       0.00000000      -1.49671328
Eu       0.00000000       0.00000000       1.47333333       0.00000000       0.00000000       1.49671328
2
Properties=species:S:1:pos:R:3:forces:R:3 energy=-13.535249077436497 pbc="F F F"
Eu       0.00000000       0.00000000       0.00000000       0.00000000       0.00000000       4.48645115
Eu       0.00000000       0.00000000       1.53212121       0.00000000       0.00000000      -4.48645115
2
Properties=species:S:1:pos:R:3:forces:R:3 energy=-13.260417793750221 pbc="F F F"
Eu       0.00000000       0.00000000       0.00000000       0.00000000       0.00000000       3.87708402
Eu       0.00000000       0.00000000       1.59090909       0.00000000       0.00000000      -3.87708402
2
Properties=species:S:1:pos:R:3:forces:R:3 energy=-13.151556048250187 pbc="F F F"
Eu       0.00000000       0.00000000       0.00000000       0.00000000       0.00000000      -0.37334660
Eu       0.00000000       0.00000000       1.64969697       0.00000000       0.00000000       0.37334660
2
Properties=species:S:1:pos:R:3:forces:R:3 energy=-13.289086204350752 pbc="F F F"
Eu       0.00000000       0.00000000       0.00000000       0.00000000       0.00000000      -3.98928976
Eu       0.00000000       0.00000000       1.70848485       0.00000000       0.00000000       3.98928976
2
Properties=species:S:1:pos:R:3:forces:R:3 energy=-13.587035406410124 pbc="F F F"
Eu       0.00000000       0.00000000       0.00000000       0.00000000       0.00000000      -5.96270227
Eu       0.00000000       0.00000000       1.76727273       0.00000000       0.00000000       5.96270227
2
Properties=species:S:1:pos:R:3:forces:R:3 energy=-13.978342166816484 pbc="F F F"
Eu       0.00000000       0.00000000       0.00000000       0.00000000       0.00000000      -7.29162931
Eu       0.00000000       0.00000000       1.82606061       0.00000000       0.00000000       7.29162931
2
Properties=species:S:1:pos:R:3:forces:R:3 energy=-14.43792191399767 pbc="F F F"
Eu       0.00000000       0.00000000       0.00000000       0.00000000       0.00000000      -8.28386116
Eu       0.00000000       0.00000000       1.88484848       0.00000000       0.00000000       8.28386116
2
Properties=species:S:1:pos:R:3:forces:R:3 energy=-14.944658308876438 pbc="F F F"
Eu       0.00000000       0.00000000       0.00000000       0.00000000       0.00000000      -8.88768864
Eu       0.00000000       0.00000000       1.94363636       0.00000000       0.00000000       8.88768864
2
Properties=species:S:1:pos:R:3:forces:R:3 energy=-15.47507375278199 pbc="F F F"
Eu       0.00000000       0.00000000       0.00000000       0.00000000       0.00000000      -9.09448051
Eu       0.00000000       0.00000000       2.00242424       0.00000000       0.00000000       9.09448051
2
Properties=species:S:1:pos:R:3:forces:R:3 energy=-16.007270746001637 pbc="F F F"
Eu       0.00000000       0.00000000       0.00000000       0.00000000       0.00000000      -8.96125603
Eu       0.00000000       0.00000000       2.06121212       0.00000000       0.00000000       8.96125603
2
Properties=species:S:1:pos:R:3:forces:R:3 energy=-16.523591951546315 pbc="F F F"
Eu       0.00000000       0.00000000       0.00000000       0.00000000       0.00000000      -8.56660175
Eu       0.00000000       0.00000000       2.12000000       0.00000000       0.00000000       8.56660175
2
Properties=species:S:1:pos:R:3:forces:R:3 energy=-17.010511336894353 pbc="F F F"
Eu       0.00000000       0.00000000       0.00000000       0.00000000       0.00000000      -7.96776390
Eu       0.00000000       0.00000000       2.17878788       0.00000000       0.00000000       7.96776390
2
Properties=species:S:1:pos:R:3:forces:R:3 energy=-17.45708733959282 pbc="F F F"
Eu       0.00000000       0.00000000       0.00000000       0.00000000       0.00000000      -7.19984579
Eu       0.00000000       0.00000000       2.23757576       0.00000000       0.00000000       7.19984579
2
Properties=species:S:1:pos:R:3:forces:R:3 energy=-17.854595721652657 pbc="F F F"
Eu       0.00000000       0.00000000       0.00000000       0.00000000       0.00000000      -6.30844688
Eu       0.00000000       0.00000000       2.29636364       0.00000000       0.00000000       6.30844688
2
Properties=species:S:1:pos:R:3:forces:R:3 energy=-18.197768471681233 pbc="F F F"
Eu       0.00000000       0.00000000       0.00000000       0.00000000       0.00000000      -5.36422157
Eu       0.00000000       0.00000000       2.35515152       0.00000000       0.00000000       5.36422157
2
Properties=species:S:1:pos:R:3:forces:R:3 energy=-18.485760916170378 pbc="F F F"
Eu       0.00000000       0.00000000       0.00000000       0.00000000       0.00000000      -4.44273758
Eu       0.00000000       0.00000000       2.41393939       0.00000000       0.00000000       4.44273758
2
Properties=species:S:1:pos:R:3:forces:R:3 energy=-18.72170168025372 pbc="F F F"
Eu       0.00000000       0.00000000       0.00000000       0.00000000       0.00000000      -3.60074353
Eu       0.00000000       0.00000000       2.47272727       0.00000000       0.00000000       3.60074353
2
Properties=species:S:1:pos:R:3:forces:R:3 energy=-18.911317723761247 pbc="F F F"
Eu       0.00000000       0.00000000       0.00000000       0.00000000       0.00000000      -2.87021708
Eu       0.00000000       0.00000000       2.53151515       0.00000000       0.00000000       2.87021708
2
Properties=species:S:1:pos:R:3:forces:R:3 energy=-19.0616126816653 pbc="F F F"
Eu       0.00000000       0.00000000       0.00000000       0.00000000       0.00000000      -2.26393580
Eu       0.00000000       0.00000000       2.59030303       0.00000000       0.00000000       2.26393580
2
Properties=species:S:1:pos:R:3:forces:R:3 energy=-19.179932795444632 pbc="F F F"
Eu       0.00000000       0.00000000       0.00000000       0.00000000       0.00000000      -1.78139806
Eu       0.00000000       0.00000000       2.64909091       0.00000000       0.00000000       1.78139806
2
Properties=species:S:1:pos:R:3:forces:R:3 energy=-19.273288343634032 pbc="F F F"
Eu       0.00000000       0.00000000       0.00000000       0.00000000       0.00000000      -1.41227150
Eu       0.00000000       0.00000000       2.70787879       0.00000000       0.00000000       1.41227150
2
Properties=species:S:1:pos:R:3:forces:R:3 energy=-19.347868006025525 pbc="F F F"
Eu       0.00000000       0.00000000       0.00000000       0.00000000       0.00000000      -1.13927817
Eu       0.00000000       0.00000000       2.76666667       0.00000000       0.00000000       1.13927817
2
Properties=species:S:1:pos:R:3:forces:R:3 energy=-19.408717627319362 pbc="F F F"
Eu       0.00000000       0.00000000       0.00000000       0.00000000       0.00000000      -0.94168830
Eu       0.00000000       0.00000000       2.82545455       0.00000000       0.00000000       0.94168830
2
Properties=species:S:1:pos:R:3:forces:R:3 energy=-19.459657602094712 pbc="F F F"
Eu       0.00000000       0.00000000       0.00000000       0.00000000       0.00000000      -0.79876727
Eu       0.00000000       0.00000000       2.88424242       0.00000000       0.00000000       0.79876727
2
Properties=species:S:1:pos:R:3:forces:R:3 energy=-19.503347771860813 pbc="F F F"
Eu       0.00000000       0.00000000       0.00000000       0.00000000       0.00000000      -0.69243836
Eu       0.00000000       0.00000000       2.94303030       0.00000000       0.00000000       0.69243836
2
Properties=species:S:1:pos:R:3:forces:R:3 energy=-19.54151357210331 pbc="F F F"
Eu       0.00000000       0.00000000       0.00000000       0.00000000       0.00000000      -0.60887665
Eu       0.00000000       0.00000000       3.00181818       0.00000000       0.00000000       0.60887665
2
Properties=species:S:1:pos:R:3:forces:R:3 energy=-19.575201822270067 pbc="F F F"
Eu       0.00000000       0.00000000       0.00000000       0.00000000       0.00000000      -0.53900558
Eu       0.00000000       0.00000000       3.06060606       0.00000000       0.00000000       0.53900558
2
Properties=species:S:1:pos:R:3:forces:R:3 energy=-19.605057933431752 pbc="F F F"
Eu       0.00000000       0.00000000       0.00000000       0.00000000       0.00000000      -0.47790870
Eu       0.00000000       0.00000000       3.11939394       0.00000000       0.00000000       0.47790870
2
Properties=species:S:1:pos:R:3:forces:R:3 energy=-19.631524464178273 pbc="F F F"
Eu       0.00000000       0.00000000       0.00000000       0.00000000       0.00000000      -0.42353678
Eu       0.00000000       0.00000000       3.17818182       0.00000000       0.00000000       0.42353678
2
Properties=species:S:1:pos:R:3:forces:R:3 energy=-19.654978434491472 pbc="F F F"
Eu       0.00000000       0.00000000       0.00000000       0.00000000       0.00000000      -0.37544850
Eu       0.00000000       0.00000000       3.23696970       0.00000000       0.00000000       0.37544850
2
Properties=species:S:1:pos:R:3:forces:R:3 energy=-19.67579843073913 pbc="F F F"
Eu       0.00000000       0.00000000       0.00000000       0.00000000       0.00000000      -0.33409083
Eu       0.00000000       0.00000000       3.29575758       0.00000000       0.00000000       0.33409083
2
Properties=species:S:1:pos:R:3:forces:R:3 energy=-19.694414454233755 pbc="F F F"
Eu       0.00000000       0.00000000       0.00000000       0.00000000       0.00000000      -0.30067343
Eu       0.00000000       0.00000000       3.35454545       0.00000000       0.00000000       0.30067343
2
Properties=species:S:1:pos:R:3:forces:R:3 energy=-19.711345583789818 pbc="F F F"
Eu       0.00000000       0.00000000       0.00000000       0.00000000       0.00000000      -0.27715230
Eu       0.00000000       0.00000000       3.41333333       0.00000000       0.00000000       0.27715230
2
Properties=species:S:1:pos:R:3:forces:R:3 energy=-19.727230926973796 pbc="F F F"
Eu       0.00000000       0.00000000       0.00000000       0.00000000       0.00000000      -0.26526773
Eu       0.00000000       0.00000000       3.47212121       0.00000000       0.00000000       0.26526773
2
Properties=species:S:1:pos:R:3:forces:R:3 energy=-19.74272700678871 pbc="F F F"
Eu       0.00000000       0.00000000       0.00000000       0.00000000       0.00000000      -0.26286989
Eu       0.00000000       0.00000000       3.53090909       0.00000000       0.00000000       0.26286989
2
Properties=species:S:1:pos:R:3:forces:R:3 energy=-19.758086812312513 pbc="F F F"
Eu       0.00000000       0.00000000       0.00000000       0.00000000       0.00000000      -0.25734225
Eu       0.00000000       0.00000000       3.58969697       0.00000000       0.00000000       0.25734225
2
Properties=species:S:1:pos:R:3:forces:R:3 energy=-19.7724452647344 pbc="F F F"
Eu       0.00000000       0.00000000       0.00000000       0.00000000       0.00000000      -0.22455549
Eu       0.00000000       0.00000000       3.64848485       0.00000000       0.00000000       0.22455549
2
Properties=species:S:1:pos:R:3:forces:R:3 energy=-19.783604350284996 pbc="F F F"
Eu       0.00000000       0.00000000       0.00000000       0.00000000       0.00000000      -0.14792509
Eu       0.00000000       0.00000000       3.70727273       0.00000000       0.00000000       0.14792509
2
Properties=species:S:1:pos:R:3:forces:R:3 energy=-19.789243934953355 pbc="F F F"
Eu       0.00000000       0.00000000       0.00000000       0.00000000       0.00000000      -0.04162136
Eu       0.00000000       0.00000000       3.76606061       0.00000000       0.00000000       0.04162136
2
Properties=species:S:1:pos:R:3:forces:R:3 energy=-19.788547475584423 pbc="F F F"
Eu       0.00000000       0.00000000       0.00000000       0.00000000       0.00000000       0.06282043
Eu       0.00000000       0.00000000       3.82484848       0.00000000       0.00000000      -0.06282043
2
Properties=species:S:1:pos:R:3:forces:R:3 energy=-19.782262744210673 pbc="F F F"
Eu       0.00000000       0.00000000       0.00000000       0.00000000       0.00000000       0.14718087
Eu       0.00000000       0.00000000       3.88363636       0.00000000       0.00000000      -0.14718087
2
Properties=species:S:1:pos:R:3:forces:R:3 energy=-19.771644762333384 pbc="F F F"
Eu       0.00000000       0.00000000       0.00000000       0.00000000       0.00000000       0.21110575
Eu       0.00000000       0.00000000       3.94242424       0.00000000       0.00000000      -0.21110575
2
Properties=species:S:1:pos:R:3:forces:R:3 energy=-19.75773289891 pbc="F F F"
Eu       0.00000000       0.00000000       0.00000000       0.00000000       0.00000000       0.26020399
Eu       0.00000000       0.00000000       4.00121212       0.00000000       0.00000000      -0.26020399
2
Properties=species:S:1:pos:R:3:forces:R:3 energy=-19.741256416389398 pbc="F F F"
Eu       0.00000000       0.00000000       0.00000000       0.00000000       0.00000000       0.29884115
Eu       0.00000000       0.00000000       4.06000000       0.00000000       0.00000000      -0.29884115
2
Properties=species:S:1:pos:R:3:forces:R:3 energy=-19.722754534629672 pbc="F F F"
Eu       0.00000000       0.00000000       0.00000000       0.00000000       0.00000000       0.32936233
Eu       0.00000000       0.00000000       4.11878788       0.00000000       0.00000000      -0.32936233
2
Properties=species:S:1:pos:R:3:forces:R:3 energy=-19.702661941112616 pbc="F F F"
Eu       0.00000000       0.00000000       0.00000000       0.00000000       0.00000000       0.35316405
Eu       0.00000000       0.00000000       4.17757576       0.00000000       0.00000000      -0.35316405
2
Properties=species:S:1:pos:R:3:forces:R:3 energy=-19.681338807569567 pbc="F F F"
Eu       0.00000000       0.00000000       0.00000000       0.00000000       0.00000000       0.37143406
Eu       0.00000000       0.00000000       4.23636364       0.00000000       0.00000000      -0.37143406
2
Properties=species:S:1:pos:R:3:forces:R:3 energy=-19.659076360233186 pbc="F F F"
Eu       0.00000000       0.00000000       0.00000000       0.00000000       0.00000000       0.38531822
Eu       0.00000000       0.00000000       4.29515152       0.00000000       0.00000000      -0.38531822
2
Properties=species:S:1:pos:R:3:forces:R:3 energy=-19.63610070464841 pbc="F F F"
Eu       0.00000000       0.00000000       0.00000000       0.00000000       0.00000000       0.39584672
Eu       0.00000000       0.00000000       4.35393939       0.00000000       0.00000000      -0.39584672
2
Properties=species:S:1:pos:R:3:forces:R:3 energy=-19.612584579251717 pbc="F F F"
Eu       0.00000000       0.00000000       0.00000000       0.00000000       0.00000000       0.40377817
Eu       0.00000000       0.00000000       4.41272727       0.00000000       0.00000000      -0.40377817
2
Properties=species:S:1:pos:R:3:forces:R:3 energy=-19.588668887087458 pbc="F F F"
Eu       0.00000000       0.00000000       0.00000000       0.00000000       0.00000000       0.40950748
Eu       0.00000000       0.00000000       4.47151515       0.00000000       0.00000000      -0.40950748
2
Properties=species:S:1:pos:R:3:forces:R:3 energy=-19.56447904432772 pbc="F F F"
Eu       0.00000000       0.00000000       0.00000000       0.00000000       0.00000000       0.41303098
Eu       0.00000000       0.00000000       4.53030303       0.00000000       0.00000000      -0.41303098
2
Properties=species:S:1:pos:R:3:forces:R:3 energy=-19.540155738604938 pbc="F F F"
Eu       0.00000000       0.00000000       0.00000000       0.00000000       0.00000000       0.41402054
Eu       0.00000000       0.00000000       4.58909091       0.00000000       0.00000000      -0.41402054
2
Properties=species:S:1:pos:R:3:forces:R:3 energy=-19.515861056539034 pbc="F F F"
Eu       0.00000000       0.00000000       0.00000000       0.00000000       0.00000000       0.41199979
Eu       0.00000000       0.00000000       4.64787879       0.00000000       0.00000000      -0.41199979
2
Properties=species:S:1:pos:R:3:forces:R:3 energy=-19.491780593826675 pbc="F F F"
Eu       0.00000000       0.00000000       0.00000000       0.00000000       0.00000000       0.40661976
Eu       0.00000000       0.00000000       4.70666667       0.00000000       0.00000000      -0.40661976
2
Properties=species:S:1:pos:R:3:forces:R:3 energy=-19.46811531899517 pbc="F F F"
Eu       0.00000000       0.00000000       0.00000000       0.00000000       0.00000000       0.39800960
Eu       0.00000000       0.00000000       4.76545455       0.00000000       0.00000000      -0.39800960
2
Properties=species:S:1:pos:R:3:forces:R:3 energy=-19.445028965931964 pbc="F F F"
Eu       0.00000000       0.00000000       0.00000000       0.00000000       0.00000000       0.38710800
Eu       0.00000000       0.00000000       4.82424242       0.00000000       0.00000000      -0.38710800
2
Properties=species:S:1:pos:R:3:forces:R:3 energy=-19.42260945608815 pbc="F F F"
Eu       0.00000000       0.00000000       0.00000000       0.00000000       0.00000000       0.37583417
Eu       0.00000000       0.00000000       4.88303030       0.00000000       0.00000000      -0.37583417
2
Properties=species:S:1:pos:R:3:forces:R:3 energy=-19.40079482232837 pbc="F F F"
Eu       0.00000000       0.00000000       0.00000000       0.00000000       0.00000000       0.36692786
Eu       0.00000000       0.00000000       4.94181818       0.00000000       0.00000000      -0.36692786
2
Properties=species:S:1:pos:R:3:forces:R:3 energy=-19.3793613213439 pbc="F F F"
Eu       0.00000000       0.00000000       0.00000000       0.00000000       0.00000000       0.36335313
Eu       0.00000000       0.00000000       5.00060606       0.00000000       0.00000000      -0.36335313
2
Properties=species:S:1:pos:R:3:forces:R:3 energy=-19.35792570213304 pbc="F F F"
Eu       0.00000000       0.00000000       0.00000000       0.00000000       0.00000000       0.36715657
Eu       0.00000000       0.00000000       5.05939394       0.00000000       0.00000000      -0.36715657
2
Properties=species:S:1:pos:R:3:forces:R:3 energy=-19.336053975558315 pbc="F F F"
Eu       0.00000000       0.00000000       0.00000000       0.00000000       0.00000000       0.37786755
Eu       0.00000000       0.00000000       5.11818182       0.00000000       0.00000000      -0.37786755
2
Properties=species:S:1:pos:R:3:forces:R:3 energy=-19.313453714433585 pbc="F F F"
Eu       0.00000000       0.00000000       0.00000000       0.00000000       0.00000000       0.39073110
Eu       0.00000000       0.00000000       5.17696970       0.00000000       0.00000000      -0.39073110
2
Properties=species:S:1:pos:R:3:forces:R:3 energy=-19.290266042591654 pbc="F F F"
Eu       0.00000000       0.00000000       0.00000000       0.00000000       0.00000000       0.39588580
Eu       0.00000000       0.00000000       5.23575758       0.00000000       0.00000000      -0.39588580
2
Properties=species:S:1:pos:R:3:forces:R:3 energy=-19.26726763644128 pbc="F F F"
Eu       0.00000000       0.00000000       0.00000000       0.00000000       0.00000000       0.38315532
Eu       0.00000000       0.00000000       5.29454545       0.00000000       0.00000000      -0.38315532
2
Properties=species:S:1:pos:R:3:forces:R:3 energy=-19.245475967156626 pbc="F F F"
Eu       0.00000000       0.00000000       0.00000000       0.00000000       0.00000000       0.35826316
Eu       0.00000000       0.00000000       5.35333333       0.00000000       0.00000000      -0.35826316
2
Properties=species:S:1:pos:R:3:forces:R:3 energy=-19.224735815956194 pbc="F F F"
Eu       0.00000000       0.00000000       0.00000000       0.00000000       0.00000000       0.35385275
Eu       0.00000000       0.00000000       5.41212121       0.00000000       0.00000000      -0.35385275
2
Properties=species:S:1:pos:R:3:forces:R:3 energy=-19.203127812292937 pbc="F F F"
Eu       0.00000000       0.00000000       0.00000000       0.00000000       0.00000000       0.38427725
Eu       0.00000000       0.00000000       5.47090909       0.00000000       0.00000000      -0.38427725
2
Properties=species:S:1:pos:R:3:forces:R:3 energy=-19.179869568145595 pbc="F F F"
Eu       0.00000000       0.00000000       0.00000000       0.00000000       0.00000000       0.39924550
Eu       0.00000000       0.00000000       5.52969697       0.00000000       0.00000000      -0.39924550
2
Properties=species:S:1:pos:R:3:forces:R:3 energy=-19.15716758682825 pbc="F F F"
Eu       0.00000000       0.00000000       0.00000000       0.00000000       0.00000000       0.36745170
Eu       0.00000000       0.00000000       5.58848485       0.00000000       0.00000000      -0.36745170
2
Properties=species:S:1:pos:R:3:forces:R:3 energy=-19.136665697472658 pbc="F F F"
Eu       0.00000000       0.00000000       0.00000000       0.00000000       0.00000000       0.33710653
Eu       0.00000000       0.00000000       5.64727273       0.00000000       0.00000000      -0.33710653
2
Properties=species:S:1:pos:R:3:forces:R:3 energy=-19.11614321279731 pbc="F F F"
Eu       0.00000000       0.00000000       0.00000000       0.00000000       0.00000000       0.37416372
Eu       0.00000000       0.00000000       5.70606061       0.00000000       0.00000000      -0.37416372
2
Properties=species:S:1:pos:R:3:forces:R:3 energy=-19.091817174934956 pbc="F F F"
Eu       0.00000000       0.00000000       0.00000000       0.00000000       0.00000000       0.44739616
Eu       0.00000000       0.00000000       5.76484848       0.00000000       0.00000000      -0.44739616
2
Properties=species:S:1:pos:R:3:forces:R:3 energy=-19.06551204092948 pbc="F F F"
Eu       0.00000000       0.00000000       0.00000000       0.00000000       0.00000000       0.42337418
Eu       0.00000000       0.00000000       5.82363636       0.00000000       0.00000000      -0.42337418
2
Properties=species:S:1:pos:R:3:forces:R:3 energy=-19.04476238812245 pbc="F F F"
Eu       0.00000000       0.00000000       0.00000000       0.00000000       0.00000000       0.27101961
Eu       0.00000000       0.00000000       5.88242424       0.00000000       0.00000000      -0.27101961
2
Properties=species:S:1:pos:R:3:forces:R:3 energy=-19.033896236692744 pbc="F F F"
Eu       0.00000000       0.00000000       0.00000000       0.00000000       0.00000000       0.10621956
Eu       0.00000000       0.00000000       5.94121212       0.00000000       0.00000000      -0.10621956
2
Properties=species:S:1:pos:R:3:forces:R:3 energy=-19.03027538673294 pbc="F F F"
Eu       0.00000000       0.00000000       0.00000000       0.00000000       0.00000000       0.03898740
Eu       0.00000000       0.00000000       6.00000000       0.00000000       0.00000000      -0.03898740
