2
Properties=species:S:1:pos:R:3:forces:R:3 energy=4942.436265530476 pbc="F F F"
Ge       0.00000000       0.00000000       0.00000000       0.00000000       0.00000000  -72830.10156250
Ge       0.00000000       0.00000000       0.18000000       0.00000000       0.00000000   72830.10156250
2
Properties=species:S:1:pos:R:3:forces:R:3 energy=2309.565660061726 pbc="F F F"
Ge       0.00000000       0.00000000       0.00000000       0.00000000       0.00000000  -26124.94140625
Ge       0.00000000       0.00000000       0.23878788       0.00000000       0.00000000   26124.94140625
2
Properties=species:S:1:pos:R:3:forces:R:3 energy=1290.2182479523508 pbc="F F F"
Ge       0.00000000       0.00000000       0.00000000       0.00000000       0.00000000  -11064.82128906
Ge       0.00000000       0.00000000       0.29757576       0.00000000       0.00000000   11064.82128906
2
Properties=species:S:1:pos:R:3:forces:R:3 energy=835.5973983461436 pbc="F F F"
Ge       0.00000000       0.00000000       0.00000000       0.00000000       0.00000000   -5245.15527344
Ge       0.00000000       0.00000000       0.35636364       0.00000000       0.00000000    5245.15527344
2
Properties=species:S:1:pos:R:3:forces:R:3 energy=610.6788192540845 pbc="F F F"
Ge       0.00000000       0.00000000       0.00000000       0.00000000       0.00000000   -2739.61938477
Ge       0.00000000       0.00000000       0.41515152       0.00000000       0.00000000    2739.61938477
2
Properties=species:S:1:pos:R:3:forces:R:3 energy=487.2424179027361 pbc="F F F"
Ge       0.00000000       0.00000000       0.00000000       0.00000000       0.00000000   -1607.96984863
Ge       0.00000000       0.00000000       0.47393939       0.00000000       0.00000000    1607.96984863
2
Properties=species:S:1:pos:R:3:forces:R:3 energy=409.34745943515276 pbc="F F F"
Ge       0.00000000       0.00000000       0.00000000       0.00000000       0.00000000   -1114.72949219
Ge       0.00000000       0.00000000       0.53272727       0.00000000       0.00000000    1114.72949219
2
Properties=species:S:1:pos:R:3:forces:R:3 energy=350.0246750620098 pbc="F F F"
Ge       0.00000000       0.00000000       0.00000000       0.00000000       0.00000000    -940.07452393
Ge       0.00000000       0.00000000       0.59151515       0.00000000       0.00000000     940.07452393
2
Properties=species:S:1:pos:R:3:forces:R:3 energy=295.8800523479744 pbc="F F F"
Ge       0.00000000       0.00000000       0.00000000       0.00000000       0.00000000    -916.52703857
Ge       0.00000000       0.00000000       0.65030303       0.00000000       0.00000000     916.52703857
2
Properties=species:S:1:pos:R:3:forces:R:3 energy=241.82548705133544 pbc="F F F"
Ge       0.00000000       0.00000000       0.00000000       0.00000000       0.00000000    -914.92584229
Ge       0.00000000       0.00000000       0.70909091       0.00000000       0.00000000     914.92584229
2
Properties=species:S:1:pos:R:3:forces:R:3 energy=189.53906452775172 pbc="F F F"
Ge       0.00000000       0.00000000       0.00000000       0.00000000       0.00000000    -859.83703613
Ge       0.00000000       0.00000000       0.76787879       0.00000000       0.00000000     859.83703613
2
Properties=species:S:1:pos:R:3:forces:R:3 energy=141.09327930940168 pbc="F F F"
Ge       0.00000000       0.00000000       0.00000000       0.00000000       0.00000000    -777.11224365
Ge       0.00000000       0.00000000       0.82666667       0.00000000       0.00000000     777.11224365
2
Properties=species:S:1:pos:R:3:forces:R:3 energy=99.9697140695652 pbc="F F F"
Ge       0.00000000       0.00000000       0.00000000       0.00000000       0.00000000    -610.20135498
Ge       0.00000000       0.00000000       0.88545455       0.00000000       0.00000000     610.20135498
2
Properties=species:S:1:pos:R:3:forces:R:3 energy=69.66104463384174 pbc="F F F"
Ge       0.00000000       0.00000000       0.00000000       0.00000000       0.00000000    -425.69067383
Ge       0.00000000       0.00000000       0.94424242       0.00000000       0.00000000     425.69067383
2
Properties=species:S:1:pos:R:3:forces:R:3 energy=49.24642220964874 pbc="F F F"
Ge       0.00000000       0.00000000       0.00000000       0.00000000       0.00000000    -272.09561157
Ge       0.00000000       0.00000000       1.00303030       0.00000000       0.00000000     272.09561157
2
Properties=species:S:1:pos:R:3:forces:R:3 energy=37.16809997630344 pbc="F F F"
Ge       0.00000000       0.00000000       0.00000000       0.00000000       0.00000000    -149.75898743
Ge       0.00000000       0.00000000       1.06181818       0.00000000       0.00000000     149.75898743
2
Properties=species:S:1:pos:R:3:forces:R:3 energy=30.081914112012416 pbc="F F F"
Ge       0.00000000       0.00000000       0.00000000       0.00000000       0.00000000    -100.67075348
Ge       0.00000000       0.00000000       1.12060606       0.00000000       0.00000000     100.67075348
2
Properties=species:S:1:pos:R:3:forces:R:3 energy=24.818865999884267 pbc="F F F"
Ge       0.00000000       0.00000000       0.00000000       0.00000000       0.00000000     -79.79027557
Ge       0.00000000       0.00000000       1.17939394       0.00000000       0.00000000      79.79027557
2
Properties=species:S:1:pos:R:3:forces:R:3 energy=20.519630332353753 pbc="F F F"
Ge       0.00000000       0.00000000       0.00000000       0.00000000       0.00000000     -68.94941711
Ge       0.00000000       0.00000000       1.23818182       0.00000000       0.00000000      68.94941711
2
Properties=species:S:1:pos:R:3:forces:R:3 energy=16.462220481342985 pbc="F F F"
Ge       0.00000000       0.00000000       0.00000000       0.00000000       0.00000000     -69.63314819
Ge       0.00000000       0.00000000       1.29696970       0.00000000       0.00000000      69.63314819
2
Properties=species:S:1:pos:R:3:forces:R:3 energy=12.459239592565783 pbc="F F F"
Ge       0.00000000       0.00000000       0.00000000       0.00000000       0.00000000     -64.76821136
Ge       0.00000000       0.00000000       1.35575758       0.00000000       0.00000000      64.76821136
2
Properties=species:S:1:pos:R:3:forces:R:3 energy=8.99634171751066 pbc="F F F"
Ge       0.00000000       0.00000000       0.00000000       0.00000000       0.00000000     -52.59719086
Ge       0.00000000       0.00000000       1.41454545       0.00000000       0.00000000      52.59719086
2
Properties=species:S:1:pos:R:3:forces:R:3 energy=6.249463290498118 pbc="F F F"
Ge       0.00000000       0.00000000       0.00000000       0.00000000       0.00000000     -41.43852234
Ge       0.00000000       0.00000000       1.47333333       0.00000000       0.00000000      41.43852234
2
Properties=species:S:1:pos:R:3:forces:R:3 energy=4.053817733471507 pbc="F F F"
Ge       0.00000000       0.00000000       0.00000000       0.00000000       0.00000000     -33.75547409
Ge       0.00000000       0.00000000       1.53212121       0.00000000       0.00000000      33.75547409
2
Properties=species:S:1:pos:R:3:forces:R:3 energy=2.2383466640783753 pbc="F F F"
Ge       0.00000000       0.00000000       0.00000000       0.00000000       0.00000000     -28.25356865
Ge       0.00000000       0.00000000       1.59090909       0.00000000       0.00000000      28.25356865
2
Properties=species:S:1:pos:R:3:forces:R:3 energy=0.7111594553001942 pbc="F F F"
Ge       0.00000000       0.00000000       0.00000000       0.00000000       0.00000000     -23.83240891
Ge       0.00000000       0.00000000       1.64969697       0.00000000       0.00000000      23.83240891
2
Properties=species:S:1:pos:R:3:forces:R:3 energy=-0.5759520385224485 pbc="F F F"
Ge       0.00000000       0.00000000       0.00000000       0.00000000       0.00000000     -20.03835678
Ge       0.00000000       0.00000000       1.70848485       0.00000000       0.00000000      20.03835678
2
Properties=species:S:1:pos:R:3:forces:R:3 energy=-1.6525326873895199 pbc="F F F"
Ge       0.00000000       0.00000000       0.00000000       0.00000000       0.00000000     -16.63759422
Ge       0.00000000       0.00000000       1.76727273       0.00000000       0.00000000      16.63759422
2
Properties=species:S:1:pos:R:3:forces:R:3 energy=-2.536768445125473 pbc="F F F"
Ge       0.00000000       0.00000000       0.00000000       0.00000000       0.00000000     -13.47821903
Ge       0.00000000       0.00000000       1.82606061       0.00000000       0.00000000      13.47821903
2
Properties=species:S:1:pos:R:3:forces:R:3 energy=-3.2413382973892966 pbc="F F F"
Ge       0.00000000       0.00000000       0.00000000       0.00000000       0.00000000     -10.53124905
Ge       0.00000000       0.00000000       1.88484848       0.00000000       0.00000000      10.53124905
2
Properties=species:S:1:pos:R:3:forces:R:3 energy=-3.780546397413138 pbc="F F F"
Ge       0.00000000       0.00000000       0.00000000       0.00000000       0.00000000      -7.86783981
Ge       0.00000000       0.00000000       1.94363636       0.00000000       0.00000000       7.86783981
2
Properties=species:S:1:pos:R:3:forces:R:3 energy=-4.173546325992426 pbc="F F F"
Ge       0.00000000       0.00000000       0.00000000       0.00000000       0.00000000      -5.56674957
Ge       0.00000000       0.00000000       2.00242424       0.00000000       0.00000000       5.56674957
2
Properties=species:S:1:pos:R:3:forces:R:3 energy=-4.442682727877371 pbc="F F F"
Ge       0.00000000       0.00000000       0.00000000       0.00000000       0.00000000      -3.65296602
Ge       0.00000000       0.00000000       2.06121212       0.00000000       0.00000000       3.65296602
2
Properties=species:S:1:pos:R:3:forces:R:3 energy=-4.610135284336201 pbc="F F F"
Ge       0.00000000       0.00000000       0.00000000       0.00000000       0.00000000      -2.10031176
Ge       0.00000000       0.00000000       2.12000000       0.00000000       0.00000000       2.10031176
2
Properties=species:S:1:pos:R:3:forces:R:3 energy=-4.695771686494169 pbc="F F F"
Ge       0.00000000       0.00000000       0.00000000       0.00000000       0.00000000      -0.86127508
Ge       0.00000000       0.00000000       2.17878788       0.00000000       0.00000000       0.86127508
2
Properties=species:S:1:pos:R:3:forces:R:3 energy=-4.7166412342715365 pbc="F F F"
Ge       0.00000000       0.00000000       0.00000000       0.00000000       0.00000000       0.11005646
Ge       0.00000000       0.00000000       2.23757576       0.00000000       0.00000000      -0.11005646
2
Properties=species:S:1:pos:R:3:forces:R:3 energy=-4.687346438249641 pbc="F F F"
Ge       0.00000000       0.00000000       0.00000000       0.00000000       0.00000000       0.85078830
Ge       0.00000000       0.00000000       2.29636364       0.00000000       0.00000000      -0.85078830
2
Properties=species:S:1:pos:R:3:forces:R:3 energy=-4.620513781491098 pbc="F F F"
Ge       0.00000000       0.00000000       0.00000000       0.00000000       0.00000000       1.39220822
Ge       0.00000000       0.00000000       2.35515152       0.00000000       0.00000000      -1.39220822
2
Properties=species:S:1:pos:R:3:forces:R:3 energy=-4.526942196461873 pbc="F F F"
Ge       0.00000000       0.00000000       0.00000000       0.00000000       0.00000000       1.76622343
Ge       0.00000000       0.00000000       2.41393939       0.00000000       0.00000000      -1.76622343
2
Properties=species:S:1:pos:R:3:forces:R:3 energy=-4.415400789377692 pbc="F F F"
Ge       0.00000000       0.00000000       0.00000000       0.00000000       0.00000000       2.01020217
Ge       0.00000000       0.00000000       2.47272727       0.00000000       0.00000000      -2.01020217
2
Properties=species:S:1:pos:R:3:forces:R:3 energy=-4.292316101392686 pbc="F F F"
Ge       0.00000000       0.00000000       0.00000000       0.00000000       0.00000000       2.16599989
Ge       0.00000000       0.00000000       2.53151515       0.00000000       0.00000000      -2.16599989
2
Properties=species:S:1:pos:R:3:forces:R:3 energy=-4.16170459531218 pbc="F F F"
Ge       0.00000000       0.00000000       0.00000000       0.00000000       0.00000000       2.27159762
Ge       0.00000000       0.00000000       2.59030303       0.00000000       0.00000000      -2.27159762
2
Properties=species:S:1:pos:R:3:forces:R:3 energy=-4.025756762809298 pbc="F F F"
Ge       0.00000000       0.00000000       0.00000000       0.00000000       0.00000000       2.34964252
Ge       0.00000000       0.00000000       2.64909091       0.00000000       0.00000000      -2.34964252
2
Properties=species:S:1:pos:R:3:forces:R:3 energy=-3.8859200250042494 pbc="F F F"
Ge       0.00000000       0.00000000       0.00000000       0.00000000       0.00000000       2.40297318
Ge       0.00000000       0.00000000       2.70787879       0.00000000       0.00000000      -2.40297318
2
Properties=species:S:1:pos:R:3:forces:R:3 energy=-3.7438858557786348 pbc="F F F"
Ge       0.00000000       0.00000000       0.00000000       0.00000000       0.00000000       2.42272091
Ge       0.00000000       0.00000000       2.76666667       0.00000000       0.00000000      -2.42272091
2
Properties=species:S:1:pos:R:3:forces:R:3 energy=-3.6018549672930944 pbc="F F F"
Ge       0.00000000       0.00000000       0.00000000       0.00000000       0.00000000       2.40261078
Ge       0.00000000       0.00000000       2.82545455       0.00000000       0.00000000      -2.40261078
2
Properties=species:S:1:pos:R:3:forces:R:3 energy=-3.462101393139646 pbc="F F F"
Ge       0.00000000       0.00000000       0.00000000       0.00000000       0.00000000       2.34681773
Ge       0.00000000       0.00000000       2.88424242       0.00000000       0.00000000      -2.34681773
2
Properties=species:S:1:pos:R:3:forces:R:3 energy=-3.3264197378785623 pbc="F F F"
Ge       0.00000000       0.00000000       0.00000000       0.00000000       0.00000000       2.26573014
Ge       0.00000000       0.00000000       2.94303030       0.00000000       0.00000000      -2.26573014
2
Properties=species:S:1:pos:R:3:forces:R:3 energy=-3.1960413635256835 pbc="F F F"
Ge       0.00000000       0.00000000       0.00000000       0.00000000       0.00000000       2.16732454
Ge       0.00000000       0.00000000       3.00181818       0.00000000       0.00000000      -2.16732454
2
Properties=species:S:1:pos:R:3:forces:R:3 energy=-3.0718599441097725 pbc="F F F"
Ge       0.00000000       0.00000000       0.00000000       0.00000000       0.00000000       2.05542135
Ge       0.00000000       0.00000000       3.06060606       0.00000000       0.00000000      -2.05542135
2
Properties=species:S:1:pos:R:3:forces:R:3 energy=-2.954575515937074 pbc="F F F"
Ge       0.00000000       0.00000000       0.00000000       0.00000000       0.00000000       1.93329370
Ge       0.00000000       0.00000000       3.11939394       0.00000000       0.00000000      -1.93329370
2
Properties=species:S:1:pos:R:3:forces:R:3 energy=-2.84466610097093 pbc="F F F"
Ge       0.00000000       0.00000000       0.00000000       0.00000000       0.00000000       1.80533540
Ge       0.00000000       0.00000000       3.17818182       0.00000000       0.00000000      -1.80533540
2
Properties=species:S:1:pos:R:3:forces:R:3 energy=-2.74233289918918 pbc="F F F"
Ge       0.00000000       0.00000000       0.00000000       0.00000000       0.00000000       1.67630923
Ge       0.00000000       0.00000000       3.23696970       0.00000000       0.00000000      -1.67630923
2
Properties=species:S:1:pos:R:3:forces:R:3 energy=-2.6475120416803875 pbc="F F F"
Ge       0.00000000       0.00000000       0.00000000       0.00000000       0.00000000       1.55032432
Ge       0.00000000       0.00000000       3.29575758       0.00000000       0.00000000      -1.55032432
2
Properties=species:S:1:pos:R:3:forces:R:3 energy=-2.559933616761447 pbc="F F F"
Ge       0.00000000       0.00000000       0.00000000       0.00000000       0.00000000       1.43034720
Ge       0.00000000       0.00000000       3.35454545       0.00000000       0.00000000      -1.43034720
2
Properties=species:S:1:pos:R:3:forces:R:3 energy=-2.47918420370623 pbc="F F F"
Ge       0.00000000       0.00000000       0.00000000       0.00000000       0.00000000       1.31818902
Ge       0.00000000       0.00000000       3.41333333       0.00000000       0.00000000      -1.31818902
2
Properties=species:S:1:pos:R:3:forces:R:3 energy=-2.404774011110828 pbc="F F F"
Ge       0.00000000       0.00000000       0.00000000       0.00000000       0.00000000       1.21477330
Ge       0.00000000       0.00000000       3.47212121       0.00000000       0.00000000      -1.21477330
2
Properties=species:S:1:pos:R:3:forces:R:3 energy=-2.336178378749711 pbc="F F F"
Ge       0.00000000       0.00000000       0.00000000       0.00000000       0.00000000       1.12045157
Ge       0.00000000       0.00000000       3.53090909       0.00000000       0.00000000      -1.12045157
2
Properties=species:S:1:pos:R:3:forces:R:3 energy=-2.2728578345909103 pbc="F F F"
Ge       0.00000000       0.00000000       0.00000000       0.00000000       0.00000000       1.03523421
Ge       0.00000000       0.00000000       3.58969697       0.00000000       0.00000000      -1.03523421
2
Properties=species:S:1:pos:R:3:forces:R:3 energy=-2.2142847888454775 pbc="F F F"
Ge       0.00000000       0.00000000       0.00000000       0.00000000       0.00000000       0.95891732
Ge       0.00000000       0.00000000       3.64848485       0.00000000       0.00000000      -0.95891732
2
Properties=species:S:1:pos:R:3:forces:R:3 energy=-2.1599470158835765 pbc="F F F"
Ge       0.00000000       0.00000000       0.00000000       0.00000000       0.00000000       0.89105117
Ge       0.00000000       0.00000000       3.70727273       0.00000000       0.00000000      -0.89105117
2
Properties=species:S:1:pos:R:3:forces:R:3 energy=-2.109366685707203 pbc="F F F"
Ge       0.00000000       0.00000000       0.00000000       0.00000000       0.00000000       0.83091563
Ge       0.00000000       0.00000000       3.76606061       0.00000000       0.00000000      -0.83091563
2
Properties=species:S:1:pos:R:3:forces:R:3 energy=-2.0621194239333107 pbc="F F F"
Ge       0.00000000       0.00000000       0.00000000       0.00000000       0.00000000       0.77750713
Ge       0.00000000       0.00000000       3.82484848       0.00000000       0.00000000      -0.77750713
2
Properties=species:S:1:pos:R:3:forces:R:3 energy=-2.01784372732781 pbc="F F F"
Ge       0.00000000       0.00000000       0.00000000       0.00000000       0.00000000       0.72955573
Ge       0.00000000       0.00000000       3.88363636       0.00000000       0.00000000      -0.72955573
2
Properties=species:S:1:pos:R:3:forces:R:3 energy=-1.9762620955280443 pbc="F F F"
Ge       0.00000000       0.00000000       0.00000000       0.00000000       0.00000000       0.68562907
Ge       0.00000000       0.00000000       3.94242424       0.00000000       0.00000000      -0.68562907
2
Properties=species:S:1:pos:R:3:forces:R:3 energy=-1.9371814266845229 pbc="F F F"
Ge       0.00000000       0.00000000       0.00000000       0.00000000       0.00000000       0.64424086
Ge       0.00000000       0.00000000       4.00121212       0.00000000       0.00000000      -0.64424086
2
Properties=species:S:1:pos:R:3:forces:R:3 energy=-1.9004932210334562 pbc="F F F"
Ge       0.00000000       0.00000000       0.00000000       0.00000000       0.00000000       0.60399139
Ge       0.00000000       0.00000000       4.06000000       0.00000000       0.00000000      -0.60399139
2
Properties=species:S:1:pos:R:3:forces:R:3 energy=-1.8661674758804117 pbc="F F F"
Ge       0.00000000       0.00000000       0.00000000       0.00000000       0.00000000       0.56372809
Ge       0.00000000       0.00000000       4.11878788       0.00000000       0.00000000      -0.56372809
2
Properties=species:S:1:pos:R:3:forces:R:3 energy=-1.8342281748360467 pbc="F F F"
Ge       0.00000000       0.00000000       0.00000000       0.00000000       0.00000000       0.52267140
Ge       0.00000000       0.00000000       4.17757576       0.00000000       0.00000000      -0.52267140
2
Properties=species:S:1:pos:R:3:forces:R:3 energy=-1.804734260679161 pbc="F F F"
Ge       0.00000000       0.00000000       0.00000000       0.00000000       0.00000000       0.48054814
Ge       0.00000000       0.00000000       4.23636364       0.00000000       0.00000000      -0.48054814
2
Properties=species:S:1:pos:R:3:forces:R:3 energy=-1.7777427173228484 pbc="F F F"
Ge       0.00000000       0.00000000       0.00000000       0.00000000       0.00000000       0.43763199
Ge       0.00000000       0.00000000       4.29515152       0.00000000       0.00000000      -0.43763199
2
Properties=species:S:1:pos:R:3:forces:R:3 energy=-1.7532802158425655 pbc="F F F"
Ge       0.00000000       0.00000000       0.00000000       0.00000000       0.00000000       0.39471176
Ge       0.00000000       0.00000000       4.35393939       0.00000000       0.00000000      -0.39471176
2
Properties=species:S:1:pos:R:3:forces:R:3 energy=-1.731312928015346 pbc="F F F"
Ge       0.00000000       0.00000000       0.00000000       0.00000000       0.00000000       0.35291839
Ge       0.00000000       0.00000000       4.41272727       0.00000000       0.00000000      -0.35291839
2
Properties=species:S:1:pos:R:3:forces:R:3 energy=-1.7117386157410912 pbc="F F F"
Ge       0.00000000       0.00000000       0.00000000       0.00000000       0.00000000       0.31349617
Ge       0.00000000       0.00000000       4.47151515       0.00000000       0.00000000      -0.31349617
2
Properties=species:S:1:pos:R:3:forces:R:3 energy=-1.694385563326656 pbc="F F F"
Ge       0.00000000       0.00000000       0.00000000       0.00000000       0.00000000       0.27749386
Ge       0.00000000       0.00000000       4.53030303       0.00000000       0.00000000      -0.27749386
2
Properties=species:S:1:pos:R:3:forces:R:3 energy=-1.6790327242717424 pbc="F F F"
Ge       0.00000000       0.00000000       0.00000000       0.00000000       0.00000000       0.24552098
Ge       0.00000000       0.00000000       4.58909091       0.00000000       0.00000000      -0.24552098
2
Properties=species:S:1:pos:R:3:forces:R:3 energy=-1.6654387081331934 pbc="F F F"
Ge       0.00000000       0.00000000       0.00000000       0.00000000       0.00000000       0.21761456
Ge       0.00000000       0.00000000       4.64787879       0.00000000       0.00000000      -0.21761456
2
Properties=species:S:1:pos:R:3:forces:R:3 energy=-1.6533762819428335 pbc="F F F"
Ge       0.00000000       0.00000000       0.00000000       0.00000000       0.00000000       0.19326882
Ge       0.00000000       0.00000000       4.70666667       0.00000000       0.00000000      -0.19326882
2
Properties=species:S:1:pos:R:3:forces:R:3 energy=-1.6426614315155839 pbc="F F F"
Ge       0.00000000       0.00000000       0.00000000       0.00000000       0.00000000       0.17165110
Ge       0.00000000       0.00000000       4.76545455       0.00000000       0.00000000      -0.17165110
2
Properties=species:S:1:pos:R:3:forces:R:3 energy=-1.633157782112601 pbc="F F F"
Ge       0.00000000       0.00000000       0.00000000       0.00000000       0.00000000       0.15189621
Ge       0.00000000       0.00000000       4.82424242       0.00000000       0.00000000      -0.15189621
2
Properties=species:S:1:pos:R:3:forces:R:3 energy=-1.6247777235939478 pbc="F F F"
Ge       0.00000000       0.00000000       0.00000000       0.00000000       0.00000000       0.13341600
Ge       0.00000000       0.00000000       4.88303030       0.00000000       0.00000000      -0.13341600
2
Properties=species:S:1:pos:R:3:forces:R:3 energy=-1.617450047680327 pbc="F F F"
Ge       0.00000000       0.00000000       0.00000000       0.00000000       0.00000000       0.11606124
Ge       0.00000000       0.00000000       4.94181818       0.00000000       0.00000000      -0.11606124
2
Properties=species:S:1:pos:R:3:forces:R:3 energy=-1.6111036669655665 pbc="F F F"
Ge       0.00000000       0.00000000       0.00000000       0.00000000       0.00000000       0.10012557
Ge       0.00000000       0.00000000       5.00060606       0.00000000       0.00000000      -0.10012557
2
Properties=species:S:1:pos:R:3:forces:R:3 energy=-1.6056391825011271 pbc="F F F"
Ge       0.00000000       0.00000000       0.00000000       0.00000000       0.00000000       0.08614191
Ge       0.00000000       0.00000000       5.05939394       0.00000000       0.00000000      -0.08614191
2
Properties=species:S:1:pos:R:3:forces:R:3 energy=-1.6009271911073828 pbc="F F F"
Ge       0.00000000       0.00000000       0.00000000       0.00000000       0.00000000       0.07461362
Ge       0.00000000       0.00000000       5.11818182       0.00000000       0.00000000      -0.07461362
2
Properties=species:S:1:pos:R:3:forces:R:3 energy=-1.59681442840383 pbc="F F F"
Ge       0.00000000       0.00000000       0.00000000       0.00000000       0.00000000       0.06573807
Ge       0.00000000       0.00000000       5.17696970       0.00000000       0.00000000      -0.06573807
2
Properties=species:S:1:pos:R:3:forces:R:3 energy=-1.5931510150513704 pbc="F F F"
Ge       0.00000000       0.00000000       0.00000000       0.00000000       0.00000000       0.05924485
Ge       0.00000000       0.00000000       5.23575758       0.00000000       0.00000000      -0.05924485
2
Properties=species:S:1:pos:R:3:forces:R:3 energy=-1.5898151275315604 pbc="F F F"
Ge       0.00000000       0.00000000       0.00000000       0.00000000       0.00000000       0.05447120
Ge       0.00000000       0.00000000       5.29454545       0.00000000       0.00000000      -0.05447120
2
Properties=species:S:1:pos:R:3:forces:R:3 energy=-1.5867241717256468 pbc="F F F"
Ge       0.00000000       0.00000000       0.00000000       0.00000000       0.00000000       0.05085360
Ge       0.00000000       0.00000000       5.35333333       0.00000000       0.00000000      -0.05085360
2
Properties=species:S:1:pos:R:3:forces:R:3 energy=-1.5838178765782513 pbc="F F F"
Ge       0.00000000       0.00000000       0.00000000       0.00000000       0.00000000       0.04814114
Ge       0.00000000       0.00000000       5.41212121       0.00000000       0.00000000      -0.04814114
2
Properties=species:S:1:pos:R:3:forces:R:3 energy=-1.5810608180832941 pbc="F F F"
Ge       0.00000000       0.00000000       0.00000000       0.00000000       0.00000000       0.04559536
Ge       0.00000000       0.00000000       5.47090909       0.00000000       0.00000000      -0.04559536
2
Properties=species:S:1:pos:R:3:forces:R:3 energy=-1.5784635890203327 pbc="F F F"
Ge       0.00000000       0.00000000       0.00000000       0.00000000       0.00000000       0.04270187
Ge       0.00000000       0.00000000       5.52969697       0.00000000       0.00000000      -0.04270187
2
Properties=species:S:1:pos:R:3:forces:R:3 energy=-1.5760506298694033 pbc="F F F"
Ge       0.00000000       0.00000000       0.00000000       0.00000000       0.00000000       0.03927924
Ge       0.00000000       0.00000000       5.58848485       0.00000000       0.00000000      -0.03927924
2
Properties=species:S:1:pos:R:3:forces:R:3 energy=-1.5738530873410275 pbc="F F F"
Ge       0.00000000       0.00000000       0.00000000       0.00000000       0.00000000       0.03559178
Ge       0.00000000       0.00000000       5.64727273       0.00000000       0.00000000      -0.03559178
2
Properties=species:S:1:pos:R:3:forces:R:3 energy=-1.5718374523612795 pbc="F F F"
Ge       0.00000000       0.00000000       0.00000000       0.00000000       0.00000000       0.03336912
Ge       0.00000000       0.00000000       5.70606061       0.00000000       0.00000000      -0.03336912
2
Properties=species:S:1:pos:R:3:forces:R:3 energy=-1.5698732828647186 pbc="F F F"
Ge       0.00000000       0.00000000       0.00000000       0.00000000       0.00000000       0.03365156
Ge       0.00000000       0.00000000       5.76484848       0.00000000       0.00000000      -0.03365156
2
Properties=species:S:1:pos:R:3:forces:R:3 energy=-1.5679098648339025 pbc="F F F"
Ge       0.00000000       0.00000000       0.00000000       0.00000000       0.00000000       0.03220733
Ge       0.00000000       0.00000000       5.82363636       0.00000000       0.00000000      -0.03220733
2
Properties=species:S:1:pos:R:3:forces:R:3 energy=-1.5662522134829198 pbc="F F F"
Ge       0.00000000       0.00000000       0.00000000       0.00000000       0.00000000       0.02313216
Ge       0.00000000       0.00000000       5.88242424       0.00000000       0.00000000      -0.02313216
2
Properties=species:S:1:pos:R:3:forces:R:3 energy=-1.565245896567105 pbc="F F F"
Ge       0.00000000       0.00000000       0.00000000       0.00000000       0.00000000       0.01140254
Ge       0.00000000       0.00000000       5.94121212       0.00000000       0.00000000      -0.01140254
2
Properties=species:S:1:pos:R:3:forces:R:3 energy=-1.5647765914096399 pbc="F F F"
Ge       0.00000000       0.00000000       0.00000000       0.00000000       0.00000000       0.00616144
Ge       0.00000000       0.00000000       6.00000000       0.00000000       0.00000000      -0.00616144
