2
Properties=species:S:1:pos:R:3:forces:R:3 energy=12907.398498504559 pbc="F F F"
Ho       0.00000000       0.00000000       0.00000000       0.00000000       0.00000000 -224023.54687500
Ho       0.00000000       0.00000000       0.18000000       0.00000000       0.00000000  224023.54687500
2
Properties=species:S:1:pos:R:3:forces:R:3 energy=5048.17340084831 pbc="F F F"
Ho       0.00000000       0.00000000       0.00000000       0.00000000       0.00000000  -74786.03125000
Ho       0.00000000       0.00000000       0.23878788       0.00000000       0.00000000   74786.03125000
2
Properties=species:S:1:pos:R:3:forces:R:3 energy=2220.01031491081 pbc="F F F"
Ho       0.00000000       0.00000000       0.00000000       0.00000000       0.00000000  -29387.02148438
Ho       0.00000000       0.00000000       0.29757576       0.00000000       0.00000000   29387.02148438
2
Properties=species:S:1:pos:R:3:forces:R:3 energy=1055.6373901061222 pbc="F F F"
Ho       0.00000000       0.00000000       0.00000000       0.00000000       0.00000000  -12776.82519531
Ho       0.00000000       0.00000000       0.35636364       0.00000000       0.00000000   12776.82519531
2
Properties=species:S:1:pos:R:3:forces:R:3 energy=532.4846191226998 pbc="F F F"
Ho       0.00000000       0.00000000       0.00000000       0.00000000       0.00000000   -5969.57812500
Ho       0.00000000       0.00000000       0.41515152       0.00000000       0.00000000    5969.57812500
2
Properties=species:S:1:pos:R:3:forces:R:3 energy=281.55224607582477 pbc="F F F"
Ho       0.00000000       0.00000000       0.00000000       0.00000000       0.00000000   -2955.38134766
Ho       0.00000000       0.00000000       0.47393939       0.00000000       0.00000000    2955.38134766
2
Properties=species:S:1:pos:R:3:forces:R:3 energy=154.46440123986326 pbc="F F F"
Ho       0.00000000       0.00000000       0.00000000       0.00000000       0.00000000   -1538.22729492
Ho       0.00000000       0.00000000       0.53272727       0.00000000       0.00000000    1538.22729492
2
Properties=species:S:1:pos:R:3:forces:R:3 energy=86.96447755915116 pbc="F F F"
Ho       0.00000000       0.00000000       0.00000000       0.00000000       0.00000000    -836.80157471
Ho       0.00000000       0.00000000       0.59151515       0.00000000       0.00000000     836.80157471
2
Properties=species:S:1:pos:R:3:forces:R:3 energy=49.58176810666248 pbc="F F F"
Ho       0.00000000       0.00000000       0.00000000       0.00000000       0.00000000    -473.13070679
Ho       0.00000000       0.00000000       0.65030303       0.00000000       0.00000000     473.13070679
2
Properties=species:S:1:pos:R:3:forces:R:3 energy=28.118431225438847 pbc="F F F"
Ho       0.00000000       0.00000000       0.00000000       0.00000000       0.00000000    -276.40884399
Ho       0.00000000       0.00000000       0.70909091       0.00000000       0.00000000     276.40884399
2
Properties=species:S:1:pos:R:3:forces:R:3 energy=15.419110533657301 pbc="F F F"
Ho       0.00000000       0.00000000       0.00000000       0.00000000       0.00000000    -165.85343933
Ho       0.00000000       0.00000000       0.76787879       0.00000000       0.00000000     165.85343933
2
Properties=species:S:1:pos:R:3:forces:R:3 energy=7.722630901020772 pbc="F F F"
Ho       0.00000000       0.00000000       0.00000000       0.00000000       0.00000000    -101.59667206
Ho       0.00000000       0.00000000       0.82666667       0.00000000       0.00000000     101.59667206
2
Properties=species:S:1:pos:R:3:forces:R:3 energy=2.9749056423485953 pbc="F F F"
Ho       0.00000000       0.00000000       0.00000000       0.00000000       0.00000000     -63.09365463
Ho       0.00000000       0.00000000       0.88545455       0.00000000       0.00000000      63.09365463
2
Properties=species:S:1:pos:R:3:forces:R:3 energy=0.021125784875439202 pbc="F F F"
Ho       0.00000000       0.00000000       0.00000000       0.00000000       0.00000000     -39.18779373
Ho       0.00000000       0.00000000       0.94424242       0.00000000       0.00000000      39.18779373
2
Properties=species:S:1:pos:R:3:forces:R:3 energy=-1.7889929363698405 pbc="F F F"
Ho       0.00000000       0.00000000       0.00000000       0.00000000       0.00000000     -23.33913040
Ho       0.00000000       0.00000000       1.00303030       0.00000000       0.00000000      23.33913040
2
Properties=species:S:1:pos:R:3:forces:R:3 energy=-2.803170629552577 pbc="F F F"
Ho       0.00000000       0.00000000       0.00000000       0.00000000       0.00000000     -11.69154549
Ho       0.00000000       0.00000000       1.06181818       0.00000000       0.00000000      11.69154549
2
Properties=species:S:1:pos:R:3:forces:R:3 energy=-3.2338725302424987 pbc="F F F"
Ho       0.00000000       0.00000000       0.00000000       0.00000000       0.00000000      -3.76892591
Ho       0.00000000       0.00000000       1.12060606       0.00000000       0.00000000       3.76892591
2
Properties=species:S:1:pos:R:3:forces:R:3 energy=-3.3615918725269602 pbc="F F F"
Ho       0.00000000       0.00000000       0.00000000       0.00000000       0.00000000      -1.47097683
Ho       0.00000000       0.00000000       1.17939394       0.00000000       0.00000000       1.47097683
2
Properties=species:S:1:pos:R:3:forces:R:3 energy=-3.4568153993719806 pbc="F F F"
Ho       0.00000000       0.00000000       0.00000000       0.00000000       0.00000000      -1.73546660
Ho       0.00000000       0.00000000       1.23818182       0.00000000       0.00000000       1.73546660
2
Properties=species:S:1:pos:R:3:forces:R:3 energy=-3.5473779650366426 pbc="F F F"
Ho       0.00000000       0.00000000       0.00000000       0.00000000       0.00000000      -1.26046705
Ho       0.00000000       0.00000000       1.29696970       0.00000000       0.00000000       1.26046705
2
Properties=species:S:1:pos:R:3:forces:R:3 energy=-3.610222973711331 pbc="F F F"
Ho       0.00000000       0.00000000       0.00000000       0.00000000       0.00000000      -1.00274515
Ho       0.00000000       0.00000000       1.35575758       0.00000000       0.00000000       1.00274515
2
Properties=species:S:1:pos:R:3:forces:R:3 energy=-3.6807559471881888 pbc="F F F"
Ho       0.00000000       0.00000000       0.00000000       0.00000000       0.00000000      -1.50612223
Ho       0.00000000       0.00000000       1.41454545       0.00000000       0.00000000       1.50612223
2
Properties=species:S:1:pos:R:3:forces:R:3 energy=-3.795813433584992 pbc="F F F"
Ho       0.00000000       0.00000000       0.00000000       0.00000000       0.00000000      -2.44497728
Ho       0.00000000       0.00000000       1.47333333       0.00000000       0.00000000       2.44497728
2
Properties=species:S:1:pos:R:3:forces:R:3 energy=-3.9686604264216183 pbc="F F F"
Ho       0.00000000       0.00000000       0.00000000       0.00000000       0.00000000      -3.40256643
Ho       0.00000000       0.00000000       1.53212121       0.00000000       0.00000000       3.40256643
2
Properties=species:S:1:pos:R:3:forces:R:3 energy=-4.186211421018484 pbc="F F F"
Ho       0.00000000       0.00000000       0.00000000       0.00000000       0.00000000      -3.86458349
Ho       0.00000000       0.00000000       1.59090909       0.00000000       0.00000000       3.86458349
2
Properties=species:S:1:pos:R:3:forces:R:3 energy=-4.405744516968075 pbc="F F F"
Ho       0.00000000       0.00000000       0.00000000       0.00000000       0.00000000      -3.50004005
Ho       0.00000000       0.00000000       1.64969697       0.00000000       0.00000000       3.50004005
2
Properties=species:S:1:pos:R:3:forces:R:3 energy=-4.597759503900378 pbc="F F F"
Ho       0.00000000       0.00000000       0.00000000       0.00000000       0.00000000      -3.12280154
Ho       0.00000000       0.00000000       1.70848485       0.00000000       0.00000000       3.12280154
2
Properties=species:S:1:pos:R:3:forces:R:3 energy=-4.785086201206515 pbc="F F F"
Ho       0.00000000       0.00000000       0.00000000       0.00000000       0.00000000      -3.32418823
Ho       0.00000000       0.00000000       1.76727273       0.00000000       0.00000000       3.32418823
2
Properties=species:S:1:pos:R:3:forces:R:3 energy=-4.992062124015402 pbc="F F F"
Ho       0.00000000       0.00000000       0.00000000       0.00000000       0.00000000      -3.71234369
Ho       0.00000000       0.00000000       1.82606061       0.00000000       0.00000000       3.71234369
2
Properties=species:S:1:pos:R:3:forces:R:3 energy=-5.219228241747114 pbc="F F F"
Ho       0.00000000       0.00000000       0.00000000       0.00000000       0.00000000      -3.99100208
Ho       0.00000000       0.00000000       1.88484848       0.00000000       0.00000000       3.99100208
2
Properties=species:S:1:pos:R:3:forces:R:3 energy=-5.458836600144243 pbc="F F F"
Ho       0.00000000       0.00000000       0.00000000       0.00000000       0.00000000      -4.14643574
Ho       0.00000000       0.00000000       1.94363636       0.00000000       0.00000000       4.14643574
2
Properties=species:S:1:pos:R:3:forces:R:3 energy=-5.705896279384241 pbc="F F F"
Ho       0.00000000       0.00000000       0.00000000       0.00000000       0.00000000      -4.25665236
Ho       0.00000000       0.00000000       2.00242424       0.00000000       0.00000000       4.25665236
2
Properties=species:S:1:pos:R:3:forces:R:3 energy=-5.959230090564584 pbc="F F F"
Ho       0.00000000       0.00000000       0.00000000       0.00000000       0.00000000      -4.36013317
Ho       0.00000000       0.00000000       2.06121212       0.00000000       0.00000000       4.36013317
2
Properties=species:S:1:pos:R:3:forces:R:3 energy=-6.217951664764094 pbc="F F F"
Ho       0.00000000       0.00000000       0.00000000       0.00000000       0.00000000      -4.43296957
Ho       0.00000000       0.00000000       2.12000000       0.00000000       0.00000000       4.43296957
2
Properties=species:S:1:pos:R:3:forces:R:3 energy=-6.479014497378492 pbc="F F F"
Ho       0.00000000       0.00000000       0.00000000       0.00000000       0.00000000      -4.43366098
Ho       0.00000000       0.00000000       2.17878788       0.00000000       0.00000000       4.43366098
2
Properties=species:S:1:pos:R:3:forces:R:3 energy=-6.737332136426841 pbc="F F F"
Ho       0.00000000       0.00000000       0.00000000       0.00000000       0.00000000      -4.33770657
Ho       0.00000000       0.00000000       2.23757576       0.00000000       0.00000000       4.33770657
2
Properties=species:S:1:pos:R:3:forces:R:3 energy=-6.987158187301248 pbc="F F F"
Ho       0.00000000       0.00000000       0.00000000       0.00000000       0.00000000      -4.14741325
Ho       0.00000000       0.00000000       2.29636364       0.00000000       0.00000000       4.14741325
2
Properties=species:S:1:pos:R:3:forces:R:3 energy=-7.223609178594708 pbc="F F F"
Ho       0.00000000       0.00000000       0.00000000       0.00000000       0.00000000      -3.88818693
Ho       0.00000000       0.00000000       2.35515152       0.00000000       0.00000000       3.88818693
2
Properties=species:S:1:pos:R:3:forces:R:3 energy=-7.443658442794255 pbc="F F F"
Ho       0.00000000       0.00000000       0.00000000       0.00000000       0.00000000      -3.59533525
Ho       0.00000000       0.00000000       2.41393939       0.00000000       0.00000000       3.59533525
2
Properties=species:S:1:pos:R:3:forces:R:3 energy=-7.646319196407142 pbc="F F F"
Ho       0.00000000       0.00000000       0.00000000       0.00000000       0.00000000      -3.30141568
Ho       0.00000000       0.00000000       2.47272727       0.00000000       0.00000000       3.30141568
2
Properties=species:S:1:pos:R:3:forces:R:3 energy=-7.832283409505326 pbc="F F F"
Ho       0.00000000       0.00000000       0.00000000       0.00000000       0.00000000      -3.03053832
Ho       0.00000000       0.00000000       2.53151515       0.00000000       0.00000000       3.03053832
2
Properties=species:S:1:pos:R:3:forces:R:3 energy=-8.003367510207537 pbc="F F F"
Ho       0.00000000       0.00000000       0.00000000       0.00000000       0.00000000      -2.79654789
Ho       0.00000000       0.00000000       2.59030303       0.00000000       0.00000000       2.79654789
2
Properties=species:S:1:pos:R:3:forces:R:3 energy=-8.161864586392669 pbc="F F F"
Ho       0.00000000       0.00000000       0.00000000       0.00000000       0.00000000      -2.60174704
Ho       0.00000000       0.00000000       2.64909091       0.00000000       0.00000000       2.60174704
2
Properties=species:S:1:pos:R:3:forces:R:3 energy=-8.309869323667936 pbc="F F F"
Ho       0.00000000       0.00000000       0.00000000       0.00000000       0.00000000      -2.43730450
Ho       0.00000000       0.00000000       2.70787879       0.00000000       0.00000000       2.43730450
2
Properties=species:S:1:pos:R:3:forces:R:3 energy=-8.448713830982992 pbc="F F F"
Ho       0.00000000       0.00000000       0.00000000       0.00000000       0.00000000      -2.28713036
Ho       0.00000000       0.00000000       2.76666667       0.00000000       0.00000000       2.28713036
2
Properties=species:S:1:pos:R:3:forces:R:3 energy=-8.578723099195496 pbc="F F F"
Ho       0.00000000       0.00000000       0.00000000       0.00000000       0.00000000      -2.13425183
Ho       0.00000000       0.00000000       2.82545455       0.00000000       0.00000000       2.13425183
2
Properties=species:S:1:pos:R:3:forces:R:3 energy=-8.699356056170926 pbc="F F F"
Ho       0.00000000       0.00000000       0.00000000       0.00000000       0.00000000      -1.96669602
Ho       0.00000000       0.00000000       2.88424242       0.00000000       0.00000000       1.96669602
2
Properties=species:S:1:pos:R:3:forces:R:3 energy=-8.809587061851715 pbc="F F F"
Ho       0.00000000       0.00000000       0.00000000       0.00000000       0.00000000      -1.78041744
Ho       0.00000000       0.00000000       2.94303030       0.00000000       0.00000000       1.78041744
2
Properties=species:S:1:pos:R:3:forces:R:3 energy=-8.908389446478253 pbc="F F F"
Ho       0.00000000       0.00000000       0.00000000       0.00000000       0.00000000      -1.57894301
Ho       0.00000000       0.00000000       3.00181818       0.00000000       0.00000000       1.57894301
2
Properties=species:S:1:pos:R:3:forces:R:3 energy=-8.99510554889493 pbc="F F F"
Ho       0.00000000       0.00000000       0.00000000       0.00000000       0.00000000      -1.37101316
Ho       0.00000000       0.00000000       3.06060606       0.00000000       0.00000000       1.37101316
2
Properties=species:S:1:pos:R:3:forces:R:3 energy=-9.069674492656302 pbc="F F F"
Ho       0.00000000       0.00000000       0.00000000       0.00000000       0.00000000      -1.16750038
Ho       0.00000000       0.00000000       3.11939394       0.00000000       0.00000000       1.16750038
2
Properties=species:S:1:pos:R:3:forces:R:3 energy=-9.132655276951306 pbc="F F F"
Ho       0.00000000       0.00000000       0.00000000       0.00000000       0.00000000      -0.97818053
Ho       0.00000000       0.00000000       3.17818182       0.00000000       0.00000000       0.97818053
2
Properties=species:S:1:pos:R:3:forces:R:3 energy=-9.185077876697003 pbc="F F F"
Ho       0.00000000       0.00000000       0.00000000       0.00000000       0.00000000      -0.80870533
Ho       0.00000000       0.00000000       3.23696970       0.00000000       0.00000000       0.80870533
2
Properties=species:S:1:pos:R:3:forces:R:3 energy=-9.228120900619638 pbc="F F F"
Ho       0.00000000       0.00000000       0.00000000       0.00000000       0.00000000      -0.65849251
Ho       0.00000000       0.00000000       3.29575758       0.00000000       0.00000000       0.65849251
2
Properties=species:S:1:pos:R:3:forces:R:3 energy=-9.262745431002301 pbc="F F F"
Ho       0.00000000       0.00000000       0.00000000       0.00000000       0.00000000      -0.52066773
Ho       0.00000000       0.00000000       3.35454545       0.00000000       0.00000000       0.52066773
2
Properties=species:S:1:pos:R:3:forces:R:3 energy=-9.289375492103767 pbc="F F F"
Ho       0.00000000       0.00000000       0.00000000       0.00000000       0.00000000      -0.38470072
Ho       0.00000000       0.00000000       3.41333333       0.00000000       0.00000000       0.38470072
2
Properties=species:S:1:pos:R:3:forces:R:3 energy=-9.3078228239291 pbc="F F F"
Ho       0.00000000       0.00000000       0.00000000       0.00000000       0.00000000      -0.24104673
Ho       0.00000000       0.00000000       3.47212121       0.00000000       0.00000000       0.24104673
2
Properties=species:S:1:pos:R:3:forces:R:3 energy=-9.31748701445193 pbc="F F F"
Ho       0.00000000       0.00000000       0.00000000       0.00000000       0.00000000      -0.08597318
Ho       0.00000000       0.00000000       3.53090909       0.00000000       0.00000000       0.08597318
2
Properties=species:S:1:pos:R:3:forces:R:3 energy=-9.317797215549687 pbc="F F F"
Ho       0.00000000       0.00000000       0.00000000       0.00000000       0.00000000       0.07562750
Ho       0.00000000       0.00000000       3.58969697       0.00000000       0.00000000      -0.07562750
2
Properties=species:S:1:pos:R:3:forces:R:3 energy=-9.308716548017978 pbc="F F F"
Ho       0.00000000       0.00000000       0.00000000       0.00000000       0.00000000       0.23089403
Ho       0.00000000       0.00000000       3.64848485       0.00000000       0.00000000      -0.23089403
2
Properties=species:S:1:pos:R:3:forces:R:3 energy=-9.291100733798693 pbc="F F F"
Ho       0.00000000       0.00000000       0.00000000       0.00000000       0.00000000       0.36322787
Ho       0.00000000       0.00000000       3.70727273       0.00000000       0.00000000      -0.36322787
2
Properties=species:S:1:pos:R:3:forces:R:3 energy=-9.26674097331039 pbc="F F F"
Ho       0.00000000       0.00000000       0.00000000       0.00000000       0.00000000       0.45851284
Ho       0.00000000       0.00000000       3.76606061       0.00000000       0.00000000      -0.45851284
2
Properties=species:S:1:pos:R:3:forces:R:3 energy=-9.238046422586077 pbc="F F F"
Ho       0.00000000       0.00000000       0.00000000       0.00000000       0.00000000       0.51051217
Ho       0.00000000       0.00000000       3.82484848       0.00000000       0.00000000      -0.51051217
2
Properties=species:S:1:pos:R:3:forces:R:3 energy=-9.20749874224939 pbc="F F F"
Ho       0.00000000       0.00000000       0.00000000       0.00000000       0.00000000       0.52291173
Ho       0.00000000       0.00000000       3.88363636       0.00000000       0.00000000      -0.52291173
2
Properties=species:S:1:pos:R:3:forces:R:3 energy=-9.177117035537927 pbc="F F F"
Ho       0.00000000       0.00000000       0.00000000       0.00000000       0.00000000       0.50719756
Ho       0.00000000       0.00000000       3.94242424       0.00000000       0.00000000      -0.50719756
2
Properties=species:S:1:pos:R:3:forces:R:3 energy=-9.148130820376103 pbc="F F F"
Ho       0.00000000       0.00000000       0.00000000       0.00000000       0.00000000       0.47783867
Ho       0.00000000       0.00000000       4.00121212       0.00000000       0.00000000      -0.47783867
2
Properties=species:S:1:pos:R:3:forces:R:3 energy=-9.120952404498192 pbc="F F F"
Ho       0.00000000       0.00000000       0.00000000       0.00000000       0.00000000       0.44740650
Ho       0.00000000       0.00000000       4.06000000       0.00000000       0.00000000      -0.44740650
2
Properties=species:S:1:pos:R:3:forces:R:3 energy=-9.095392428515124 pbc="F F F"
Ho       0.00000000       0.00000000       0.00000000       0.00000000       0.00000000       0.42362517
Ho       0.00000000       0.00000000       4.11878788       0.00000000       0.00000000      -0.42362517
2
Properties=species:S:1:pos:R:3:forces:R:3 energy=-9.070964151377863 pbc="F F F"
Ho       0.00000000       0.00000000       0.00000000       0.00000000       0.00000000       0.40888074
Ho       0.00000000       0.00000000       4.17757576       0.00000000       0.00000000      -0.40888074
2
Properties=species:S:1:pos:R:3:forces:R:3 energy=-9.047173399047814 pbc="F F F"
Ho       0.00000000       0.00000000       0.00000000       0.00000000       0.00000000       0.40145180
Ho       0.00000000       0.00000000       4.23636364       0.00000000       0.00000000      -0.40145180
2
Properties=species:S:1:pos:R:3:forces:R:3 energy=-9.023696907929637 pbc="F F F"
Ho       0.00000000       0.00000000       0.00000000       0.00000000       0.00000000       0.39741886
Ho       0.00000000       0.00000000       4.29515152       0.00000000       0.00000000      -0.39741886
2
Properties=species:S:1:pos:R:3:forces:R:3 energy=-9.000464461239696 pbc="F F F"
Ho       0.00000000       0.00000000       0.00000000       0.00000000       0.00000000       0.39251253
Ho       0.00000000       0.00000000       4.35393939       0.00000000       0.00000000      -0.39251253
2
Properties=species:S:1:pos:R:3:forces:R:3 energy=-8.977628339749721 pbc="F F F"
Ho       0.00000000       0.00000000       0.00000000       0.00000000       0.00000000       0.38351792
Ho       0.00000000       0.00000000       4.41272727       0.00000000       0.00000000      -0.38351792
2
Properties=species:S:1:pos:R:3:forces:R:3 energy=-8.955479499817262 pbc="F F F"
Ho       0.00000000       0.00000000       0.00000000       0.00000000       0.00000000       0.36910209
Ho       0.00000000       0.00000000       4.47151515       0.00000000       0.00000000      -0.36910209
2
Properties=species:S:1:pos:R:3:forces:R:3 energy=-8.934323602060207 pbc="F F F"
Ho       0.00000000       0.00000000       0.00000000       0.00000000       0.00000000       0.34997925
Ho       0.00000000       0.00000000       4.53030303       0.00000000       0.00000000      -0.34997925
2
Properties=species:S:1:pos:R:3:forces:R:3 energy=-8.914379012554438 pbc="F F F"
Ho       0.00000000       0.00000000       0.00000000       0.00000000       0.00000000       0.32840127
Ho       0.00000000       0.00000000       4.58909091       0.00000000       0.00000000      -0.32840127
2
Properties=species:S:1:pos:R:3:forces:R:3 energy=-8.895705397637334 pbc="F F F"
Ho       0.00000000       0.00000000       0.00000000       0.00000000       0.00000000       0.30715442
Ho       0.00000000       0.00000000       4.64787879       0.00000000       0.00000000      -0.30715442
2
Properties=species:S:1:pos:R:3:forces:R:3 energy=-8.87821503495105 pbc="F F F"
Ho       0.00000000       0.00000000       0.00000000       0.00000000       0.00000000       0.28838888
Ho       0.00000000       0.00000000       4.70666667       0.00000000       0.00000000      -0.28838888
2
Properties=species:S:1:pos:R:3:forces:R:3 energy=-8.861734986006754 pbc="F F F"
Ho       0.00000000       0.00000000       0.00000000       0.00000000       0.00000000       0.27277520
Ho       0.00000000       0.00000000       4.76545455       0.00000000       0.00000000      -0.27277520
2
Properties=species:S:1:pos:R:3:forces:R:3 energy=-8.846099551908177 pbc="F F F"
Ho       0.00000000       0.00000000       0.00000000       0.00000000       0.00000000       0.25932023
Ho       0.00000000       0.00000000       4.82424242       0.00000000       0.00000000      -0.25932023
2
Properties=species:S:1:pos:R:3:forces:R:3 energy=-8.831242811438518 pbc="F F F"
Ho       0.00000000       0.00000000       0.00000000       0.00000000       0.00000000       0.24600488
Ho       0.00000000       0.00000000       4.88303030       0.00000000       0.00000000      -0.24600488
2
Properties=species:S:1:pos:R:3:forces:R:3 energy=-8.817210980812694 pbc="F F F"
Ho       0.00000000       0.00000000       0.00000000       0.00000000       0.00000000       0.23097037
Ho       0.00000000       0.00000000       4.94181818       0.00000000       0.00000000      -0.23097037
2
Properties=species:S:1:pos:R:3:forces:R:3 energy=-8.804130929753606 pbc="F F F"
Ho       0.00000000       0.00000000       0.00000000       0.00000000       0.00000000       0.21372578
Ho       0.00000000       0.00000000       5.00060606       0.00000000       0.00000000      -0.21372578
2
Properties=species:S:1:pos:R:3:forces:R:3 energy=-8.792099631299179 pbc="F F F"
Ho       0.00000000       0.00000000       0.00000000       0.00000000       0.00000000       0.19560552
Ho       0.00000000       0.00000000       5.05939394       0.00000000       0.00000000      -0.19560552
2
Properties=species:S:1:pos:R:3:forces:R:3 energy=-8.781101008403132 pbc="F F F"
Ho       0.00000000       0.00000000       0.00000000       0.00000000       0.00000000       0.17903697
Ho       0.00000000       0.00000000       5.11818182       0.00000000       0.00000000      -0.17903697
2
Properties=species:S:1:pos:R:3:forces:R:3 energy=-8.770986892126889 pbc="F F F"
Ho       0.00000000       0.00000000       0.00000000       0.00000000       0.00000000       0.16554056
Ho       0.00000000       0.00000000       5.17696970       0.00000000       0.00000000      -0.16554056
2
Properties=species:S:1:pos:R:3:forces:R:3 energy=-8.761609544355684 pbc="F F F"
Ho       0.00000000       0.00000000       0.00000000       0.00000000       0.00000000       0.15333915
Ho       0.00000000       0.00000000       5.23575758       0.00000000       0.00000000      -0.15333915
2
Properties=species:S:1:pos:R:3:forces:R:3 energy=-8.75303608246429 pbc="F F F"
Ho       0.00000000       0.00000000       0.00000000       0.00000000       0.00000000       0.13730451
Ho       0.00000000       0.00000000       5.29454545       0.00000000       0.00000000      -0.13730451
2
Properties=species:S:1:pos:R:3:forces:R:3 energy=-8.745554239376785 pbc="F F F"
Ho       0.00000000       0.00000000       0.00000000       0.00000000       0.00000000       0.11758504
Ho       0.00000000       0.00000000       5.35333333       0.00000000       0.00000000      -0.11758504
2
Properties=species:S:1:pos:R:3:forces:R:3 energy=-8.73888065549283 pbc="F F F"
Ho       0.00000000       0.00000000       0.00000000       0.00000000       0.00000000       0.11499918
Ho       0.00000000       0.00000000       5.41212121       0.00000000       0.00000000      -0.11499918
2
Properties=species:S:1:pos:R:3:forces:R:3 energy=-8.731291007333859 pbc="F F F"
Ho       0.00000000       0.00000000       0.00000000       0.00000000       0.00000000       0.14756791
Ho       0.00000000       0.00000000       5.47090909       0.00000000       0.00000000      -0.14756791
2
Properties=species:S:1:pos:R:3:forces:R:3 energy=-8.721598900756558 pbc="F F F"
Ho       0.00000000       0.00000000       0.00000000       0.00000000       0.00000000       0.17689656
Ho       0.00000000       0.00000000       5.52969697       0.00000000       0.00000000      -0.17689656
2
Properties=species:S:1:pos:R:3:forces:R:3 energy=-8.71123759626576 pbc="F F F"
Ho       0.00000000       0.00000000       0.00000000       0.00000000       0.00000000       0.17093322
Ho       0.00000000       0.00000000       5.58848485       0.00000000       0.00000000      -0.17093322
2
Properties=species:S:1:pos:R:3:forces:R:3 energy=-8.701560074661328 pbc="F F F"
Ho       0.00000000       0.00000000       0.00000000       0.00000000       0.00000000       0.16274029
Ho       0.00000000       0.00000000       5.64727273       0.00000000       0.00000000      -0.16274029
2
Properties=species:S:1:pos:R:3:forces:R:3 energy=-8.691239238488247 pbc="F F F"
Ho       0.00000000       0.00000000       0.00000000       0.00000000       0.00000000       0.19556108
Ho       0.00000000       0.00000000       5.70606061       0.00000000       0.00000000      -0.19556108
2
Properties=species:S:1:pos:R:3:forces:R:3 energy=-8.67842319064913 pbc="F F F"
Ho       0.00000000       0.00000000       0.00000000       0.00000000       0.00000000       0.23201457
Ho       0.00000000       0.00000000       5.76484848       0.00000000       0.00000000      -0.23201457
2
Properties=species:S:1:pos:R:3:forces:R:3 energy=-8.665502595291139 pbc="F F F"
Ho       0.00000000       0.00000000       0.00000000       0.00000000       0.00000000       0.19463985
Ho       0.00000000       0.00000000       5.82363636       0.00000000       0.00000000      -0.19463985
2
Properties=species:S:1:pos:R:3:forces:R:3 energy=-8.65641544846799 pbc="F F F"
Ho       0.00000000       0.00000000       0.00000000       0.00000000       0.00000000       0.11491838
Ho       0.00000000       0.00000000       5.88242424       0.00000000       0.00000000      -0.11491838
2
Properties=species:S:1:pos:R:3:forces:R:3 energy=-8.65158032687414 pbc="F F F"
Ho       0.00000000       0.00000000       0.00000000       0.00000000       0.00000000       0.05476324
Ho       0.00000000       0.00000000       5.94121212       0.00000000       0.00000000      -0.05476324
2
Properties=species:S:1:pos:R:3:forces:R:3 energy=-8.649204645273201 pbc="F F F"
Ho       0.00000000       0.00000000       0.00000000       0.00000000       0.00000000       0.03309826
Ho       0.00000000       0.00000000       6.00000000       0.00000000       0.00000000      -0.03309826
