2
Properties=species:S:1:pos:R:3:forces:R:3 energy=16960.75344769681 pbc="F F F"
Pb       0.00000000       0.00000000       0.00000000       0.00000000       0.00000000 -301832.78125000
Pb       0.00000000       0.00000000       0.18000000       0.00000000       0.00000000  301832.78125000
2
Properties=species:S:1:pos:R:3:forces:R:3 energy=6466.4477836343085 pbc="F F F"
Pb       0.00000000       0.00000000       0.00000000       0.00000000       0.00000000  -98560.77343750
Pb       0.00000000       0.00000000       0.23878788       0.00000000       0.00000000   98560.77343750
2
Properties=species:S:1:pos:R:3:forces:R:3 energy=2775.302519962434 pbc="F F F"
Pb       0.00000000       0.00000000       0.00000000       0.00000000       0.00000000  -37839.66796875
Pb       0.00000000       0.00000000       0.29757576       0.00000000       0.00000000   37839.66796875
2
Properties=species:S:1:pos:R:3:forces:R:3 energy=1290.956328556184 pbc="F F F"
Pb       0.00000000       0.00000000       0.00000000       0.00000000       0.00000000  -16077.60742188
Pb       0.00000000       0.00000000       0.35636364       0.00000000       0.00000000   16077.60742188
2
Properties=species:S:1:pos:R:3:forces:R:3 energy=638.7256156687267 pbc="F F F"
Pb       0.00000000       0.00000000       0.00000000       0.00000000       0.00000000   -7358.23779297
Pb       0.00000000       0.00000000       0.41515152       0.00000000       0.00000000    7358.23779297
2
Properties=species:S:1:pos:R:3:forces:R:3 energy=331.8442985363905 pbc="F F F"
Pb       0.00000000       0.00000000       0.00000000       0.00000000       0.00000000   -3580.83422852
Pb       0.00000000       0.00000000       0.47393939       0.00000000       0.00000000    3580.83422852
2
Properties=species:S:1:pos:R:3:forces:R:3 energy=178.87597579515554 pbc="F F F"
Pb       0.00000000       0.00000000       0.00000000       0.00000000       0.00000000   -1836.61450195
Pb       0.00000000       0.00000000       0.53272727       0.00000000       0.00000000    1836.61450195
2
Properties=species:S:1:pos:R:3:forces:R:3 energy=98.86511918257668 pbc="F F F"
Pb       0.00000000       0.00000000       0.00000000       0.00000000       0.00000000    -981.68768311
Pb       0.00000000       0.00000000       0.59151515       0.00000000       0.00000000     981.68768311
2
Properties=species:S:1:pos:R:3:forces:R:3 energy=55.59017491200281 pbc="F F F"
Pb       0.00000000       0.00000000       0.00000000       0.00000000       0.00000000    -536.19171143
Pb       0.00000000       0.00000000       0.65030303       0.00000000       0.00000000     536.19171143
2
Properties=species:S:1:pos:R:3:forces:R:3 energy=31.99706964652585 pbc="F F F"
Pb       0.00000000       0.00000000       0.00000000       0.00000000       0.00000000    -289.36480713
Pb       0.00000000       0.00000000       0.70909091       0.00000000       0.00000000     289.36480713
2
Properties=species:S:1:pos:R:3:forces:R:3 energy=19.81067979945788 pbc="F F F"
Pb       0.00000000       0.00000000       0.00000000       0.00000000       0.00000000    -129.33935547
Pb       0.00000000       0.00000000       0.76787879       0.00000000       0.00000000     129.33935547
2
Properties=species:S:1:pos:R:3:forces:R:3 energy=16.774781704881313 pbc="F F F"
Pb       0.00000000       0.00000000       0.00000000       0.00000000       0.00000000       9.72585964
Pb       0.00000000       0.00000000       0.82666667       0.00000000       0.00000000      -9.72585964
2
Properties=species:S:1:pos:R:3:forces:R:3 energy=18.390220327743954 pbc="F F F"
Pb       0.00000000       0.00000000       0.00000000       0.00000000       0.00000000      32.37443161
Pb       0.00000000       0.00000000       0.88545455       0.00000000       0.00000000     -32.37443161
2
Properties=species:S:1:pos:R:3:forces:R:3 energy=20.082282933756836 pbc="F F F"
Pb       0.00000000       0.00000000       0.00000000       0.00000000       0.00000000      29.36682701
Pb       0.00000000       0.00000000       0.94424242       0.00000000       0.00000000     -29.36682701
2
Properties=species:S:1:pos:R:3:forces:R:3 energy=21.278856504817515 pbc="F F F"
Pb       0.00000000       0.00000000       0.00000000       0.00000000       0.00000000      -4.99001217
Pb       0.00000000       0.00000000       1.00303030       0.00000000       0.00000000       4.99001217
2
Properties=species:S:1:pos:R:3:forces:R:3 energy=21.321383168087227 pbc="F F F"
Pb       0.00000000       0.00000000       0.00000000       0.00000000       0.00000000       8.92526817
Pb       0.00000000       0.00000000       1.06181818       0.00000000       0.00000000      -8.92526817
2
Properties=species:S:1:pos:R:3:forces:R:3 energy=22.140506046412696 pbc="F F F"
Pb       0.00000000       0.00000000       0.00000000       0.00000000       0.00000000      17.28974533
Pb       0.00000000       0.00000000       1.12060606       0.00000000       0.00000000     -17.28974533
2
Properties=species:S:1:pos:R:3:forces:R:3 energy=23.16824916721169 pbc="F F F"
Pb       0.00000000       0.00000000       0.00000000       0.00000000       0.00000000      16.95175934
Pb       0.00000000       0.00000000       1.17939394       0.00000000       0.00000000     -16.95175934
2
Properties=species:S:1:pos:R:3:forces:R:3 energy=24.881295237797595 pbc="F F F"
Pb       0.00000000       0.00000000       0.00000000       0.00000000       0.00000000      49.33878708
Pb       0.00000000       0.00000000       1.23818182       0.00000000       0.00000000     -49.33878708
2
Properties=species:S:1:pos:R:3:forces:R:3 energy=26.70205336330492 pbc="F F F"
Pb       0.00000000       0.00000000       0.00000000       0.00000000       0.00000000      11.03387928
Pb       0.00000000       0.00000000       1.29696970       0.00000000       0.00000000     -11.03387928
2
Properties=species:S:1:pos:R:3:forces:R:3 energy=26.410678788974884 pbc="F F F"
Pb       0.00000000       0.00000000       0.00000000       0.00000000       0.00000000     -22.04399300
Pb       0.00000000       0.00000000       1.35575758       0.00000000       0.00000000      22.04399300
2
Properties=species:S:1:pos:R:3:forces:R:3 energy=24.24632066545621 pbc="F F F"
Pb       0.00000000       0.00000000       0.00000000       0.00000000       0.00000000     -48.03112793
Pb       0.00000000       0.00000000       1.41454545       0.00000000       0.00000000      48.03112793
2
Properties=species:S:1:pos:R:3:forces:R:3 energy=21.18416638308366 pbc="F F F"
Pb       0.00000000       0.00000000       0.00000000       0.00000000       0.00000000     -54.20005417
Pb       0.00000000       0.00000000       1.47333333       0.00000000       0.00000000      54.20005417
2
Properties=species:S:1:pos:R:3:forces:R:3 energy=17.975911653987357 pbc="F F F"
Pb       0.00000000       0.00000000       0.00000000       0.00000000       0.00000000     -53.92416763
Pb       0.00000000       0.00000000       1.53212121       0.00000000       0.00000000      53.92416763
2
Properties=species:S:1:pos:R:3:forces:R:3 energy=14.935867613400115 pbc="F F F"
Pb       0.00000000       0.00000000       0.00000000       0.00000000       0.00000000     -49.77161026
Pb       0.00000000       0.00000000       1.59090909       0.00000000       0.00000000      49.77161026
2
Properties=species:S:1:pos:R:3:forces:R:3 energy=12.044369617294874 pbc="F F F"
Pb       0.00000000       0.00000000       0.00000000       0.00000000       0.00000000     -48.78525543
Pb       0.00000000       0.00000000       1.64969697       0.00000000       0.00000000      48.78525543
2
Properties=species:S:1:pos:R:3:forces:R:3 energy=9.258666480128662 pbc="F F F"
Pb       0.00000000       0.00000000       0.00000000       0.00000000       0.00000000     -45.20055008
Pb       0.00000000       0.00000000       1.70848485       0.00000000       0.00000000      45.20055008
2
Properties=species:S:1:pos:R:3:forces:R:3 energy=6.798939335933065 pbc="F F F"
Pb       0.00000000       0.00000000       0.00000000       0.00000000       0.00000000     -38.20214462
Pb       0.00000000       0.00000000       1.76727273       0.00000000       0.00000000      38.20214462
2
Properties=species:S:1:pos:R:3:forces:R:3 energy=4.768564750655928 pbc="F F F"
Pb       0.00000000       0.00000000       0.00000000       0.00000000       0.00000000     -31.04007912
Pb       0.00000000       0.00000000       1.82606061       0.00000000       0.00000000      31.04007912
2
Properties=species:S:1:pos:R:3:forces:R:3 energy=3.1220183108629675 pbc="F F F"
Pb       0.00000000       0.00000000       0.00000000       0.00000000       0.00000000     -25.22127724
Pb       0.00000000       0.00000000       1.88484848       0.00000000       0.00000000      25.22127724
2
Properties=species:S:1:pos:R:3:forces:R:3 energy=1.7778746907019407 pbc="F F F"
Pb       0.00000000       0.00000000       0.00000000       0.00000000       0.00000000     -20.68338013
Pb       0.00000000       0.00000000       1.94363636       0.00000000       0.00000000      20.68338013
2
Properties=species:S:1:pos:R:3:forces:R:3 energy=0.673684662994812 pbc="F F F"
Pb       0.00000000       0.00000000       0.00000000       0.00000000       0.00000000     -16.99296188
Pb       0.00000000       0.00000000       2.00242424       0.00000000       0.00000000      16.99296188
2
Properties=species:S:1:pos:R:3:forces:R:3 energy=-0.23110341969629422 pbc="F F F"
Pb       0.00000000       0.00000000       0.00000000       0.00000000       0.00000000     -13.87165356
Pb       0.00000000       0.00000000       2.06121212       0.00000000       0.00000000      13.87165356
2
Properties=species:S:1:pos:R:3:forces:R:3 energy=-0.9665642199646383 pbc="F F F"
Pb       0.00000000       0.00000000       0.00000000       0.00000000       0.00000000     -11.22588634
Pb       0.00000000       0.00000000       2.12000000       0.00000000       0.00000000      11.22588634
2
Properties=species:S:1:pos:R:3:forces:R:3 energy=-1.5598109905611715 pbc="F F F"
Pb       0.00000000       0.00000000       0.00000000       0.00000000       0.00000000      -9.02911091
Pb       0.00000000       0.00000000       2.17878788       0.00000000       0.00000000       9.02911091
2
Properties=species:S:1:pos:R:3:forces:R:3 energy=-2.036192445165092 pbc="F F F"
Pb       0.00000000       0.00000000       0.00000000       0.00000000       0.00000000      -7.24063158
Pb       0.00000000       0.00000000       2.23757576       0.00000000       0.00000000       7.24063158
2
Properties=species:S:1:pos:R:3:forces:R:3 energy=-2.417781143410654 pbc="F F F"
Pb       0.00000000       0.00000000       0.00000000       0.00000000       0.00000000      -5.79117727
Pb       0.00000000       0.00000000       2.29636364       0.00000000       0.00000000       5.79117727
2
Properties=species:S:1:pos:R:3:forces:R:3 energy=-2.7222104292054627 pbc="F F F"
Pb       0.00000000       0.00000000       0.00000000       0.00000000       0.00000000      -4.60339403
Pb       0.00000000       0.00000000       2.35515152       0.00000000       0.00000000       4.60339403
2
Properties=species:S:1:pos:R:3:forces:R:3 energy=-2.9628847095815973 pbc="F F F"
Pb       0.00000000       0.00000000       0.00000000       0.00000000       0.00000000      -3.61305666
Pb       0.00000000       0.00000000       2.41393939       0.00000000       0.00000000       3.61305666
2
Properties=species:S:1:pos:R:3:forces:R:3 energy=-3.1500168551149716 pbc="F F F"
Pb       0.00000000       0.00000000       0.00000000       0.00000000       0.00000000      -2.77619672
Pb       0.00000000       0.00000000       2.47272727       0.00000000       0.00000000       2.77619672
2
Properties=species:S:1:pos:R:3:forces:R:3 energy=-3.2917481585293724 pbc="F F F"
Pb       0.00000000       0.00000000       0.00000000       0.00000000       0.00000000      -2.06472778
Pb       0.00000000       0.00000000       2.53151515       0.00000000       0.00000000       2.06472778
2
Properties=species:S:1:pos:R:3:forces:R:3 energy=-3.3948576964935553 pbc="F F F"
Pb       0.00000000       0.00000000       0.00000000       0.00000000       0.00000000      -1.45944417
Pb       0.00000000       0.00000000       2.59030303       0.00000000       0.00000000       1.45944417
2
Properties=species:S:1:pos:R:3:forces:R:3 energy=-3.4651217024476777 pbc="F F F"
Pb       0.00000000       0.00000000       0.00000000       0.00000000       0.00000000      -0.94488353
Pb       0.00000000       0.00000000       2.64909091       0.00000000       0.00000000       0.94488353
2
Properties=species:S:1:pos:R:3:forces:R:3 energy=-3.5074520497838955 pbc="F F F"
Pb       0.00000000       0.00000000       0.00000000       0.00000000       0.00000000      -0.50681901
Pb       0.00000000       0.00000000       2.70787879       0.00000000       0.00000000       0.50681901
2
Properties=species:S:1:pos:R:3:forces:R:3 energy=-3.5259466943829034 pbc="F F F"
Pb       0.00000000       0.00000000       0.00000000       0.00000000       0.00000000      -0.13192554
Pb       0.00000000       0.00000000       2.76666667       0.00000000       0.00000000       0.13192554
2
Properties=species:S:1:pos:R:3:forces:R:3 energy=-3.523980480414351 pbc="F F F"
Pb       0.00000000       0.00000000       0.00000000       0.00000000       0.00000000       0.19090240
Pb       0.00000000       0.00000000       2.82545455       0.00000000       0.00000000      -0.19090240
2
Properties=species:S:1:pos:R:3:forces:R:3 energy=-3.5043730978903067 pbc="F F F"
Pb       0.00000000       0.00000000       0.00000000       0.00000000       0.00000000       0.46913916
Pb       0.00000000       0.00000000       2.88424242       0.00000000       0.00000000      -0.46913916
2
Properties=species:S:1:pos:R:3:forces:R:3 energy=-3.4696166543669618 pbc="F F F"
Pb       0.00000000       0.00000000       0.00000000       0.00000000       0.00000000       0.70674878
Pb       0.00000000       0.00000000       2.94303030       0.00000000       0.00000000      -0.70674878
2
Properties=species:S:1:pos:R:3:forces:R:3 energy=-3.42202631580892 pbc="F F F"
Pb       0.00000000       0.00000000       0.00000000       0.00000000       0.00000000       0.90612870
Pb       0.00000000       0.00000000       3.00181818       0.00000000       0.00000000      -0.90612870
2
Properties=species:S:1:pos:R:3:forces:R:3 energy=-3.3637663027260203 pbc="F F F"
Pb       0.00000000       0.00000000       0.00000000       0.00000000       0.00000000       1.07040215
Pb       0.00000000       0.00000000       3.06060606       0.00000000       0.00000000      -1.07040215
2
Properties=species:S:1:pos:R:3:forces:R:3 energy=-3.296766875838596 pbc="F F F"
Pb       0.00000000       0.00000000       0.00000000       0.00000000       0.00000000       1.20440340
Pb       0.00000000       0.00000000       3.11939394       0.00000000       0.00000000      -1.20440340
2
Properties=species:S:1:pos:R:3:forces:R:3 energy=-3.2226414132898844 pbc="F F F"
Pb       0.00000000       0.00000000       0.00000000       0.00000000       0.00000000       1.31364739
Pb       0.00000000       0.00000000       3.17818182       0.00000000       0.00000000      -1.31364739
2
Properties=species:S:1:pos:R:3:forces:R:3 energy=-3.1427160784485637 pbc="F F F"
Pb       0.00000000       0.00000000       0.00000000       0.00000000       0.00000000       1.40225518
Pb       0.00000000       0.00000000       3.23696970       0.00000000       0.00000000      -1.40225518
2
Properties=species:S:1:pos:R:3:forces:R:3 energy=-3.058149367995426 pbc="F F F"
Pb       0.00000000       0.00000000       0.00000000       0.00000000       0.00000000       1.47142339
Pb       0.00000000       0.00000000       3.29575758       0.00000000       0.00000000      -1.47142339
2
Properties=species:S:1:pos:R:3:forces:R:3 energy=-2.9701214307048183 pbc="F F F"
Pb       0.00000000       0.00000000       0.00000000       0.00000000       0.00000000       1.51967072
Pb       0.00000000       0.00000000       3.35454545       0.00000000       0.00000000      -1.51967072
2
Properties=species:S:1:pos:R:3:forces:R:3 energy=-2.879928185533911 pbc="F F F"
Pb       0.00000000       0.00000000       0.00000000       0.00000000       0.00000000       1.54478586
Pb       0.00000000       0.00000000       3.41333333       0.00000000       0.00000000      -1.54478586
2
Properties=species:S:1:pos:R:3:forces:R:3 energy=-2.7889638849343337 pbc="F F F"
Pb       0.00000000       0.00000000       0.00000000       0.00000000       0.00000000       1.54591000
Pb       0.00000000       0.00000000       3.47212121       0.00000000       0.00000000      -1.54591000
2
Properties=species:S:1:pos:R:3:forces:R:3 energy=-2.698616261042825 pbc="F F F"
Pb       0.00000000       0.00000000       0.00000000       0.00000000       0.00000000       1.52416670
Pb       0.00000000       0.00000000       3.53090909       0.00000000       0.00000000      -1.52416670
2
Properties=species:S:1:pos:R:3:forces:R:3 energy=-2.6101518154761916 pbc="F F F"
Pb       0.00000000       0.00000000       0.00000000       0.00000000       0.00000000       1.48241138
Pb       0.00000000       0.00000000       3.58969697       0.00000000       0.00000000      -1.48241138
2
Properties=species:S:1:pos:R:3:forces:R:3 energy=-2.5246241751874536 pbc="F F F"
Pb       0.00000000       0.00000000       0.00000000       0.00000000       0.00000000       1.42520654
Pb       0.00000000       0.00000000       3.64848485       0.00000000       0.00000000      -1.42520654
2
Properties=species:S:1:pos:R:3:forces:R:3 energy=-2.4427730803601717 pbc="F F F"
Pb       0.00000000       0.00000000       0.00000000       0.00000000       0.00000000       1.35830915
Pb       0.00000000       0.00000000       3.70727273       0.00000000       0.00000000      -1.35830915
2
Properties=species:S:1:pos:R:3:forces:R:3 energy=-2.3649965695531856 pbc="F F F"
Pb       0.00000000       0.00000000       0.00000000       0.00000000       0.00000000       1.28741491
Pb       0.00000000       0.00000000       3.76606061       0.00000000       0.00000000      -1.28741491
2
Properties=species:S:1:pos:R:3:forces:R:3 energy=-2.2913942124629703 pbc="F F F"
Pb       0.00000000       0.00000000       0.00000000       0.00000000       0.00000000       1.21697426
Pb       0.00000000       0.00000000       3.82484848       0.00000000       0.00000000      -1.21697426
2
Properties=species:S:1:pos:R:3:forces:R:3 energy=-2.221846941556215 pbc="F F F"
Pb       0.00000000       0.00000000       0.00000000       0.00000000       0.00000000       1.14967406
Pb       0.00000000       0.00000000       3.88363636       0.00000000       0.00000000      -1.14967406
2
Properties=species:S:1:pos:R:3:forces:R:3 energy=-2.1561363597217125 pbc="F F F"
Pb       0.00000000       0.00000000       0.00000000       0.00000000       0.00000000       1.08659124
Pb       0.00000000       0.00000000       3.94242424       0.00000000       0.00000000      -1.08659124
2
Properties=species:S:1:pos:R:3:forces:R:3 energy=-2.0940100603056844 pbc="F F F"
Pb       0.00000000       0.00000000       0.00000000       0.00000000       0.00000000       1.02764738
Pb       0.00000000       0.00000000       4.00121212       0.00000000       0.00000000      -1.02764738
2
Properties=species:S:1:pos:R:3:forces:R:3 energy=-2.035243032583528 pbc="F F F"
Pb       0.00000000       0.00000000       0.00000000       0.00000000       0.00000000       0.97211736
Pb       0.00000000       0.00000000       4.06000000       0.00000000       0.00000000      -0.97211736
2
Properties=species:S:1:pos:R:3:forces:R:3 energy=-1.979664161580353 pbc="F F F"
Pb       0.00000000       0.00000000       0.00000000       0.00000000       0.00000000       0.91906905
Pb       0.00000000       0.00000000       4.11878788       0.00000000       0.00000000      -0.91906905
2
Properties=species:S:1:pos:R:3:forces:R:3 energy=-1.9271507993047459 pbc="F F F"
Pb       0.00000000       0.00000000       0.00000000       0.00000000       0.00000000       0.86765558
Pb       0.00000000       0.00000000       4.17757576       0.00000000       0.00000000      -0.86765558
2
Properties=species:S:1:pos:R:3:forces:R:3 energy=-1.8776272695530472 pbc="F F F"
Pb       0.00000000       0.00000000       0.00000000       0.00000000       0.00000000       0.81730187
Pb       0.00000000       0.00000000       4.23636364       0.00000000       0.00000000      -0.81730187
2
Properties=species:S:1:pos:R:3:forces:R:3 energy=-1.8310382477279032 pbc="F F F"
Pb       0.00000000       0.00000000       0.00000000       0.00000000       0.00000000       0.76780534
Pb       0.00000000       0.00000000       4.29515152       0.00000000       0.00000000      -0.76780534
2
Properties=species:S:1:pos:R:3:forces:R:3 energy=-1.7873320718737624 pbc="F F F"
Pb       0.00000000       0.00000000       0.00000000       0.00000000       0.00000000       0.71936518
Pb       0.00000000       0.00000000       4.35393939       0.00000000       0.00000000      -0.71936518
2
Properties=species:S:1:pos:R:3:forces:R:3 energy=-1.7464287514057188 pbc="F F F"
Pb       0.00000000       0.00000000       0.00000000       0.00000000       0.00000000       0.67249483
Pb       0.00000000       0.00000000       4.41272727       0.00000000       0.00000000      -0.67249483
2
Properties=species:S:1:pos:R:3:forces:R:3 energy=-1.7082179523909593 pbc="F F F"
Pb       0.00000000       0.00000000       0.00000000       0.00000000       0.00000000       0.62787509
Pb       0.00000000       0.00000000       4.47151515       0.00000000       0.00000000      -0.62787509
2
Properties=species:S:1:pos:R:3:forces:R:3 energy=-1.6725490968420864 pbc="F F F"
Pb       0.00000000       0.00000000       0.00000000       0.00000000       0.00000000       0.58610034
Pb       0.00000000       0.00000000       4.53030303       0.00000000       0.00000000      -0.58610034
2
Properties=species:S:1:pos:R:3:forces:R:3 energy=-1.6392461700116008 pbc="F F F"
Pb       0.00000000       0.00000000       0.00000000       0.00000000       0.00000000       0.54741520
Pb       0.00000000       0.00000000       4.58909091       0.00000000       0.00000000      -0.54741520
2
Properties=species:S:1:pos:R:3:forces:R:3 energy=-1.6081313503417611 pbc="F F F"
Pb       0.00000000       0.00000000       0.00000000       0.00000000       0.00000000       0.51156509
Pb       0.00000000       0.00000000       4.64787879       0.00000000       0.00000000      -0.51156509
2
Properties=species:S:1:pos:R:3:forces:R:3 energy=-1.5790573128461478 pbc="F F F"
Pb       0.00000000       0.00000000       0.00000000       0.00000000       0.00000000       0.47778779
Pb       0.00000000       0.00000000       4.70666667       0.00000000       0.00000000      -0.47778779
2
Properties=species:S:1:pos:R:3:forces:R:3 energy=-1.5519342444369633 pbc="F F F"
Pb       0.00000000       0.00000000       0.00000000       0.00000000       0.00000000       0.44507748
Pb       0.00000000       0.00000000       4.76545455       0.00000000       0.00000000      -0.44507748
2
Properties=species:S:1:pos:R:3:forces:R:3 energy=-1.526722094153259 pbc="F F F"
Pb       0.00000000       0.00000000       0.00000000       0.00000000       0.00000000       0.41258860
Pb       0.00000000       0.00000000       4.82424242       0.00000000       0.00000000      -0.41258860
2
Properties=species:S:1:pos:R:3:forces:R:3 energy=-1.5034250578553954 pbc="F F F"
Pb       0.00000000       0.00000000       0.00000000       0.00000000       0.00000000       0.38010311
Pb       0.00000000       0.00000000       4.88303030       0.00000000       0.00000000      -0.38010311
2
Properties=species:S:1:pos:R:3:forces:R:3 energy=-1.4820193805771302 pbc="F F F"
Pb       0.00000000       0.00000000       0.00000000       0.00000000       0.00000000       0.34829640
Pb       0.00000000       0.00000000       4.94181818       0.00000000       0.00000000      -0.34829640
2
Properties=species:S:1:pos:R:3:forces:R:3 energy=-1.4624296243735337 pbc="F F F"
Pb       0.00000000       0.00000000       0.00000000       0.00000000       0.00000000       0.31870452
Pb       0.00000000       0.00000000       5.00060606       0.00000000       0.00000000      -0.31870452
2
Properties=species:S:1:pos:R:3:forces:R:3 energy=-1.4444666288052666 pbc="F F F"
Pb       0.00000000       0.00000000       0.00000000       0.00000000       0.00000000       0.29318818
Pb       0.00000000       0.00000000       5.05939394       0.00000000       0.00000000      -0.29318818
2
Properties=species:S:1:pos:R:3:forces:R:3 energy=-1.4278518157944078 pbc="F F F"
Pb       0.00000000       0.00000000       0.00000000       0.00000000       0.00000000       0.27302244
Pb       0.00000000       0.00000000       5.11818182       0.00000000       0.00000000      -0.27302244
2
Properties=species:S:1:pos:R:3:forces:R:3 energy=-1.4122695731877215 pbc="F F F"
Pb       0.00000000       0.00000000       0.00000000       0.00000000       0.00000000       0.25772592
Pb       0.00000000       0.00000000       5.17696970       0.00000000       0.00000000      -0.25772592
2
Properties=species:S:1:pos:R:3:forces:R:3 energy=-1.397514511907345 pbc="F F F"
Pb       0.00000000       0.00000000       0.00000000       0.00000000       0.00000000       0.24415299
Pb       0.00000000       0.00000000       5.23575758       0.00000000       0.00000000      -0.24415299
2
Properties=species:S:1:pos:R:3:forces:R:3 energy=-1.3836272631705666 pbc="F F F"
Pb       0.00000000       0.00000000       0.00000000       0.00000000       0.00000000       0.22742935
Pb       0.00000000       0.00000000       5.29454545       0.00000000       0.00000000      -0.22742935
2
Properties=species:S:1:pos:R:3:forces:R:3 energy=-1.3708626127636026 pbc="F F F"
Pb       0.00000000       0.00000000       0.00000000       0.00000000       0.00000000       0.20662533
Pb       0.00000000       0.00000000       5.35333333       0.00000000       0.00000000      -0.20662533
2
Properties=species:S:1:pos:R:3:forces:R:3 energy=-1.3592127850925528 pbc="F F F"
Pb       0.00000000       0.00000000       0.00000000       0.00000000       0.00000000       0.19211756
Pb       0.00000000       0.00000000       5.41212121       0.00000000       0.00000000      -0.19211756
2
Properties=species:S:1:pos:R:3:forces:R:3 energy=-1.347935135978202 pbc="F F F"
Pb       0.00000000       0.00000000       0.00000000       0.00000000       0.00000000       0.19370350
Pb       0.00000000       0.00000000       5.47090909       0.00000000       0.00000000      -0.19370350
2
Properties=species:S:1:pos:R:3:forces:R:3 energy=-1.336443362888611 pbc="F F F"
Pb       0.00000000       0.00000000       0.00000000       0.00000000       0.00000000       0.19486152
Pb       0.00000000       0.00000000       5.52969697       0.00000000       0.00000000      -0.19486152
2
Properties=species:S:1:pos:R:3:forces:R:3 energy=-1.3254047104079656 pbc="F F F"
Pb       0.00000000       0.00000000       0.00000000       0.00000000       0.00000000       0.17799385
Pb       0.00000000       0.00000000       5.58848485       0.00000000       0.00000000      -0.17799385
2
Properties=species:S:1:pos:R:3:forces:R:3 energy=-1.3156029282741735 pbc="F F F"
Pb       0.00000000       0.00000000       0.00000000       0.00000000       0.00000000       0.15736081
Pb       0.00000000       0.00000000       5.64727273       0.00000000       0.00000000      -0.15736081
2
Properties=species:S:1:pos:R:3:forces:R:3 energy=-1.3064770197466633 pbc="F F F"
Pb       0.00000000       0.00000000       0.00000000       0.00000000       0.00000000       0.15739068
Pb       0.00000000       0.00000000       5.70606061       0.00000000       0.00000000      -0.15739068
2
Properties=species:S:1:pos:R:3:forces:R:3 energy=-1.2967949281476785 pbc="F F F"
Pb       0.00000000       0.00000000       0.00000000       0.00000000       0.00000000       0.17008795
Pb       0.00000000       0.00000000       5.76484848       0.00000000       0.00000000      -0.17008795
2
Properties=species:S:1:pos:R:3:forces:R:3 energy=-1.2871048358993993 pbc="F F F"
Pb       0.00000000       0.00000000       0.00000000       0.00000000       0.00000000       0.15192674
Pb       0.00000000       0.00000000       5.82363636       0.00000000       0.00000000      -0.15192674
2
Properties=species:S:1:pos:R:3:forces:R:3 energy=-1.279783445870122 pbc="F F F"
Pb       0.00000000       0.00000000       0.00000000       0.00000000       0.00000000       0.09398884
Pb       0.00000000       0.00000000       5.88242424       0.00000000       0.00000000      -0.09398884
2
Properties=species:S:1:pos:R:3:forces:R:3 energy=-1.2760700015652109 pbc="F F F"
Pb       0.00000000       0.00000000       0.00000000       0.00000000       0.00000000       0.03533093
Pb       0.00000000       0.00000000       5.94121212       0.00000000       0.00000000      -0.03533093
2
Properties=species:S:1:pos:R:3:forces:R:3 energy=-1.2749172097781853 pbc="F F F"
Pb       0.00000000       0.00000000       0.00000000       0.00000000       0.00000000       0.01160836
Pb       0.00000000       0.00000000       6.00000000       0.00000000       0.00000000      -0.01160836
