2
Properties=species:S:1:pos:R:3:forces:R:3 energy=18672.43807967862 pbc="F F F"
Pu       0.00000000       0.00000000       0.00000000       0.00000000       0.00000000 -368344.59375000
Pu       0.00000000       0.00000000       0.18000000       0.00000000       0.00000000  368344.59375000
2
Properties=species:S:1:pos:R:3:forces:R:3 energy=5947.555755459872 pbc="F F F"
Pu       0.00000000       0.00000000       0.00000000       0.00000000       0.00000000 -118373.52343750
Pu       0.00000000       0.00000000       0.23878788       0.00000000       0.00000000  118373.52343750
2
Properties=species:S:1:pos:R:3:forces:R:3 energy=1546.2000425692463 pbc="F F F"
Pu       0.00000000       0.00000000       0.00000000       0.00000000       0.00000000  -44662.36718750
Pu       0.00000000       0.00000000       0.29757576       0.00000000       0.00000000   44662.36718750
2
Properties=species:S:1:pos:R:3:forces:R:3 energy=-191.75012222567548 pbc="F F F"
Pu       0.00000000       0.00000000       0.00000000       0.00000000       0.00000000  -18613.54882812
Pu       0.00000000       0.00000000       0.35636364       0.00000000       0.00000000   18613.54882812
2
Properties=species:S:1:pos:R:3:forces:R:3 energy=-939.0692445401286 pbc="F F F"
Pu       0.00000000       0.00000000       0.00000000       0.00000000       0.00000000   -8298.37304688
Pu       0.00000000       0.00000000       0.41515152       0.00000000       0.00000000    8298.37304688
2
Properties=species:S:1:pos:R:3:forces:R:3 energy=-1278.4429017603554 pbc="F F F"
Pu       0.00000000       0.00000000       0.00000000       0.00000000       0.00000000   -3827.82080078
Pu       0.00000000       0.00000000       0.47393939       0.00000000       0.00000000    3827.82080078
2
Properties=species:S:1:pos:R:3:forces:R:3 energy=-1433.5154115196449 pbc="F F F"
Pu       0.00000000       0.00000000       0.00000000       0.00000000       0.00000000   -1684.43334961
Pu       0.00000000       0.00000000       0.53272727       0.00000000       0.00000000    1684.43334961
2
Properties=species:S:1:pos:R:3:forces:R:3 energy=-1494.4902650225986 pbc="F F F"
Pu       0.00000000       0.00000000       0.00000000       0.00000000       0.00000000    -482.71643066
Pu       0.00000000       0.00000000       0.59151515       0.00000000       0.00000000     482.71643066
2
Properties=species:S:1:pos:R:3:forces:R:3 energy=-1496.681793323904 pbc="F F F"
Pu       0.00000000       0.00000000       0.00000000       0.00000000       0.00000000     382.79589844
Pu       0.00000000       0.00000000       0.65030303       0.00000000       0.00000000    -382.79589844
2
Properties=species:S:1:pos:R:3:forces:R:3 energy=-1450.1330872375383 pbc="F F F"
Pu       0.00000000       0.00000000       0.00000000       0.00000000       0.00000000    1210.73144531
Pu       0.00000000       0.00000000       0.70909091       0.00000000       0.00000000   -1210.73144531
2
Properties=species:S:1:pos:R:3:forces:R:3 energy=-1351.9977112102906 pbc="F F F"
Pu       0.00000000       0.00000000       0.00000000       0.00000000       0.00000000    2152.03271484
Pu       0.00000000       0.00000000       0.76787879       0.00000000       0.00000000   -2152.03271484
2
Properties=species:S:1:pos:R:3:forces:R:3 energy=-1163.634063679661 pbc="F F F"
Pu       0.00000000       0.00000000       0.00000000       0.00000000       0.00000000    4319.32714844
Pu       0.00000000       0.00000000       0.82666667       0.00000000       0.00000000   -4319.32714844
2
Properties=species:S:1:pos:R:3:forces:R:3 energy=-892.039642191572 pbc="F F F"
Pu       0.00000000       0.00000000       0.00000000       0.00000000       0.00000000    4849.03369141
Pu       0.00000000       0.00000000       0.88545455       0.00000000       0.00000000   -4849.03369141
2
Properties=species:S:1:pos:R:3:forces:R:3 energy=-521.698516557571 pbc="F F F"
Pu       0.00000000       0.00000000       0.00000000       0.00000000       0.00000000    5720.24804688
Pu       0.00000000       0.00000000       0.94424242       0.00000000       0.00000000   -5720.24804688
2
Properties=species:S:1:pos:R:3:forces:R:3 energy=-66.28571271126368 pbc="F F F"
Pu       0.00000000       0.00000000       0.00000000       0.00000000       0.00000000    9247.01757812
Pu       0.00000000       0.00000000       1.00303030       0.00000000       0.00000000   -9247.01757812
2
Properties=species:S:1:pos:R:3:forces:R:3 energy=370.1228340025873 pbc="F F F"
Pu       0.00000000       0.00000000       0.00000000       0.00000000       0.00000000    5133.54736328
Pu       0.00000000       0.00000000       1.06181818       0.00000000       0.00000000   -5133.54736328
2
Properties=species:S:1:pos:R:3:forces:R:3 energy=487.36700549996146 pbc="F F F"
Pu       0.00000000       0.00000000       0.00000000       0.00000000       0.00000000    -681.35906982
Pu       0.00000000       0.00000000       1.12060606       0.00000000       0.00000000     681.35906982
2
Properties=species:S:1:pos:R:3:forces:R:3 energy=363.5572525508304 pbc="F F F"
Pu       0.00000000       0.00000000       0.00000000       0.00000000       0.00000000   -2936.55151367
Pu       0.00000000       0.00000000       1.17939394       0.00000000       0.00000000    2936.55151367
2
Properties=species:S:1:pos:R:3:forces:R:3 energy=188.1780112030216 pbc="F F F"
Pu       0.00000000       0.00000000       0.00000000       0.00000000       0.00000000   -2950.89355469
Pu       0.00000000       0.00000000       1.23818182       0.00000000       0.00000000    2950.89355469
2
Properties=species:S:1:pos:R:3:forces:R:3 energy=34.466258124419724 pbc="F F F"
Pu       0.00000000       0.00000000       0.00000000       0.00000000       0.00000000   -1379.89257812
Pu       0.00000000       0.00000000       1.29696970       0.00000000       0.00000000    1379.89257812
2
Properties=species:S:1:pos:R:3:forces:R:3 energy=30.909490682750548 pbc="F F F"
Pu       0.00000000       0.00000000       0.00000000       0.00000000       0.00000000     -22.37822342
Pu       0.00000000       0.00000000       1.35575758       0.00000000       0.00000000      22.37822342
2
Properties=species:S:1:pos:R:3:forces:R:3 energy=30.026976945580973 pbc="F F F"
Pu       0.00000000       0.00000000       0.00000000       0.00000000       0.00000000     -21.18133354
Pu       0.00000000       0.00000000       1.41454545       0.00000000       0.00000000      21.18133354
2
Properties=species:S:1:pos:R:3:forces:R:3 energy=23.908444365329547 pbc="F F F"
Pu       0.00000000       0.00000000       0.00000000       0.00000000       0.00000000    -169.71482849
Pu       0.00000000       0.00000000       1.47333333       0.00000000       0.00000000     169.71482849
2
Properties=species:S:1:pos:R:3:forces:R:3 energy=15.003466522198424 pbc="F F F"
Pu       0.00000000       0.00000000       0.00000000       0.00000000       0.00000000    -138.21870422
Pu       0.00000000       0.00000000       1.53212121       0.00000000       0.00000000     138.21870422
2
Properties=species:S:1:pos:R:3:forces:R:3 energy=5.958524027175488 pbc="F F F"
Pu       0.00000000       0.00000000       0.00000000       0.00000000       0.00000000    -204.50712585
Pu       0.00000000       0.00000000       1.59090909       0.00000000       0.00000000     204.50712585
2
Properties=species:S:1:pos:R:3:forces:R:3 energy=-5.522990042221685 pbc="F F F"
Pu       0.00000000       0.00000000       0.00000000       0.00000000       0.00000000    -177.20817566
Pu       0.00000000       0.00000000       1.64969697       0.00000000       0.00000000     177.20817566
2
Properties=species:S:1:pos:R:3:forces:R:3 energy=-14.406214064336066 pbc="F F F"
Pu       0.00000000       0.00000000       0.00000000       0.00000000       0.00000000    -115.99575043
Pu       0.00000000       0.00000000       1.70848485       0.00000000       0.00000000     115.99575043
2
Properties=species:S:1:pos:R:3:forces:R:3 energy=-19.425907262211215 pbc="F F F"
Pu       0.00000000       0.00000000       0.00000000       0.00000000       0.00000000     -57.08963013
Pu       0.00000000       0.00000000       1.76727273       0.00000000       0.00000000      57.08963013
2
Properties=species:S:1:pos:R:3:forces:R:3 energy=-21.716893320938834 pbc="F F F"
Pu       0.00000000       0.00000000       0.00000000       0.00000000       0.00000000     -27.18030930
Pu       0.00000000       0.00000000       1.82606061       0.00000000       0.00000000      27.18030930
2
Properties=species:S:1:pos:R:3:forces:R:3 energy=-22.85068435510301 pbc="F F F"
Pu       0.00000000       0.00000000       0.00000000       0.00000000       0.00000000      -8.97030830
Pu       0.00000000       0.00000000       1.88484848       0.00000000       0.00000000       8.97030830
2
Properties=species:S:1:pos:R:3:forces:R:3 energy=-22.60154742197484 pbc="F F F"
Pu       0.00000000       0.00000000       0.00000000       0.00000000       0.00000000      14.05803490
Pu       0.00000000       0.00000000       1.94363636       0.00000000       0.00000000     -14.05803490
2
Properties=species:S:1:pos:R:3:forces:R:3 energy=-21.897287316398273 pbc="F F F"
Pu       0.00000000       0.00000000       0.00000000       0.00000000       0.00000000       5.89433622
Pu       0.00000000       0.00000000       2.00242424       0.00000000       0.00000000      -5.89433622
2
Properties=species:S:1:pos:R:3:forces:R:3 energy=-21.933458638601156 pbc="F F F"
Pu       0.00000000       0.00000000       0.00000000       0.00000000       0.00000000      -5.30489540
Pu       0.00000000       0.00000000       2.06121212       0.00000000       0.00000000       5.30489540
2
Properties=species:S:1:pos:R:3:forces:R:3 energy=-22.30599888938212 pbc="F F F"
Pu       0.00000000       0.00000000       0.00000000       0.00000000       0.00000000      -5.99457932
Pu       0.00000000       0.00000000       2.12000000       0.00000000       0.00000000       5.99457932
2
Properties=species:S:1:pos:R:3:forces:R:3 energy=-22.58077249868092 pbc="F F F"
Pu       0.00000000       0.00000000       0.00000000       0.00000000       0.00000000      -3.82049918
Pu       0.00000000       0.00000000       2.17878788       0.00000000       0.00000000       3.82049918
2
Properties=species:S:1:pos:R:3:forces:R:3 energy=-22.853268765710062 pbc="F F F"
Pu       0.00000000       0.00000000       0.00000000       0.00000000       0.00000000      -5.90774155
Pu       0.00000000       0.00000000       2.23757576       0.00000000       0.00000000       5.90774155
2
Properties=species:S:1:pos:R:3:forces:R:3 energy=-23.23493197366682 pbc="F F F"
Pu       0.00000000       0.00000000       0.00000000       0.00000000       0.00000000      -6.31546736
Pu       0.00000000       0.00000000       2.29636364       0.00000000       0.00000000       6.31546736
2
Properties=species:S:1:pos:R:3:forces:R:3 energy=-23.529997498561844 pbc="F F F"
Pu       0.00000000       0.00000000       0.00000000       0.00000000       0.00000000      -3.51872778
Pu       0.00000000       0.00000000       2.35515152       0.00000000       0.00000000       3.51872778
2
Properties=species:S:1:pos:R:3:forces:R:3 energy=-23.6528405442006 pbc="F F F"
Pu       0.00000000       0.00000000       0.00000000       0.00000000       0.00000000      -0.79849565
Pu       0.00000000       0.00000000       2.41393939       0.00000000       0.00000000       0.79849565
2
Properties=species:S:1:pos:R:3:forces:R:3 energy=-23.640221668866484 pbc="F F F"
Pu       0.00000000       0.00000000       0.00000000       0.00000000       0.00000000       1.11134720
Pu       0.00000000       0.00000000       2.47272727       0.00000000       0.00000000      -1.11134720
2
Properties=species:S:1:pos:R:3:forces:R:3 energy=-23.529292424641323 pbc="F F F"
Pu       0.00000000       0.00000000       0.00000000       0.00000000       0.00000000       2.66398525
Pu       0.00000000       0.00000000       2.53151515       0.00000000       0.00000000      -2.66398525
2
Properties=species:S:1:pos:R:3:forces:R:3 energy=-23.32744098014744 pbc="F F F"
Pu       0.00000000       0.00000000       0.00000000       0.00000000       0.00000000       4.11720371
Pu       0.00000000       0.00000000       2.59030303       0.00000000       0.00000000      -4.11720371
2
Properties=species:S:1:pos:R:3:forces:R:3 energy=-23.070525007853046 pbc="F F F"
Pu       0.00000000       0.00000000       0.00000000       0.00000000       0.00000000       4.32675838
Pu       0.00000000       0.00000000       2.64909091       0.00000000       0.00000000      -4.32675838
2
Properties=species:S:1:pos:R:3:forces:R:3 energy=-22.84813138626615 pbc="F F F"
Pu       0.00000000       0.00000000       0.00000000       0.00000000       0.00000000       3.09875751
Pu       0.00000000       0.00000000       2.70787879       0.00000000       0.00000000      -3.09875751
2
Properties=species:S:1:pos:R:3:forces:R:3 energy=-22.708201588730162 pbc="F F F"
Pu       0.00000000       0.00000000       0.00000000       0.00000000       0.00000000       1.73646677
Pu       0.00000000       0.00000000       2.76666667       0.00000000       0.00000000      -1.73646677
2
Properties=species:S:1:pos:R:3:forces:R:3 energy=-22.631263840554027 pbc="F F F"
Pu       0.00000000       0.00000000       0.00000000       0.00000000       0.00000000       0.99160153
Pu       0.00000000       0.00000000       2.82545455       0.00000000       0.00000000      -0.99160153
2
Properties=species:S:1:pos:R:3:forces:R:3 energy=-22.58126319314405 pbc="F F F"
Pu       0.00000000       0.00000000       0.00000000       0.00000000       0.00000000       0.76985359
Pu       0.00000000       0.00000000       2.88424242       0.00000000       0.00000000      -0.76985359
2
Properties=species:S:1:pos:R:3:forces:R:3 energy=-22.536610320738014 pbc="F F F"
Pu       0.00000000       0.00000000       0.00000000       0.00000000       0.00000000       0.76442915
Pu       0.00000000       0.00000000       2.94303030       0.00000000       0.00000000      -0.76442915
2
Properties=species:S:1:pos:R:3:forces:R:3 energy=-22.490917433539906 pbc="F F F"
Pu       0.00000000       0.00000000       0.00000000       0.00000000       0.00000000       0.78781748
Pu       0.00000000       0.00000000       3.00181818       0.00000000       0.00000000      -0.78781748
2
Properties=species:S:1:pos:R:3:forces:R:3 energy=-22.444371478918164 pbc="F F F"
Pu       0.00000000       0.00000000       0.00000000       0.00000000       0.00000000       0.79319280
Pu       0.00000000       0.00000000       3.06060606       0.00000000       0.00000000      -0.79319280
2
Properties=species:S:1:pos:R:3:forces:R:3 energy=-22.39774395098586 pbc="F F F"
Pu       0.00000000       0.00000000       0.00000000       0.00000000       0.00000000       0.79433960
Pu       0.00000000       0.00000000       3.11939394       0.00000000       0.00000000      -0.79433960
2
Properties=species:S:1:pos:R:3:forces:R:3 energy=-22.350631972397053 pbc="F F F"
Pu       0.00000000       0.00000000       0.00000000       0.00000000       0.00000000       0.81282288
Pu       0.00000000       0.00000000       3.17818182       0.00000000       0.00000000      -0.81282288
2
Properties=species:S:1:pos:R:3:forces:R:3 energy=-22.30152223090843 pbc="F F F"
Pu       0.00000000       0.00000000       0.00000000       0.00000000       0.00000000       0.86421889
Pu       0.00000000       0.00000000       3.23696970       0.00000000       0.00000000      -0.86421889
2
Properties=species:S:1:pos:R:3:forces:R:3 energy=-22.248271313493454 pbc="F F F"
Pu       0.00000000       0.00000000       0.00000000       0.00000000       0.00000000       0.95341575
Pu       0.00000000       0.00000000       3.29575758       0.00000000       0.00000000      -0.95341575
2
Properties=species:S:1:pos:R:3:forces:R:3 energy=-22.18883847571871 pbc="F F F"
Pu       0.00000000       0.00000000       0.00000000       0.00000000       0.00000000       1.07216489
Pu       0.00000000       0.00000000       3.35454545       0.00000000       0.00000000      -1.07216489
2
Properties=species:S:1:pos:R:3:forces:R:3 energy=-22.121968681311003 pbc="F F F"
Pu       0.00000000       0.00000000       0.00000000       0.00000000       0.00000000       1.20324874
Pu       0.00000000       0.00000000       3.41333333       0.00000000       0.00000000      -1.20324874
2
Properties=species:S:1:pos:R:3:forces:R:3 energy=-22.047478458960658 pbc="F F F"
Pu       0.00000000       0.00000000       0.00000000       0.00000000       0.00000000       1.32876968
Pu       0.00000000       0.00000000       3.47212121       0.00000000       0.00000000      -1.32876968
2
Properties=species:S:1:pos:R:3:forces:R:3 energy=-21.9660917063101 pbc="F F F"
Pu       0.00000000       0.00000000       0.00000000       0.00000000       0.00000000       1.43645895
Pu       0.00000000       0.00000000       3.53090909       0.00000000       0.00000000      -1.43645895
2
Properties=species:S:1:pos:R:3:forces:R:3 energy=-21.879053573178066 pbc="F F F"
Pu       0.00000000       0.00000000       0.00000000       0.00000000       0.00000000       1.52042449
Pu       0.00000000       0.00000000       3.58969697       0.00000000       0.00000000      -1.52042449
2
Properties=species:S:1:pos:R:3:forces:R:3 energy=-21.78785325096464 pbc="F F F"
Pu       0.00000000       0.00000000       0.00000000       0.00000000       0.00000000       1.57749224
Pu       0.00000000       0.00000000       3.64848485       0.00000000       0.00000000      -1.57749224
2
Properties=species:S:1:pos:R:3:forces:R:3 energy=-21.694196509348433 pbc="F F F"
Pu       0.00000000       0.00000000       0.00000000       0.00000000       0.00000000       1.60290980
Pu       0.00000000       0.00000000       3.70727273       0.00000000       0.00000000      -1.60290980
2
Properties=species:S:1:pos:R:3:forces:R:3 energy=-21.60017065399875 pbc="F F F"
Pu       0.00000000       0.00000000       0.00000000       0.00000000       0.00000000       1.58837211
Pu       0.00000000       0.00000000       3.76606061       0.00000000       0.00000000      -1.58837211
2
Properties=species:S:1:pos:R:3:forces:R:3 energy=-21.508389410581664 pbc="F F F"
Pu       0.00000000       0.00000000       0.00000000       0.00000000       0.00000000       1.52580833
Pu       0.00000000       0.00000000       3.82484848       0.00000000       0.00000000      -1.52580833
2
Properties=species:S:1:pos:R:3:forces:R:3 energy=-21.421701631129057 pbc="F F F"
Pu       0.00000000       0.00000000       0.00000000       0.00000000       0.00000000       1.41634440
Pu       0.00000000       0.00000000       3.88363636       0.00000000       0.00000000      -1.41634440
2
Properties=species:S:1:pos:R:3:forces:R:3 energy=-21.342502756847452 pbc="F F F"
Pu       0.00000000       0.00000000       0.00000000       0.00000000       0.00000000       1.27444088
Pu       0.00000000       0.00000000       3.94242424       0.00000000       0.00000000      -1.27444088
2
Properties=species:S:1:pos:R:3:forces:R:3 energy=-21.272068550805326 pbc="F F F"
Pu       0.00000000       0.00000000       0.00000000       0.00000000       0.00000000       1.12182164
Pu       0.00000000       0.00000000       4.00121212       0.00000000       0.00000000      -1.12182164
2
Properties=species:S:1:pos:R:3:forces:R:3 energy=-21.21041729336891 pbc="F F F"
Pu       0.00000000       0.00000000       0.00000000       0.00000000       0.00000000       0.97849166
Pu       0.00000000       0.00000000       4.06000000       0.00000000       0.00000000      -0.97849166
2
Properties=species:S:1:pos:R:3:forces:R:3 energy=-21.15657346584896 pbc="F F F"
Pu       0.00000000       0.00000000       0.00000000       0.00000000       0.00000000       0.85774493
Pu       0.00000000       0.00000000       4.11878788       0.00000000       0.00000000      -0.85774493
2
Properties=species:S:1:pos:R:3:forces:R:3 energy=-21.109006160900506 pbc="F F F"
Pu       0.00000000       0.00000000       0.00000000       0.00000000       0.00000000       0.76531094
Pu       0.00000000       0.00000000       4.17757576       0.00000000       0.00000000      -0.76531094
2
Properties=species:S:1:pos:R:3:forces:R:3 energy=-21.06604325428766 pbc="F F F"
Pu       0.00000000       0.00000000       0.00000000       0.00000000       0.00000000       0.70066375
Pu       0.00000000       0.00000000       4.23636364       0.00000000       0.00000000      -0.70066375
2
Properties=species:S:1:pos:R:3:forces:R:3 energy=-21.026174402103983 pbc="F F F"
Pu       0.00000000       0.00000000       0.00000000       0.00000000       0.00000000       0.65895009
Pu       0.00000000       0.00000000       4.29515152       0.00000000       0.00000000      -0.65895009
2
Properties=species:S:1:pos:R:3:forces:R:3 energy=-20.988262259732885 pbc="F F F"
Pu       0.00000000       0.00000000       0.00000000       0.00000000       0.00000000       0.63282216
Pu       0.00000000       0.00000000       4.35393939       0.00000000       0.00000000      -0.63282216
2
Properties=species:S:1:pos:R:3:forces:R:3 energy=-20.95163281685947 pbc="F F F"
Pu       0.00000000       0.00000000       0.00000000       0.00000000       0.00000000       0.61371255
Pu       0.00000000       0.00000000       4.41272727       0.00000000       0.00000000      -0.61371255
2
Properties=species:S:1:pos:R:3:forces:R:3 energy=-20.91614087423316 pbc="F F F"
Pu       0.00000000       0.00000000       0.00000000       0.00000000       0.00000000       0.59267694
Pu       0.00000000       0.00000000       4.47151515       0.00000000       0.00000000      -0.59267694
2
Properties=species:S:1:pos:R:3:forces:R:3 energy=-20.882154074966774 pbc="F F F"
Pu       0.00000000       0.00000000       0.00000000       0.00000000       0.00000000       0.56111532
Pu       0.00000000       0.00000000       4.53030303       0.00000000       0.00000000      -0.56111532
2
Properties=species:S:1:pos:R:3:forces:R:3 energy=-20.850518794008664 pbc="F F F"
Pu       0.00000000       0.00000000       0.00000000       0.00000000       0.00000000       0.51168263
Pu       0.00000000       0.00000000       4.58909091       0.00000000       0.00000000      -0.51168263
2
Properties=species:S:1:pos:R:3:forces:R:3 energy=-20.82244413200093 pbc="F F F"
Pu       0.00000000       0.00000000       0.00000000       0.00000000       0.00000000       0.43944046
Pu       0.00000000       0.00000000       4.64787879       0.00000000       0.00000000      -0.43944046
2
Properties=species:S:1:pos:R:3:forces:R:3 energy=-20.799330241231157 pbc="F F F"
Pu       0.00000000       0.00000000       0.00000000       0.00000000       0.00000000       0.34288418
Pu       0.00000000       0.00000000       4.70666667       0.00000000       0.00000000      -0.34288418
2
Properties=species:S:1:pos:R:3:forces:R:3 energy=-20.782556730311434 pbc="F F F"
Pu       0.00000000       0.00000000       0.00000000       0.00000000       0.00000000       0.22463481
Pu       0.00000000       0.00000000       4.76545455       0.00000000       0.00000000      -0.22463481
2
Properties=species:S:1:pos:R:3:forces:R:3 energy=-20.773215692390554 pbc="F F F"
Pu       0.00000000       0.00000000       0.00000000       0.00000000       0.00000000       0.09140739
Pu       0.00000000       0.00000000       4.82424242       0.00000000       0.00000000      -0.09140739
2
Properties=species:S:1:pos:R:3:forces:R:3 energy=-20.77189997678447 pbc="F F F"
Pu       0.00000000       0.00000000       0.00000000       0.00000000       0.00000000      -0.04644553
Pu       0.00000000       0.00000000       4.88303030       0.00000000       0.00000000       0.04644553
2
Properties=species:S:1:pos:R:3:forces:R:3 energy=-20.778518150816353 pbc="F F F"
Pu       0.00000000       0.00000000       0.00000000       0.00000000       0.00000000      -0.17615598
Pu       0.00000000       0.00000000       4.94181818       0.00000000       0.00000000       0.17615598
2
Properties=species:S:1:pos:R:3:forces:R:3 energy=-20.792182035939323 pbc="F F F"
Pu       0.00000000       0.00000000       0.00000000       0.00000000       0.00000000      -0.28392795
Pu       0.00000000       0.00000000       5.00060606       0.00000000       0.00000000       0.28392795
2
Properties=species:S:1:pos:R:3:forces:R:3 energy=-20.81122964026958 pbc="F F F"
Pu       0.00000000       0.00000000       0.00000000       0.00000000       0.00000000      -0.35750228
Pu       0.00000000       0.00000000       5.05939394       0.00000000       0.00000000       0.35750228
2
Properties=species:S:1:pos:R:3:forces:R:3 energy=-20.833392840539315 pbc="F F F"
Pu       0.00000000       0.00000000       0.00000000       0.00000000       0.00000000      -0.38945466
Pu       0.00000000       0.00000000       5.11818182       0.00000000       0.00000000       0.38945466
2
Properties=species:S:1:pos:R:3:forces:R:3 energy=-20.85621711917318 pbc="F F F"
Pu       0.00000000       0.00000000       0.00000000       0.00000000       0.00000000      -0.38089311
Pu       0.00000000       0.00000000       5.17696970       0.00000000       0.00000000       0.38089311
2
Properties=species:S:1:pos:R:3:forces:R:3 energy=-20.87758791014757 pbc="F F F"
Pu       0.00000000       0.00000000       0.00000000       0.00000000       0.00000000      -0.34242365
Pu       0.00000000       0.00000000       5.23575758       0.00000000       0.00000000       0.34242365
2
Properties=species:S:1:pos:R:3:forces:R:3 energy=-20.896161558411332 pbc="F F F"
Pu       0.00000000       0.00000000       0.00000000       0.00000000       0.00000000      -0.28736281
Pu       0.00000000       0.00000000       5.29454545       0.00000000       0.00000000       0.28736281
2
Properties=species:S:1:pos:R:3:forces:R:3 energy=-20.911052571730774 pbc="F F F"
Pu       0.00000000       0.00000000       0.00000000       0.00000000       0.00000000      -0.21487845
Pu       0.00000000       0.00000000       5.35333333       0.00000000       0.00000000       0.21487845
2
Properties=species:S:1:pos:R:3:forces:R:3 energy=-20.920652857844363 pbc="F F F"
Pu       0.00000000       0.00000000       0.00000000       0.00000000       0.00000000      -0.10381670
Pu       0.00000000       0.00000000       5.41212121       0.00000000       0.00000000       0.10381670
2
Properties=species:S:1:pos:R:3:forces:R:3 energy=-20.92261441260521 pbc="F F F"
Pu       0.00000000       0.00000000       0.00000000       0.00000000       0.00000000       0.03692806
Pu       0.00000000       0.00000000       5.47090909       0.00000000       0.00000000      -0.03692806
2
Properties=species:S:1:pos:R:3:forces:R:3 energy=-20.917187237109285 pbc="F F F"
Pu       0.00000000       0.00000000       0.00000000       0.00000000       0.00000000       0.13508342
Pu       0.00000000       0.00000000       5.52969697       0.00000000       0.00000000      -0.13508342
2
Properties=species:S:1:pos:R:3:forces:R:3 energy=-20.90815769620197 pbc="F F F"
Pu       0.00000000       0.00000000       0.00000000       0.00000000       0.00000000       0.16375804
Pu       0.00000000       0.00000000       5.58848485       0.00000000       0.00000000      -0.16375804
2
Properties=species:S:1:pos:R:3:forces:R:3 energy=-20.898222963624654 pbc="F F F"
Pu       0.00000000       0.00000000       0.00000000       0.00000000       0.00000000       0.17781998
Pu       0.00000000       0.00000000       5.64727273       0.00000000       0.00000000      -0.17781998
2
Properties=species:S:1:pos:R:3:forces:R:3 energy=-20.88641804038727 pbc="F F F"
Pu       0.00000000       0.00000000       0.00000000       0.00000000       0.00000000       0.23087928
Pu       0.00000000       0.00000000       5.70606061       0.00000000       0.00000000      -0.23087928
2
Properties=species:S:1:pos:R:3:forces:R:3 energy=-20.870948148481112 pbc="F F F"
Pu       0.00000000       0.00000000       0.00000000       0.00000000       0.00000000       0.28609756
Pu       0.00000000       0.00000000       5.76484848       0.00000000       0.00000000      -0.28609756
2
Properties=species:S:1:pos:R:3:forces:R:3 energy=-20.8545558452048 pbc="F F F"
Pu       0.00000000       0.00000000       0.00000000       0.00000000       0.00000000       0.25510424
Pu       0.00000000       0.00000000       5.82363636       0.00000000       0.00000000      -0.25510424
2
Properties=species:S:1:pos:R:3:forces:R:3 energy=-20.842371425416 pbc="F F F"
Pu       0.00000000       0.00000000       0.00000000       0.00000000       0.00000000       0.15626489
Pu       0.00000000       0.00000000       5.88242424       0.00000000       0.00000000      -0.15626489
2
Properties=species:S:1:pos:R:3:forces:R:3 energy=-20.835986754483233 pbc="F F F"
Pu       0.00000000       0.00000000       0.00000000       0.00000000       0.00000000       0.06668558
Pu       0.00000000       0.00000000       5.94121212       0.00000000       0.00000000      -0.06668558
2
Properties=species:S:1:pos:R:3:forces:R:3 energy=-20.833413230588214 pbc="F F F"
Pu       0.00000000       0.00000000       0.00000000       0.00000000       0.00000000       0.03215090
Pu       0.00000000       0.00000000       6.00000000       0.00000000       0.00000000      -0.03215090
