2
Properties=species:S:1:pos:R:3:forces:R:3 energy=5886.254063428229 pbc="F F F"
Sr       0.00000000       0.00000000       0.00000000       0.00000000       0.00000000  -94999.38281250
Sr       0.00000000       0.00000000       0.18000000       0.00000000       0.00000000   94999.38281250
2
Properties=species:S:1:pos:R:3:forces:R:3 energy=2475.3946884282286 pbc="F F F"
Sr       0.00000000       0.00000000       0.00000000       0.00000000       0.00000000  -33527.48046875
Sr       0.00000000       0.00000000       0.23878788       0.00000000       0.00000000   33527.48046875
2
Properties=species:S:1:pos:R:3:forces:R:3 energy=1176.8143661626036 pbc="F F F"
Sr       0.00000000       0.00000000       0.00000000       0.00000000       0.00000000  -13945.09179688
Sr       0.00000000       0.00000000       0.29757576       0.00000000       0.00000000   13945.09179688
2
Properties=species:S:1:pos:R:3:forces:R:3 energy=610.0184677251037 pbc="F F F"
Sr       0.00000000       0.00000000       0.00000000       0.00000000       0.00000000   -6430.44580078
Sr       0.00000000       0.00000000       0.35636364       0.00000000       0.00000000    6430.44580078
2
Properties=species:S:1:pos:R:3:forces:R:3 energy=339.95947724658805 pbc="F F F"
Sr       0.00000000       0.00000000       0.00000000       0.00000000       0.00000000   -3180.67333984
Sr       0.00000000       0.00000000       0.41515152       0.00000000       0.00000000    3180.67333984
2
Properties=species:S:1:pos:R:3:forces:R:3 energy=203.06956942234527 pbc="F F F"
Sr       0.00000000       0.00000000       0.00000000       0.00000000       0.00000000   -1658.74792480
Sr       0.00000000       0.00000000       0.47393939       0.00000000       0.00000000    1658.74792480
2
Properties=species:S:1:pos:R:3:forces:R:3 energy=130.21611484517283 pbc="F F F"
Sr       0.00000000       0.00000000       0.00000000       0.00000000       0.00000000    -904.17553711
Sr       0.00000000       0.00000000       0.53272727       0.00000000       0.00000000     904.17553711
2
Properties=species:S:1:pos:R:3:forces:R:3 energy=89.76835332219957 pbc="F F F"
Sr       0.00000000       0.00000000       0.00000000       0.00000000       0.00000000    -513.10290527
Sr       0.00000000       0.00000000       0.59151515       0.00000000       0.00000000     513.10290527
2
Properties=species:S:1:pos:R:3:forces:R:3 energy=66.40146340660016 pbc="F F F"
Sr       0.00000000       0.00000000       0.00000000       0.00000000       0.00000000    -302.87017822
Sr       0.00000000       0.00000000       0.65030303       0.00000000       0.00000000     302.87017822
2
Properties=species:S:1:pos:R:3:forces:R:3 energy=52.348416283445175 pbc="F F F"
Sr       0.00000000       0.00000000       0.00000000       0.00000000       0.00000000    -186.34957886
Sr       0.00000000       0.00000000       0.70909091       0.00000000       0.00000000     186.34957886
2
Properties=species:S:1:pos:R:3:forces:R:3 energy=43.51680091781051 pbc="F F F"
Sr       0.00000000       0.00000000       0.00000000       0.00000000       0.00000000    -120.21212769
Sr       0.00000000       0.00000000       0.76787879       0.00000000       0.00000000     120.21212769
2
Properties=species:S:1:pos:R:3:forces:R:3 energy=37.67080798985992 pbc="F F F"
Sr       0.00000000       0.00000000       0.00000000       0.00000000       0.00000000     -82.14298248
Sr       0.00000000       0.00000000       0.82666667       0.00000000       0.00000000      82.14298248
2
Properties=species:S:1:pos:R:3:forces:R:3 energy=33.543931329867625 pbc="F F F"
Sr       0.00000000       0.00000000       0.00000000       0.00000000       0.00000000     -60.31431198
Sr       0.00000000       0.00000000       0.88545455       0.00000000       0.00000000      60.31431198
2
Properties=species:S:1:pos:R:3:forces:R:3 energy=30.38720092510228 pbc="F F F"
Sr       0.00000000       0.00000000       0.00000000       0.00000000       0.00000000     -48.38731766
Sr       0.00000000       0.00000000       0.94424242       0.00000000       0.00000000      48.38731766
2
Properties=species:S:1:pos:R:3:forces:R:3 energy=27.725807122621802 pbc="F F F"
Sr       0.00000000       0.00000000       0.00000000       0.00000000       0.00000000     -43.09418106
Sr       0.00000000       0.00000000       1.00303030       0.00000000       0.00000000      43.09418106
2
Properties=species:S:1:pos:R:3:forces:R:3 energy=25.225111383865926 pbc="F F F"
Sr       0.00000000       0.00000000       0.00000000       0.00000000       0.00000000     -42.63802719
Sr       0.00000000       0.00000000       1.06181818       0.00000000       0.00000000      42.63802719
2
Properties=species:S:1:pos:R:3:forces:R:3 energy=22.667778974191492 pbc="F F F"
Sr       0.00000000       0.00000000       0.00000000       0.00000000       0.00000000     -44.34730530
Sr       0.00000000       0.00000000       1.12060606       0.00000000       0.00000000      44.34730530
2
Properties=species:S:1:pos:R:3:forces:R:3 energy=20.068452666073394 pbc="F F F"
Sr       0.00000000       0.00000000       0.00000000       0.00000000       0.00000000     -43.26432800
Sr       0.00000000       0.00000000       1.17939394       0.00000000       0.00000000      43.26432800
2
Properties=species:S:1:pos:R:3:forces:R:3 energy=17.66681562976369 pbc="F F F"
Sr       0.00000000       0.00000000       0.00000000       0.00000000       0.00000000     -37.96251297
Sr       0.00000000       0.00000000       1.23818182       0.00000000       0.00000000      37.96251297
2
Properties=species:S:1:pos:R:3:forces:R:3 energy=15.640103525615693 pbc="F F F"
Sr       0.00000000       0.00000000       0.00000000       0.00000000       0.00000000     -30.81335640
Sr       0.00000000       0.00000000       1.29696970       0.00000000       0.00000000      30.81335640
2
Properties=species:S:1:pos:R:3:forces:R:3 energy=14.042771233123934 pbc="F F F"
Sr       0.00000000       0.00000000       0.00000000       0.00000000       0.00000000     -23.74165154
Sr       0.00000000       0.00000000       1.35575758       0.00000000       0.00000000      23.74165154
2
Properties=species:S:1:pos:R:3:forces:R:3 energy=12.81209374217054 pbc="F F F"
Sr       0.00000000       0.00000000       0.00000000       0.00000000       0.00000000     -18.45059204
Sr       0.00000000       0.00000000       1.41454545       0.00000000       0.00000000      18.45059204
2
Properties=species:S:1:pos:R:3:forces:R:3 energy=11.83512842682992 pbc="F F F"
Sr       0.00000000       0.00000000       0.00000000       0.00000000       0.00000000     -15.15949440
Sr       0.00000000       0.00000000       1.47333333       0.00000000       0.00000000      15.15949440
2
Properties=species:S:1:pos:R:3:forces:R:3 energy=10.981723658822089 pbc="F F F"
Sr       0.00000000       0.00000000       0.00000000       0.00000000       0.00000000     -14.22472382
Sr       0.00000000       0.00000000       1.53212121       0.00000000       0.00000000      14.22472382
2
Properties=species:S:1:pos:R:3:forces:R:3 energy=10.145578219167847 pbc="F F F"
Sr       0.00000000       0.00000000       0.00000000       0.00000000       0.00000000     -14.13713169
Sr       0.00000000       0.00000000       1.59090909       0.00000000       0.00000000      14.13713169
2
Properties=species:S:1:pos:R:3:forces:R:3 energy=9.344331388400684 pbc="F F F"
Sr       0.00000000       0.00000000       0.00000000       0.00000000       0.00000000     -12.88849068
Sr       0.00000000       0.00000000       1.64969697       0.00000000       0.00000000      12.88849068
2
Properties=species:S:1:pos:R:3:forces:R:3 energy=8.648479871383488 pbc="F F F"
Sr       0.00000000       0.00000000       0.00000000       0.00000000       0.00000000     -10.72007656
Sr       0.00000000       0.00000000       1.70848485       0.00000000       0.00000000      10.72007656
2
Properties=species:S:1:pos:R:3:forces:R:3 energy=8.083608994732264 pbc="F F F"
Sr       0.00000000       0.00000000       0.00000000       0.00000000       0.00000000      -8.54931259
Sr       0.00000000       0.00000000       1.76727273       0.00000000       0.00000000       8.54931259
2
Properties=species:S:1:pos:R:3:forces:R:3 energy=7.632733042595545 pbc="F F F"
Sr       0.00000000       0.00000000       0.00000000       0.00000000       0.00000000      -6.91422319
Sr       0.00000000       0.00000000       1.82606061       0.00000000       0.00000000       6.91422319
2
Properties=species:S:1:pos:R:3:forces:R:3 energy=7.252980736158575 pbc="F F F"
Sr       0.00000000       0.00000000       0.00000000       0.00000000       0.00000000      -6.17101383
Sr       0.00000000       0.00000000       1.88484848       0.00000000       0.00000000       6.17101383
2
Properties=species:S:1:pos:R:3:forces:R:3 energy=6.888341109889022 pbc="F F F"
Sr       0.00000000       0.00000000       0.00000000       0.00000000       0.00000000      -6.37495375
Sr       0.00000000       0.00000000       1.94363636       0.00000000       0.00000000       6.37495375
2
Properties=species:S:1:pos:R:3:forces:R:3 energy=6.490924218231555 pbc="F F F"
Sr       0.00000000       0.00000000       0.00000000       0.00000000       0.00000000      -7.21323442
Sr       0.00000000       0.00000000       2.00242424       0.00000000       0.00000000       7.21323442
2
Properties=species:S:1:pos:R:3:forces:R:3 energy=6.036673422150372 pbc="F F F"
Sr       0.00000000       0.00000000       0.00000000       0.00000000       0.00000000      -8.23794937
Sr       0.00000000       0.00000000       2.06121212       0.00000000       0.00000000       8.23794937
2
Properties=species:S:1:pos:R:3:forces:R:3 energy=5.5254807900571326 pbc="F F F"
Sr       0.00000000       0.00000000       0.00000000       0.00000000       0.00000000      -9.10845089
Sr       0.00000000       0.00000000       2.12000000       0.00000000       0.00000000       9.10845089
2
Properties=species:S:1:pos:R:3:forces:R:3 energy=4.972322707711246 pbc="F F F"
Sr       0.00000000       0.00000000       0.00000000       0.00000000       0.00000000      -9.64625359
Sr       0.00000000       0.00000000       2.17878788       0.00000000       0.00000000       9.64625359
2
Properties=species:S:1:pos:R:3:forces:R:3 energy=4.399392465918951 pbc="F F F"
Sr       0.00000000       0.00000000       0.00000000       0.00000000       0.00000000      -9.77356148
Sr       0.00000000       0.00000000       2.23757576       0.00000000       0.00000000       9.77356148
2
Properties=species:S:1:pos:R:3:forces:R:3 energy=3.8315725863461236 pbc="F F F"
Sr       0.00000000       0.00000000       0.00000000       0.00000000       0.00000000      -9.47532940
Sr       0.00000000       0.00000000       2.29636364       0.00000000       0.00000000       9.47532940
2
Properties=species:S:1:pos:R:3:forces:R:3 energy=3.292664136655125 pbc="F F F"
Sr       0.00000000       0.00000000       0.00000000       0.00000000       0.00000000      -8.80485535
Sr       0.00000000       0.00000000       2.35515152       0.00000000       0.00000000       8.80485535
2
Properties=species:S:1:pos:R:3:forces:R:3 energy=2.801389919458608 pbc="F F F"
Sr       0.00000000       0.00000000       0.00000000       0.00000000       0.00000000      -7.87728167
Sr       0.00000000       0.00000000       2.41393939       0.00000000       0.00000000       7.87728167
2
Properties=species:S:1:pos:R:3:forces:R:3 energy=2.3687441607090673 pbc="F F F"
Sr       0.00000000       0.00000000       0.00000000       0.00000000       0.00000000      -6.83383179
Sr       0.00000000       0.00000000       2.47272727       0.00000000       0.00000000       6.83383179
2
Properties=species:S:1:pos:R:3:forces:R:3 energy=1.9976094914194684 pbc="F F F"
Sr       0.00000000       0.00000000       0.00000000       0.00000000       0.00000000      -5.80384207
Sr       0.00000000       0.00000000       2.53151515       0.00000000       0.00000000       5.80384207
2
Properties=species:S:1:pos:R:3:forces:R:3 energy=1.6841995666322829 pbc="F F F"
Sr       0.00000000       0.00000000       0.00000000       0.00000000       0.00000000      -4.88238096
Sr       0.00000000       0.00000000       2.59030303       0.00000000       0.00000000       4.88238096
2
Properties=species:S:1:pos:R:3:forces:R:3 energy=1.4203777506256459 pbc="F F F"
Sr       0.00000000       0.00000000       0.00000000       0.00000000       0.00000000      -4.12186575
Sr       0.00000000       0.00000000       2.64909091       0.00000000       0.00000000       4.12186575
2
Properties=species:S:1:pos:R:3:forces:R:3 energy=1.1961660693130693 pbc="F F F"
Sr       0.00000000       0.00000000       0.00000000       0.00000000       0.00000000      -3.53381014
Sr       0.00000000       0.00000000       2.70787879       0.00000000       0.00000000       3.53381014
2
Properties=species:S:1:pos:R:3:forces:R:3 energy=1.0018821001150842 pbc="F F F"
Sr       0.00000000       0.00000000       0.00000000       0.00000000       0.00000000      -3.09858894
Sr       0.00000000       0.00000000       2.76666667       0.00000000       0.00000000       3.09858894
2
Properties=species:S:1:pos:R:3:forces:R:3 energy=0.8295748161736557 pbc="F F F"
Sr       0.00000000       0.00000000       0.00000000       0.00000000       0.00000000      -2.77923679
Sr       0.00000000       0.00000000       2.82545455       0.00000000       0.00000000       2.77923679
2
Properties=species:S:1:pos:R:3:forces:R:3 energy=0.6736529195104748 pbc="F F F"
Sr       0.00000000       0.00000000       0.00000000       0.00000000       0.00000000      -2.53441453
Sr       0.00000000       0.00000000       2.88424242       0.00000000       0.00000000       2.53441453
2
Properties=species:S:1:pos:R:3:forces:R:3 energy=0.5308530058110027 pbc="F F F"
Sr       0.00000000       0.00000000       0.00000000       0.00000000       0.00000000      -2.32744217
Sr       0.00000000       0.00000000       2.94303030       0.00000000       0.00000000       2.32744217
2
Properties=species:S:1:pos:R:3:forces:R:3 energy=0.3997996455480567 pbc="F F F"
Sr       0.00000000       0.00000000       0.00000000       0.00000000       0.00000000      -2.13124657
Sr       0.00000000       0.00000000       3.00181818       0.00000000       0.00000000       2.13124657
2
Properties=species:S:1:pos:R:3:forces:R:3 energy=0.280365467099608 pbc="F F F"
Sr       0.00000000       0.00000000       0.00000000       0.00000000       0.00000000      -1.93067467
Sr       0.00000000       0.00000000       3.06060606       0.00000000       0.00000000       1.93067467
2
Properties=species:S:1:pos:R:3:forces:R:3 energy=0.1729468551926538 pbc="F F F"
Sr       0.00000000       0.00000000       0.00000000       0.00000000       0.00000000      -1.72291243
Sr       0.00000000       0.00000000       3.11939394       0.00000000       0.00000000       1.72291243
2
Properties=species:S:1:pos:R:3:forces:R:3 energy=0.07779104674383953 pbc="F F F"
Sr       0.00000000       0.00000000       0.00000000       0.00000000       0.00000000      -1.51536334
Sr       0.00000000       0.00000000       3.17818182       0.00000000       0.00000000       1.51536334
2
Properties=species:S:1:pos:R:3:forces:R:3 energy=-0.0054759825246136346 pbc="F F F"
Sr       0.00000000       0.00000000       0.00000000       0.00000000       0.00000000      -1.32067990
Sr       0.00000000       0.00000000       3.23696970       0.00000000       0.00000000       1.32067990
2
Properties=species:S:1:pos:R:3:forces:R:3 energy=-0.07797393290549838 pbc="F F F"
Sr       0.00000000       0.00000000       0.00000000       0.00000000       0.00000000      -1.15054870
Sr       0.00000000       0.00000000       3.29575758       0.00000000       0.00000000       1.15054870
2
Properties=species:S:1:pos:R:3:forces:R:3 energy=-0.14135272256053882 pbc="F F F"
Sr       0.00000000       0.00000000       0.00000000       0.00000000       0.00000000      -1.01078475
Sr       0.00000000       0.00000000       3.35454545       0.00000000       0.00000000       1.01078475
2
Properties=species:S:1:pos:R:3:forces:R:3 energy=-0.1973810121554152 pbc="F F F"
Sr       0.00000000       0.00000000       0.00000000       0.00000000       0.00000000      -0.89954048
Sr       0.00000000       0.00000000       3.41333333       0.00000000       0.00000000       0.89954048
2
Properties=species:S:1:pos:R:3:forces:R:3 energy=-0.24752111010790742 pbc="F F F"
Sr       0.00000000       0.00000000       0.00000000       0.00000000       0.00000000      -0.80882275
Sr       0.00000000       0.00000000       3.47212121       0.00000000       0.00000000       0.80882275
2
Properties=species:S:1:pos:R:3:forces:R:3 energy=-0.2926740167107036 pbc="F F F"
Sr       0.00000000       0.00000000       0.00000000       0.00000000       0.00000000      -0.72814643
Sr       0.00000000       0.00000000       3.53090909       0.00000000       0.00000000       0.72814643
2
Properties=species:S:1:pos:R:3:forces:R:3 energy=-0.3331537660751838 pbc="F F F"
Sr       0.00000000       0.00000000       0.00000000       0.00000000       0.00000000      -0.64866227
Sr       0.00000000       0.00000000       3.58969697       0.00000000       0.00000000       0.64866227
2
Properties=species:S:1:pos:R:3:forces:R:3 energy=-0.3688766178840318 pbc="F F F"
Sr       0.00000000       0.00000000       0.00000000       0.00000000       0.00000000      -0.56608063
Sr       0.00000000       0.00000000       3.64848485       0.00000000       0.00000000       0.56608063
2
Properties=species:S:1:pos:R:3:forces:R:3 energy=-0.3996641259150222 pbc="F F F"
Sr       0.00000000       0.00000000       0.00000000       0.00000000       0.00000000      -0.48123530
Sr       0.00000000       0.00000000       3.70727273       0.00000000       0.00000000       0.48123530
2
Properties=species:S:1:pos:R:3:forces:R:3 energy=-0.42549582503086525 pbc="F F F"
Sr       0.00000000       0.00000000       0.00000000       0.00000000       0.00000000      -0.39828536
Sr       0.00000000       0.00000000       3.76606061       0.00000000       0.00000000       0.39828536
2
Properties=species:S:1:pos:R:3:forces:R:3 energy=-0.4466206308443979 pbc="F F F"
Sr       0.00000000       0.00000000       0.00000000       0.00000000       0.00000000      -0.32177120
Sr       0.00000000       0.00000000       3.82484848       0.00000000       0.00000000       0.32177120
2
Properties=species:S:1:pos:R:3:forces:R:3 energy=-0.46350703072853117 pbc="F F F"
Sr       0.00000000       0.00000000       0.00000000       0.00000000       0.00000000      -0.25430521
Sr       0.00000000       0.00000000       3.88363636       0.00000000       0.00000000       0.25430521
2
Properties=species:S:1:pos:R:3:forces:R:3 energy=-0.47670242046286276 pbc="F F F"
Sr       0.00000000       0.00000000       0.00000000       0.00000000       0.00000000      -0.19606508
Sr       0.00000000       0.00000000       3.94242424       0.00000000       0.00000000       0.19606508
2
Properties=species:S:1:pos:R:3:forces:R:3 energy=-0.4867164696560411 pbc="F F F"
Sr       0.00000000       0.00000000       0.00000000       0.00000000       0.00000000      -0.14583968
Sr       0.00000000       0.00000000       4.00121212       0.00000000       0.00000000       0.14583968
2
Properties=species:S:1:pos:R:3:forces:R:3 energy=-0.49398411649412943 pbc="F F F"
Sr       0.00000000       0.00000000       0.00000000       0.00000000       0.00000000      -0.10251683
Sr       0.00000000       0.00000000       4.06000000       0.00000000       0.00000000       0.10251683
2
Properties=species:S:1:pos:R:3:forces:R:3 energy=-0.4989014349710894 pbc="F F F"
Sr       0.00000000       0.00000000       0.00000000       0.00000000       0.00000000      -0.06594490
Sr       0.00000000       0.00000000       4.11878788       0.00000000       0.00000000       0.06594490
2
Properties=species:S:1:pos:R:3:forces:R:3 energy=-0.5018831007349677 pbc="F F F"
Sr       0.00000000       0.00000000       0.00000000       0.00000000       0.00000000      -0.03680322
Sr       0.00000000       0.00000000       4.17757576       0.00000000       0.00000000       0.03680322
2
Properties=species:S:1:pos:R:3:forces:R:3 energy=-0.5033876073955814 pbc="F F F"
Sr       0.00000000       0.00000000       0.00000000       0.00000000       0.00000000      -0.01572800
Sr       0.00000000       0.00000000       4.23636364       0.00000000       0.00000000       0.01572800
2
Properties=species:S:1:pos:R:3:forces:R:3 energy=-0.5038803455019605 pbc="F F F"
Sr       0.00000000       0.00000000       0.00000000       0.00000000       0.00000000      -0.00211697
Sr       0.00000000       0.00000000       4.29515152       0.00000000       0.00000000       0.00211697
2
Properties=species:S:1:pos:R:3:forces:R:3 energy=-0.5037302714205338 pbc="F F F"
Sr       0.00000000       0.00000000       0.00000000       0.00000000       0.00000000       0.00679325
Sr       0.00000000       0.00000000       4.35393939       0.00000000       0.00000000      -0.00679325
2
Properties=species:S:1:pos:R:3:forces:R:3 energy=-0.503081751808408 pbc="F F F"
Sr       0.00000000       0.00000000       0.00000000       0.00000000       0.00000000       0.01568961
Sr       0.00000000       0.00000000       4.41272727       0.00000000       0.00000000      -0.01568961
2
Properties=species:S:1:pos:R:3:forces:R:3 energy=-0.5017929553648464 pbc="F F F"
Sr       0.00000000       0.00000000       0.00000000       0.00000000       0.00000000       0.02920841
Sr       0.00000000       0.00000000       4.47151515       0.00000000       0.00000000      -0.02920841
2
Properties=species:S:1:pos:R:3:forces:R:3 energy=-0.4995134559003509 pbc="F F F"
Sr       0.00000000       0.00000000       0.00000000       0.00000000       0.00000000       0.04945885
Sr       0.00000000       0.00000000       4.53030303       0.00000000       0.00000000      -0.04945885
2
Properties=species:S:1:pos:R:3:forces:R:3 energy=-0.4958645865127402 pbc="F F F"
Sr       0.00000000       0.00000000       0.00000000       0.00000000       0.00000000       0.07544482
Sr       0.00000000       0.00000000       4.58909091       0.00000000       0.00000000      -0.07544482
2
Properties=species:S:1:pos:R:3:forces:R:3 energy=-0.4905799793802702 pbc="F F F"
Sr       0.00000000       0.00000000       0.00000000       0.00000000       0.00000000       0.10465758
Sr       0.00000000       0.00000000       4.64787879       0.00000000       0.00000000      -0.10465758
2
Properties=species:S:1:pos:R:3:forces:R:3 energy=-0.48354214362155723 pbc="F F F"
Sr       0.00000000       0.00000000       0.00000000       0.00000000       0.00000000       0.13476585
Sr       0.00000000       0.00000000       4.70666667       0.00000000       0.00000000      -0.13476585
2
Properties=species:S:1:pos:R:3:forces:R:3 energy=-0.4747490711646119 pbc="F F F"
Sr       0.00000000       0.00000000       0.00000000       0.00000000       0.00000000       0.16416457
Sr       0.00000000       0.00000000       4.76545455       0.00000000       0.00000000      -0.16416457
2
Properties=species:S:1:pos:R:3:forces:R:3 energy=-0.46427435724559923 pbc="F F F"
Sr       0.00000000       0.00000000       0.00000000       0.00000000       0.00000000       0.19181542
Sr       0.00000000       0.00000000       4.82424242       0.00000000       0.00000000      -0.19181542
2
Properties=species:S:1:pos:R:3:forces:R:3 energy=-0.45224483839001367 pbc="F F F"
Sr       0.00000000       0.00000000       0.00000000       0.00000000       0.00000000       0.21703786
Sr       0.00000000       0.00000000       4.88303030       0.00000000       0.00000000      -0.21703786
2
Properties=species:S:1:pos:R:3:forces:R:3 energy=-0.43880957156504496 pbc="F F F"
Sr       0.00000000       0.00000000       0.00000000       0.00000000       0.00000000       0.23955959
Sr       0.00000000       0.00000000       4.94181818       0.00000000       0.00000000      -0.23955959
2
Properties=species:S:1:pos:R:3:forces:R:3 energy=-0.42412637336935954 pbc="F F F"
Sr       0.00000000       0.00000000       0.00000000       0.00000000       0.00000000       0.25962979
Sr       0.00000000       0.00000000       5.00060606       0.00000000       0.00000000      -0.25962979
2
Properties=species:S:1:pos:R:3:forces:R:3 energy=-0.4083137240371855 pbc="F F F"
Sr       0.00000000       0.00000000       0.00000000       0.00000000       0.00000000       0.27811906
Sr       0.00000000       0.00000000       5.05939394       0.00000000       0.00000000      -0.27811906
2
Properties=species:S:1:pos:R:3:forces:R:3 energy=-0.391434543256324 pbc="F F F"
Sr       0.00000000       0.00000000       0.00000000       0.00000000       0.00000000       0.29616874
Sr       0.00000000       0.00000000       5.11818182       0.00000000       0.00000000      -0.29616874
2
Properties=species:S:1:pos:R:3:forces:R:3 energy=-0.37349365912725596 pbc="F F F"
Sr       0.00000000       0.00000000       0.00000000       0.00000000       0.00000000       0.31406057
Sr       0.00000000       0.00000000       5.17696970       0.00000000       0.00000000      -0.31406057
2
Properties=species:S:1:pos:R:3:forces:R:3 energy=-0.35456192414492355 pbc="F F F"
Sr       0.00000000       0.00000000       0.00000000       0.00000000       0.00000000       0.32912523
Sr       0.00000000       0.00000000       5.23575758       0.00000000       0.00000000      -0.32912523
2
Properties=species:S:1:pos:R:3:forces:R:3 energy=-0.3349728875540901 pbc="F F F"
Sr       0.00000000       0.00000000       0.00000000       0.00000000       0.00000000       0.33530581
Sr       0.00000000       0.00000000       5.29454545       0.00000000       0.00000000      -0.33530581
2
Properties=species:S:1:pos:R:3:forces:R:3 energy=-0.3153665167004188 pbc="F F F"
Sr       0.00000000       0.00000000       0.00000000       0.00000000       0.00000000       0.33036068
Sr       0.00000000       0.00000000       5.35333333       0.00000000       0.00000000      -0.33036068
2
Properties=species:S:1:pos:R:3:forces:R:3 energy=-0.2961185585486011 pbc="F F F"
Sr       0.00000000       0.00000000       0.00000000       0.00000000       0.00000000       0.32623962
Sr       0.00000000       0.00000000       5.41212121       0.00000000       0.00000000      -0.32623962
2
Properties=species:S:1:pos:R:3:forces:R:3 energy=-0.2767042204216775 pbc="F F F"
Sr       0.00000000       0.00000000       0.00000000       0.00000000       0.00000000       0.33648393
Sr       0.00000000       0.00000000       5.47090909       0.00000000       0.00000000      -0.33648393
2
Properties=species:S:1:pos:R:3:forces:R:3 energy=-0.2565389735071876 pbc="F F F"
Sr       0.00000000       0.00000000       0.00000000       0.00000000       0.00000000       0.34683141
Sr       0.00000000       0.00000000       5.52969697       0.00000000       0.00000000      -0.34683141
2
Properties=species:S:1:pos:R:3:forces:R:3 energy=-0.23644664318441072 pbc="F F F"
Sr       0.00000000       0.00000000       0.00000000       0.00000000       0.00000000       0.33243513
Sr       0.00000000       0.00000000       5.58848485       0.00000000       0.00000000      -0.33243513
2
Properties=species:S:1:pos:R:3:forces:R:3 energy=-0.2176055758980645 pbc="F F F"
Sr       0.00000000       0.00000000       0.00000000       0.00000000       0.00000000       0.31227344
Sr       0.00000000       0.00000000       5.64727273       0.00000000       0.00000000      -0.31227344
2
Properties=species:S:1:pos:R:3:forces:R:3 energy=-0.19876903357000297 pbc="F F F"
Sr       0.00000000       0.00000000       0.00000000       0.00000000       0.00000000       0.33956611
Sr       0.00000000       0.00000000       5.70606061       0.00000000       0.00000000      -0.33956611
2
Properties=species:S:1:pos:R:3:forces:R:3 energy=-0.17662405157463013 pbc="F F F"
Sr       0.00000000       0.00000000       0.00000000       0.00000000       0.00000000       0.41340795
Sr       0.00000000       0.00000000       5.76484848       0.00000000       0.00000000      -0.41340795
2
Properties=species:S:1:pos:R:3:forces:R:3 energy=-0.15150475590168677 pbc="F F F"
Sr       0.00000000       0.00000000       0.00000000       0.00000000       0.00000000       0.41913199
Sr       0.00000000       0.00000000       5.82363636       0.00000000       0.00000000      -0.41913199
2
Properties=species:S:1:pos:R:3:forces:R:3 energy=-0.13035005774268799 pbc="F F F"
Sr       0.00000000       0.00000000       0.00000000       0.00000000       0.00000000       0.28401589
Sr       0.00000000       0.00000000       5.88242424       0.00000000       0.00000000      -0.28401589
2
Properties=species:S:1:pos:R:3:forces:R:3 energy=-0.11884800647073918 pbc="F F F"
Sr       0.00000000       0.00000000       0.00000000       0.00000000       0.00000000       0.11280641
Sr       0.00000000       0.00000000       5.94121212       0.00000000       0.00000000      -0.11280641
2
Properties=species:S:1:pos:R:3:forces:R:3 energy=-0.11504954566567262 pbc="F F F"
Sr       0.00000000       0.00000000       0.00000000       0.00000000       0.00000000       0.04012058
Sr       0.00000000       0.00000000       6.00000000       0.00000000       0.00000000      -0.04012058
