2
Properties=species:S:1:pos:R:3:forces:R:3 energy=7069.027004862887 pbc="F F F"
Tc       0.00000000       0.00000000       0.00000000       0.00000000       0.00000000 -114828.71093750
Tc       0.00000000       0.00000000       0.18000000       0.00000000       0.00000000  114828.71093750
2
Properties=species:S:1:pos:R:3:forces:R:3 energy=2966.1834990035127 pbc="F F F"
Tc       0.00000000       0.00000000       0.00000000       0.00000000       0.00000000  -40063.20312500
Tc       0.00000000       0.00000000       0.23878788       0.00000000       0.00000000   40063.20312500
2
Properties=species:S:1:pos:R:3:forces:R:3 energy=1421.882351542575 pbc="F F F"
Tc       0.00000000       0.00000000       0.00000000       0.00000000       0.00000000  -16475.86914062
Tc       0.00000000       0.00000000       0.29757576       0.00000000       0.00000000   16475.86914062
2
Properties=species:S:1:pos:R:3:forces:R:3 energy=755.6405302598482 pbc="F F F"
Tc       0.00000000       0.00000000       0.00000000       0.00000000       0.00000000   -7508.39746094
Tc       0.00000000       0.00000000       0.35636364       0.00000000       0.00000000    7508.39746094
2
Properties=species:S:1:pos:R:3:forces:R:3 energy=441.9263884204807 pbc="F F F"
Tc       0.00000000       0.00000000       0.00000000       0.00000000       0.00000000   -3671.55273438
Tc       0.00000000       0.00000000       0.41515152       0.00000000       0.00000000    3671.55273438
2
Properties=species:S:1:pos:R:3:forces:R:3 energy=284.6048247251202 pbc="F F F"
Tc       0.00000000       0.00000000       0.00000000       0.00000000       0.00000000   -1897.33435059
Tc       0.00000000       0.00000000       0.47393939       0.00000000       0.00000000    1897.33435059
2
Properties=species:S:1:pos:R:3:forces:R:3 energy=201.39199517329027 pbc="F F F"
Tc       0.00000000       0.00000000       0.00000000       0.00000000       0.00000000   -1033.67419434
Tc       0.00000000       0.00000000       0.53272727       0.00000000       0.00000000    1033.67419434
2
Properties=species:S:1:pos:R:3:forces:R:3 energy=154.7661865334977 pbc="F F F"
Tc       0.00000000       0.00000000       0.00000000       0.00000000       0.00000000    -601.64471436
Tc       0.00000000       0.00000000       0.59151515       0.00000000       0.00000000     601.64471436
2
Properties=species:S:1:pos:R:3:forces:R:3 energy=126.4896134600513 pbc="F F F"
Tc       0.00000000       0.00000000       0.00000000       0.00000000       0.00000000    -386.19747925
Tc       0.00000000       0.00000000       0.65030303       0.00000000       0.00000000     386.19747925
2
Properties=species:S:1:pos:R:3:forces:R:3 energy=106.72517882933187 pbc="F F F"
Tc       0.00000000       0.00000000       0.00000000       0.00000000       0.00000000    -304.42773438
Tc       0.00000000       0.00000000       0.70909091       0.00000000       0.00000000     304.42773438
2
Properties=species:S:1:pos:R:3:forces:R:3 energy=89.76666011983097 pbc="F F F"
Tc       0.00000000       0.00000000       0.00000000       0.00000000       0.00000000    -278.10766602
Tc       0.00000000       0.00000000       0.76787879       0.00000000       0.00000000     278.10766602
2
Properties=species:S:1:pos:R:3:forces:R:3 energy=73.7243097499336 pbc="F F F"
Tc       0.00000000       0.00000000       0.00000000       0.00000000       0.00000000    -264.31204224
Tc       0.00000000       0.00000000       0.82666667       0.00000000       0.00000000     264.31204224
2
Properties=species:S:1:pos:R:3:forces:R:3 energy=59.05810397294959 pbc="F F F"
Tc       0.00000000       0.00000000       0.00000000       0.00000000       0.00000000    -232.83590698
Tc       0.00000000       0.00000000       0.88545455       0.00000000       0.00000000     232.83590698
2
Properties=species:S:1:pos:R:3:forces:R:3 energy=46.341449052710885 pbc="F F F"
Tc       0.00000000       0.00000000       0.00000000       0.00000000       0.00000000    -201.72064209
Tc       0.00000000       0.00000000       0.94424242       0.00000000       0.00000000     201.72064209
2
Properties=species:S:1:pos:R:3:forces:R:3 energy=35.14046521928594 pbc="F F F"
Tc       0.00000000       0.00000000       0.00000000       0.00000000       0.00000000    -179.98182678
Tc       0.00000000       0.00000000       1.00303030       0.00000000       0.00000000     179.98182678
2
Properties=species:S:1:pos:R:3:forces:R:3 energy=25.202158005013327 pbc="F F F"
Tc       0.00000000       0.00000000       0.00000000       0.00000000       0.00000000    -157.04809570
Tc       0.00000000       0.00000000       1.06181818       0.00000000       0.00000000     157.04809570
2
Properties=species:S:1:pos:R:3:forces:R:3 energy=16.831096774655048 pbc="F F F"
Tc       0.00000000       0.00000000       0.00000000       0.00000000       0.00000000    -127.15308380
Tc       0.00000000       0.00000000       1.12060606       0.00000000       0.00000000     127.15308380
2
Properties=species:S:1:pos:R:3:forces:R:3 energy=10.224402315092256 pbc="F F F"
Tc       0.00000000       0.00000000       0.00000000       0.00000000       0.00000000     -97.96921539
Tc       0.00000000       0.00000000       1.17939394       0.00000000       0.00000000      97.96921539
2
Properties=species:S:1:pos:R:3:forces:R:3 energy=5.312045983818254 pbc="F F F"
Tc       0.00000000       0.00000000       0.00000000       0.00000000       0.00000000     -69.30121613
Tc       0.00000000       0.00000000       1.23818182       0.00000000       0.00000000      69.30121613
2
Properties=species:S:1:pos:R:3:forces:R:3 energy=1.9160342028239519 pbc="F F F"
Tc       0.00000000       0.00000000       0.00000000       0.00000000       0.00000000     -48.73312378
Tc       0.00000000       0.00000000       1.29696970       0.00000000       0.00000000      48.73312378
2
Properties=species:S:1:pos:R:3:forces:R:3 energy=-0.6923544628093083 pbc="F F F"
Tc       0.00000000       0.00000000       0.00000000       0.00000000       0.00000000     -41.47205353
Tc       0.00000000       0.00000000       1.35575758       0.00000000       0.00000000      41.47205353
2
Properties=species:S:1:pos:R:3:forces:R:3 energy=-3.0214033684324155 pbc="F F F"
Tc       0.00000000       0.00000000       0.00000000       0.00000000       0.00000000     -37.61808395
Tc       0.00000000       0.00000000       1.41454545       0.00000000       0.00000000      37.61808395
2
Properties=species:S:1:pos:R:3:forces:R:3 energy=-5.065203771392303 pbc="F F F"
Tc       0.00000000       0.00000000       0.00000000       0.00000000       0.00000000     -31.43161011
Tc       0.00000000       0.00000000       1.47333333       0.00000000       0.00000000      31.43161011
2
Properties=species:S:1:pos:R:3:forces:R:3 energy=-6.691431129821111 pbc="F F F"
Tc       0.00000000       0.00000000       0.00000000       0.00000000       0.00000000     -24.05632019
Tc       0.00000000       0.00000000       1.53212121       0.00000000       0.00000000      24.05632019
2
Properties=species:S:1:pos:R:3:forces:R:3 energy=-7.947097405353034 pbc="F F F"
Tc       0.00000000       0.00000000       0.00000000       0.00000000       0.00000000     -19.23563576
Tc       0.00000000       0.00000000       1.59090909       0.00000000       0.00000000      19.23563576
2
Properties=species:S:1:pos:R:3:forces:R:3 energy=-9.006349804738477 pbc="F F F"
Tc       0.00000000       0.00000000       0.00000000       0.00000000       0.00000000     -17.04416084
Tc       0.00000000       0.00000000       1.64969697       0.00000000       0.00000000      17.04416084
2
Properties=species:S:1:pos:R:3:forces:R:3 energy=-9.953704428757826 pbc="F F F"
Tc       0.00000000       0.00000000       0.00000000       0.00000000       0.00000000     -15.04225445
Tc       0.00000000       0.00000000       1.70848485       0.00000000       0.00000000      15.04225445
2
Properties=species:S:1:pos:R:3:forces:R:3 energy=-10.752415730826627 pbc="F F F"
Tc       0.00000000       0.00000000       0.00000000       0.00000000       0.00000000     -11.95887280
Tc       0.00000000       0.00000000       1.76727273       0.00000000       0.00000000      11.95887280
2
Properties=species:S:1:pos:R:3:forces:R:3 energy=-11.348164902766671 pbc="F F F"
Tc       0.00000000       0.00000000       0.00000000       0.00000000       0.00000000      -8.28540611
Tc       0.00000000       0.00000000       1.82606061       0.00000000       0.00000000       8.28540611
2
Properties=species:S:1:pos:R:3:forces:R:3 energy=-11.73018365941098 pbc="F F F"
Tc       0.00000000       0.00000000       0.00000000       0.00000000       0.00000000      -4.77764034
Tc       0.00000000       0.00000000       1.88484848       0.00000000       0.00000000       4.77764034
2
Properties=species:S:1:pos:R:3:forces:R:3 energy=-11.91961108230057 pbc="F F F"
Tc       0.00000000       0.00000000       0.00000000       0.00000000       0.00000000      -1.75801206
Tc       0.00000000       0.00000000       1.94363636       0.00000000       0.00000000       1.75801206
2
Properties=species:S:1:pos:R:3:forces:R:3 energy=-11.948021870533765 pbc="F F F"
Tc       0.00000000       0.00000000       0.00000000       0.00000000       0.00000000       0.69467449
Tc       0.00000000       0.00000000       2.00242424       0.00000000       0.00000000      -0.69467449
2
Properties=species:S:1:pos:R:3:forces:R:3 energy=-11.849350962444014 pbc="F F F"
Tc       0.00000000       0.00000000       0.00000000       0.00000000       0.00000000       2.56562972
Tc       0.00000000       0.00000000       2.06121212       0.00000000       0.00000000      -2.56562972
2
Properties=species:S:1:pos:R:3:forces:R:3 energy=-11.657489065894783 pbc="F F F"
Tc       0.00000000       0.00000000       0.00000000       0.00000000       0.00000000       3.86967754
Tc       0.00000000       0.00000000       2.12000000       0.00000000       0.00000000      -3.86967754
2
Properties=species:S:1:pos:R:3:forces:R:3 energy=-11.404732877166934 pbc="F F F"
Tc       0.00000000       0.00000000       0.00000000       0.00000000       0.00000000       4.64593124
Tc       0.00000000       0.00000000       2.17878788       0.00000000       0.00000000      -4.64593124
2
Properties=species:S:1:pos:R:3:forces:R:3 energy=-11.120270126301726 pbc="F F F"
Tc       0.00000000       0.00000000       0.00000000       0.00000000       0.00000000       4.96306086
Tc       0.00000000       0.00000000       2.23757576       0.00000000       0.00000000      -4.96306086
2
Properties=species:S:1:pos:R:3:forces:R:3 energy=-10.82809911558912 pbc="F F F"
Tc       0.00000000       0.00000000       0.00000000       0.00000000       0.00000000       4.92890406
Tc       0.00000000       0.00000000       2.29636364       0.00000000       0.00000000      -4.92890406
2
Properties=species:S:1:pos:R:3:forces:R:3 energy=-10.545027770828376 pbc="F F F"
Tc       0.00000000       0.00000000       0.00000000       0.00000000       0.00000000       4.67585897
Tc       0.00000000       0.00000000       2.35515152       0.00000000       0.00000000      -4.67585897
2
Properties=species:S:1:pos:R:3:forces:R:3 energy=-10.280231895763462 pbc="F F F"
Tc       0.00000000       0.00000000       0.00000000       0.00000000       0.00000000       4.32441092
Tc       0.00000000       0.00000000       2.41393939       0.00000000       0.00000000      -4.32441092
2
Properties=species:S:1:pos:R:3:forces:R:3 energy=-10.036909234239443 pbc="F F F"
Tc       0.00000000       0.00000000       0.00000000       0.00000000       0.00000000       3.95469689
Tc       0.00000000       0.00000000       2.47272727       0.00000000       0.00000000      -3.95469689
2
Properties=species:S:1:pos:R:3:forces:R:3 energy=-9.814919563319437 pbc="F F F"
Tc       0.00000000       0.00000000       0.00000000       0.00000000       0.00000000       3.60089827
Tc       0.00000000       0.00000000       2.53151515       0.00000000       0.00000000      -3.60089827
2
Properties=species:S:1:pos:R:3:forces:R:3 energy=-9.613221102382077 pbc="F F F"
Tc       0.00000000       0.00000000       0.00000000       0.00000000       0.00000000       3.26237607
Tc       0.00000000       0.00000000       2.59030303       0.00000000       0.00000000      -3.26237607
2
Properties=species:S:1:pos:R:3:forces:R:3 energy=-9.431387737101268 pbc="F F F"
Tc       0.00000000       0.00000000       0.00000000       0.00000000       0.00000000       2.92163420
Tc       0.00000000       0.00000000       2.64909091       0.00000000       0.00000000      -2.92163420
2
Properties=species:S:1:pos:R:3:forces:R:3 energy=-9.27006936320707 pbc="F F F"
Tc       0.00000000       0.00000000       0.00000000       0.00000000       0.00000000       2.56306648
Tc       0.00000000       0.00000000       2.70787879       0.00000000       0.00000000      -2.56306648
2
Properties=species:S:1:pos:R:3:forces:R:3 energy=-9.130312022079867 pbc="F F F"
Tc       0.00000000       0.00000000       0.00000000       0.00000000       0.00000000       2.19160485
Tc       0.00000000       0.00000000       2.76666667       0.00000000       0.00000000      -2.19160485
2
Properties=species:S:1:pos:R:3:forces:R:3 energy=-9.011842755634785 pbc="F F F"
Tc       0.00000000       0.00000000       0.00000000       0.00000000       0.00000000       1.84890091
Tc       0.00000000       0.00000000       2.82545455       0.00000000       0.00000000      -1.84890091
2
Properties=species:S:1:pos:R:3:forces:R:3 energy=-8.911230382380099 pbc="F F F"
Tc       0.00000000       0.00000000       0.00000000       0.00000000       0.00000000       1.59037709
Tc       0.00000000       0.00000000       2.88424242       0.00000000       0.00000000      -1.59037709
2
Properties=species:S:1:pos:R:3:forces:R:3 energy=-8.82314299815995 pbc="F F F"
Tc       0.00000000       0.00000000       0.00000000       0.00000000       0.00000000       1.41811562
Tc       0.00000000       0.00000000       2.94303030       0.00000000       0.00000000      -1.41811562
2
Properties=species:S:1:pos:R:3:forces:R:3 energy=-8.743299411971831 pbc="F F F"
Tc       0.00000000       0.00000000       0.00000000       0.00000000       0.00000000       1.30845988
Tc       0.00000000       0.00000000       3.00181818       0.00000000       0.00000000      -1.30845988
2
Properties=species:S:1:pos:R:3:forces:R:3 energy=-8.667880172048925 pbc="F F F"
Tc       0.00000000       0.00000000       0.00000000       0.00000000       0.00000000       1.27150834
Tc       0.00000000       0.00000000       3.06060606       0.00000000       0.00000000      -1.27150834
2
Properties=species:S:1:pos:R:3:forces:R:3 energy=-8.591969246532724 pbc="F F F"
Tc       0.00000000       0.00000000       0.00000000       0.00000000       0.00000000       1.32717013
Tc       0.00000000       0.00000000       3.11939394       0.00000000       0.00000000      -1.32717013
2
Properties=species:S:1:pos:R:3:forces:R:3 energy=-8.51006098957193 pbc="F F F"
Tc       0.00000000       0.00000000       0.00000000       0.00000000       0.00000000       1.47234440
Tc       0.00000000       0.00000000       3.17818182       0.00000000       0.00000000      -1.47234440
2
Properties=species:S:1:pos:R:3:forces:R:3 energy=-8.417760100192883 pbc="F F F"
Tc       0.00000000       0.00000000       0.00000000       0.00000000       0.00000000       1.67279375
Tc       0.00000000       0.00000000       3.23696970       0.00000000       0.00000000      -1.67279375
2
Properties=species:S:1:pos:R:3:forces:R:3 energy=-8.313379909060545 pbc="F F F"
Tc       0.00000000       0.00000000       0.00000000       0.00000000       0.00000000       1.87327540
Tc       0.00000000       0.00000000       3.29575758       0.00000000       0.00000000      -1.87327540
2
Properties=species:S:1:pos:R:3:forces:R:3 energy=-8.198632765866808 pbc="F F F"
Tc       0.00000000       0.00000000       0.00000000       0.00000000       0.00000000       2.01694989
Tc       0.00000000       0.00000000       3.35454545       0.00000000       0.00000000      -2.01694989
2
Properties=species:S:1:pos:R:3:forces:R:3 energy=-8.078150884866638 pbc="F F F"
Tc       0.00000000       0.00000000       0.00000000       0.00000000       0.00000000       2.06383204
Tc       0.00000000       0.00000000       3.41333333       0.00000000       0.00000000      -2.06383204
2
Properties=species:S:1:pos:R:3:forces:R:3 energy=-7.958131131054115 pbc="F F F"
Tc       0.00000000       0.00000000       0.00000000       0.00000000       0.00000000       2.00171590
Tc       0.00000000       0.00000000       3.47212121       0.00000000       0.00000000      -2.00171590
2
Properties=species:S:1:pos:R:3:forces:R:3 energy=-7.844618103306421 pbc="F F F"
Tc       0.00000000       0.00000000       0.00000000       0.00000000       0.00000000       1.84746194
Tc       0.00000000       0.00000000       3.53090909       0.00000000       0.00000000      -1.84746194
2
Properties=species:S:1:pos:R:3:forces:R:3 energy=-7.7419850672543005 pbc="F F F"
Tc       0.00000000       0.00000000       0.00000000       0.00000000       0.00000000       1.63879168
Tc       0.00000000       0.00000000       3.58969697       0.00000000       0.00000000      -1.63879168
2
Properties=species:S:1:pos:R:3:forces:R:3 energy=-7.6521299618199885 pbc="F F F"
Tc       0.00000000       0.00000000       0.00000000       0.00000000       0.00000000       1.41990101
Tc       0.00000000       0.00000000       3.64848485       0.00000000       0.00000000      -1.41990101
2
Properties=species:S:1:pos:R:3:forces:R:3 energy=-7.574515249134043 pbc="F F F"
Tc       0.00000000       0.00000000       0.00000000       0.00000000       0.00000000       1.22719872
Tc       0.00000000       0.00000000       3.70727273       0.00000000       0.00000000      -1.22719872
2
Properties=species:S:1:pos:R:3:forces:R:3 energy=-7.506920146495249 pbc="F F F"
Tc       0.00000000       0.00000000       0.00000000       0.00000000       0.00000000       1.08086419
Tc       0.00000000       0.00000000       3.76606061       0.00000000       0.00000000      -1.08086419
2
Properties=species:S:1:pos:R:3:forces:R:3 energy=-7.446459042834587 pbc="F F F"
Tc       0.00000000       0.00000000       0.00000000       0.00000000       0.00000000       0.98373353
Tc       0.00000000       0.00000000       3.82484848       0.00000000       0.00000000      -0.98373353
2
Properties=species:S:1:pos:R:3:forces:R:3 energy=-7.390491188307651 pbc="F F F"
Tc       0.00000000       0.00000000       0.00000000       0.00000000       0.00000000       0.92545146
Tc       0.00000000       0.00000000       3.88363636       0.00000000       0.00000000      -0.92545146
2
Properties=species:S:1:pos:R:3:forces:R:3 energy=-7.337223365777463 pbc="F F F"
Tc       0.00000000       0.00000000       0.00000000       0.00000000       0.00000000       0.88879889
Tc       0.00000000       0.00000000       3.94242424       0.00000000       0.00000000      -0.88879889
2
Properties=species:S:1:pos:R:3:forces:R:3 energy=-7.28592732222297 pbc="F F F"
Tc       0.00000000       0.00000000       0.00000000       0.00000000       0.00000000       0.85551029
Tc       0.00000000       0.00000000       4.00121212       0.00000000       0.00000000      -0.85551029
2
Properties=species:S:1:pos:R:3:forces:R:3 energy=-7.236873125578492 pbc="F F F"
Tc       0.00000000       0.00000000       0.00000000       0.00000000       0.00000000       0.81033671
Tc       0.00000000       0.00000000       4.06000000       0.00000000       0.00000000      -0.81033671
2
Properties=species:S:1:pos:R:3:forces:R:3 energy=-7.191085424918149 pbc="F F F"
Tc       0.00000000       0.00000000       0.00000000       0.00000000       0.00000000       0.74322724
Tc       0.00000000       0.00000000       4.11878788       0.00000000       0.00000000      -0.74322724
2
Properties=species:S:1:pos:R:3:forces:R:3 energy=-7.150001087711916 pbc="F F F"
Tc       0.00000000       0.00000000       0.00000000       0.00000000       0.00000000       0.65009516
Tc       0.00000000       0.00000000       4.17757576       0.00000000       0.00000000      -0.65009516
2
Properties=species:S:1:pos:R:3:forces:R:3 energy=-7.115126157503899 pbc="F F F"
Tc       0.00000000       0.00000000       0.00000000       0.00000000       0.00000000       0.53278315
Tc       0.00000000       0.00000000       4.23636364       0.00000000       0.00000000      -0.53278315
2
Properties=species:S:1:pos:R:3:forces:R:3 energy=-7.087696339520056 pbc="F F F"
Tc       0.00000000       0.00000000       0.00000000       0.00000000       0.00000000       0.39835063
Tc       0.00000000       0.00000000       4.29515152       0.00000000       0.00000000      -0.39835063
2
Properties=species:S:1:pos:R:3:forces:R:3 energy=-7.068410729128939 pbc="F F F"
Tc       0.00000000       0.00000000       0.00000000       0.00000000       0.00000000       0.25781661
Tc       0.00000000       0.00000000       4.35393939       0.00000000       0.00000000      -0.25781661
2
Properties=species:S:1:pos:R:3:forces:R:3 energy=-7.057247995116953 pbc="F F F"
Tc       0.00000000       0.00000000       0.00000000       0.00000000       0.00000000       0.12422402
Tc       0.00000000       0.00000000       4.41272727       0.00000000       0.00000000      -0.12422402
2
Properties=species:S:1:pos:R:3:forces:R:3 energy=-7.053415777928785 pbc="F F F"
Tc       0.00000000       0.00000000       0.00000000       0.00000000       0.00000000       0.01040092
Tc       0.00000000       0.00000000       4.47151515       0.00000000       0.00000000      -0.01040092
2
Properties=species:S:1:pos:R:3:forces:R:3 energy=-7.055432268499159 pbc="F F F"
Tc       0.00000000       0.00000000       0.00000000       0.00000000       0.00000000      -0.07331982
Tc       0.00000000       0.00000000       4.53030303       0.00000000       0.00000000       0.07331982
2
Properties=species:S:1:pos:R:3:forces:R:3 energy=-7.061323161006105 pbc="F F F"
Tc       0.00000000       0.00000000       0.00000000       0.00000000       0.00000000      -0.12080697
Tc       0.00000000       0.00000000       4.58909091       0.00000000       0.00000000       0.12080697
2
Properties=species:S:1:pos:R:3:forces:R:3 energy=-7.068899802653495 pbc="F F F"
Tc       0.00000000       0.00000000       0.00000000       0.00000000       0.00000000      -0.13089724
Tc       0.00000000       0.00000000       4.64787879       0.00000000       0.00000000       0.13089724
2
Properties=species:S:1:pos:R:3:forces:R:3 energy=-7.076046517401173 pbc="F F F"
Tc       0.00000000       0.00000000       0.00000000       0.00000000       0.00000000      -0.10705990
Tc       0.00000000       0.00000000       4.70666667       0.00000000       0.00000000       0.10705990
2
Properties=species:S:1:pos:R:3:forces:R:3 energy=-7.080957403963256 pbc="F F F"
Tc       0.00000000       0.00000000       0.00000000       0.00000000       0.00000000      -0.05622270
Tc       0.00000000       0.00000000       4.76545455       0.00000000       0.00000000       0.05622270
2
Properties=species:S:1:pos:R:3:forces:R:3 energy=-7.082299401444949 pbc="F F F"
Tc       0.00000000       0.00000000       0.00000000       0.00000000       0.00000000       0.01284962
Tc       0.00000000       0.00000000       4.82424242       0.00000000       0.00000000      -0.01284962
2
Properties=species:S:1:pos:R:3:forces:R:3 energy=-7.079269288053982 pbc="F F F"
Tc       0.00000000       0.00000000       0.00000000       0.00000000       0.00000000       0.09102644
Tc       0.00000000       0.00000000       4.88303030       0.00000000       0.00000000      -0.09102644
2
Properties=species:S:1:pos:R:3:forces:R:3 energy=-7.071583025956373 pbc="F F F"
Tc       0.00000000       0.00000000       0.00000000       0.00000000       0.00000000       0.16991398
Tc       0.00000000       0.00000000       4.94181818       0.00000000       0.00000000      -0.16991398
2
Properties=species:S:1:pos:R:3:forces:R:3 energy=-7.059420015678432 pbc="F F F"
Tc       0.00000000       0.00000000       0.00000000       0.00000000       0.00000000       0.24228661
Tc       0.00000000       0.00000000       5.00060606       0.00000000       0.00000000      -0.24228661
2
Properties=species:S:1:pos:R:3:forces:R:3 energy=-7.043336845601926 pbc="F F F"
Tc       0.00000000       0.00000000       0.00000000       0.00000000       0.00000000       0.30239975
Tc       0.00000000       0.00000000       5.05939394       0.00000000       0.00000000      -0.30239975
2
Properties=species:S:1:pos:R:3:forces:R:3 energy=-7.024189377437959 pbc="F F F"
Tc       0.00000000       0.00000000       0.00000000       0.00000000       0.00000000       0.34603673
Tc       0.00000000       0.00000000       5.11818182       0.00000000       0.00000000      -0.34603673
2
Properties=species:S:1:pos:R:3:forces:R:3 energy=-7.003029383437419 pbc="F F F"
Tc       0.00000000       0.00000000       0.00000000       0.00000000       0.00000000       0.37045974
Tc       0.00000000       0.00000000       5.17696970       0.00000000       0.00000000      -0.37045974
2
Properties=species:S:1:pos:R:3:forces:R:3 energy=-6.981041288607868 pbc="F F F"
Tc       0.00000000       0.00000000       0.00000000       0.00000000       0.00000000       0.37409592
Tc       0.00000000       0.00000000       5.23575758       0.00000000       0.00000000      -0.37409592
2
Properties=species:S:1:pos:R:3:forces:R:3 energy=-6.959446641722968 pbc="F F F"
Tc       0.00000000       0.00000000       0.00000000       0.00000000       0.00000000       0.35745829
Tc       0.00000000       0.00000000       5.29454545       0.00000000       0.00000000      -0.35745829
2
Properties=species:S:1:pos:R:3:forces:R:3 energy=-6.939283151152896 pbc="F F F"
Tc       0.00000000       0.00000000       0.00000000       0.00000000       0.00000000       0.32730260
Tc       0.00000000       0.00000000       5.35333333       0.00000000       0.00000000      -0.32730260
2
Properties=species:S:1:pos:R:3:forces:R:3 energy=-6.9209544903983735 pbc="F F F"
Tc       0.00000000       0.00000000       0.00000000       0.00000000       0.00000000       0.29737499
Tc       0.00000000       0.00000000       5.41212121       0.00000000       0.00000000      -0.29737499
2
Properties=species:S:1:pos:R:3:forces:R:3 energy=-6.904181800084708 pbc="F F F"
Tc       0.00000000       0.00000000       0.00000000       0.00000000       0.00000000       0.27379298
Tc       0.00000000       0.00000000       5.47090909       0.00000000       0.00000000      -0.27379298
2
Properties=species:S:1:pos:R:3:forces:R:3 energy=-6.8888091609566615 pbc="F F F"
Tc       0.00000000       0.00000000       0.00000000       0.00000000       0.00000000       0.24782285
Tc       0.00000000       0.00000000       5.52969697       0.00000000       0.00000000      -0.24782285
2
Properties=species:S:1:pos:R:3:forces:R:3 energy=-6.875238065389483 pbc="F F F"
Tc       0.00000000       0.00000000       0.00000000       0.00000000       0.00000000       0.21249796
Tc       0.00000000       0.00000000       5.58848485       0.00000000       0.00000000      -0.21249796
2
Properties=species:S:1:pos:R:3:forces:R:3 energy=-6.863871513961462 pbc="F F F"
Tc       0.00000000       0.00000000       0.00000000       0.00000000       0.00000000       0.17544010
Tc       0.00000000       0.00000000       5.64727273       0.00000000       0.00000000      -0.17544010
2
Properties=species:S:1:pos:R:3:forces:R:3 energy=-6.854334887296095 pbc="F F F"
Tc       0.00000000       0.00000000       0.00000000       0.00000000       0.00000000       0.15224940
Tc       0.00000000       0.00000000       5.70606061       0.00000000       0.00000000      -0.15224940
2
Properties=species:S:1:pos:R:3:forces:R:3 energy=-6.845573380817372 pbc="F F F"
Tc       0.00000000       0.00000000       0.00000000       0.00000000       0.00000000       0.14736749
Tc       0.00000000       0.00000000       5.76484848       0.00000000       0.00000000      -0.14736749
2
Properties=species:S:1:pos:R:3:forces:R:3 energy=-6.837108476997292 pbc="F F F"
Tc       0.00000000       0.00000000       0.00000000       0.00000000       0.00000000       0.13655959
Tc       0.00000000       0.00000000       5.82363636       0.00000000       0.00000000      -0.13655959
2
Properties=species:S:1:pos:R:3:forces:R:3 energy=-6.830222442118966 pbc="F F F"
Tc       0.00000000       0.00000000       0.00000000       0.00000000       0.00000000       0.09346135
Tc       0.00000000       0.00000000       5.88242424       0.00000000       0.00000000      -0.09346135
2
Properties=species:S:1:pos:R:3:forces:R:3 energy=-6.826318128413555 pbc="F F F"
Tc       0.00000000       0.00000000       0.00000000       0.00000000       0.00000000       0.04102270
Tc       0.00000000       0.00000000       5.94121212       0.00000000       0.00000000      -0.04102270
2
Properties=species:S:1:pos:R:3:forces:R:3 energy=-6.824789392385247 pbc="F F F"
Tc       0.00000000       0.00000000       0.00000000       0.00000000       0.00000000       0.01818999
Tc       0.00000000       0.00000000       6.00000000       0.00000000       0.00000000      -0.01818999
