2
Properties=species:S:1:pos:R:3:forces:R:3 energy=19840.23160308977 pbc="F F F"
U        0.00000000       0.00000000       0.00000000       0.00000000       0.00000000 -357023.78125000
U        0.00000000       0.00000000       0.18000000       0.00000000       0.00000000  357023.78125000
2
Properties=species:S:1:pos:R:3:forces:R:3 energy=7493.399083558522 pbc="F F F"
U        0.00000000       0.00000000       0.00000000       0.00000000       0.00000000 -115042.37500000
U        0.00000000       0.00000000       0.23878788       0.00000000       0.00000000  115042.37500000
2
Properties=species:S:1:pos:R:3:forces:R:3 energy=3210.215001527272 pbc="F F F"
U        0.00000000       0.00000000       0.00000000       0.00000000       0.00000000  -43552.62500000
U        0.00000000       0.00000000       0.29757576       0.00000000       0.00000000   43552.62500000
2
Properties=species:S:1:pos:R:3:forces:R:3 energy=1511.8500112928966 pbc="F F F"
U        0.00000000       0.00000000       0.00000000       0.00000000       0.00000000  -18255.19726562
U        0.00000000       0.00000000       0.35636364       0.00000000       0.00000000   18255.19726562
2
Properties=species:S:1:pos:R:3:forces:R:3 energy=775.2206167616467 pbc="F F F"
U        0.00000000       0.00000000       0.00000000       0.00000000       0.00000000   -8256.58007812
U        0.00000000       0.00000000       0.41515152       0.00000000       0.00000000    8256.58007812
2
Properties=species:S:1:pos:R:3:forces:R:3 energy=432.3180593885998 pbc="F F F"
U        0.00000000       0.00000000       0.00000000       0.00000000       0.00000000   -3982.65332031
U        0.00000000       0.00000000       0.47393939       0.00000000       0.00000000    3982.65332031
2
Properties=species:S:1:pos:R:3:forces:R:3 energy=262.5304312401143 pbc="F F F"
U        0.00000000       0.00000000       0.00000000       0.00000000       0.00000000   -2036.58386230
U        0.00000000       0.00000000       0.53272727       0.00000000       0.00000000    2036.58386230
2
Properties=species:S:1:pos:R:3:forces:R:3 energy=173.5107626863553 pbc="F F F"
U        0.00000000       0.00000000       0.00000000       0.00000000       0.00000000   -1101.15563965
U        0.00000000       0.00000000       0.59151515       0.00000000       0.00000000    1101.15563965
2
Properties=species:S:1:pos:R:3:forces:R:3 energy=124.13441995093164 pbc="F F F"
U        0.00000000       0.00000000       0.00000000       0.00000000       0.00000000    -630.52191162
U        0.00000000       0.00000000       0.65030303       0.00000000       0.00000000     630.52191162
2
Properties=species:S:1:pos:R:3:forces:R:3 energy=95.0360084542295 pbc="F F F"
U        0.00000000       0.00000000       0.00000000       0.00000000       0.00000000    -385.32180786
U        0.00000000       0.00000000       0.70909091       0.00000000       0.00000000     385.32180786
2
Properties=species:S:1:pos:R:3:forces:R:3 energy=76.61641474456465 pbc="F F F"
U        0.00000000       0.00000000       0.00000000       0.00000000       0.00000000    -254.82592773
U        0.00000000       0.00000000       0.76787879       0.00000000       0.00000000     254.82592773
2
Properties=species:S:1:pos:R:3:forces:R:3 energy=63.9014948526748 pbc="F F F"
U        0.00000000       0.00000000       0.00000000       0.00000000       0.00000000    -185.00962830
U        0.00000000       0.00000000       0.82666667       0.00000000       0.00000000     185.00962830
2
Properties=species:S:1:pos:R:3:forces:R:3 energy=54.22987946750077 pbc="F F F"
U        0.00000000       0.00000000       0.00000000       0.00000000       0.00000000    -147.89846802
U        0.00000000       0.00000000       0.88545455       0.00000000       0.00000000     147.89846802
2
Properties=species:S:1:pos:R:3:forces:R:3 energy=46.19784774600095 pbc="F F F"
U        0.00000000       0.00000000       0.00000000       0.00000000       0.00000000    -126.93630981
U        0.00000000       0.00000000       0.94424242       0.00000000       0.00000000     126.93630981
2
Properties=species:S:1:pos:R:3:forces:R:3 energy=39.22233087853297 pbc="F F F"
U        0.00000000       0.00000000       0.00000000       0.00000000       0.00000000    -110.56562042
U        0.00000000       0.00000000       1.00303030       0.00000000       0.00000000     110.56562042
2
Properties=species:S:1:pos:R:3:forces:R:3 energy=33.13463153326166 pbc="F F F"
U        0.00000000       0.00000000       0.00000000       0.00000000       0.00000000     -97.89830017
U        0.00000000       0.00000000       1.06181818       0.00000000       0.00000000      97.89830017
2
Properties=species:S:1:pos:R:3:forces:R:3 energy=27.477386619538784 pbc="F F F"
U        0.00000000       0.00000000       0.00000000       0.00000000       0.00000000     -96.53069305
U        0.00000000       0.00000000       1.12060606       0.00000000       0.00000000      96.53069305
2
Properties=species:S:1:pos:R:3:forces:R:3 energy=21.668053781287185 pbc="F F F"
U        0.00000000       0.00000000       0.00000000       0.00000000       0.00000000    -101.16389465
U        0.00000000       0.00000000       1.17939394       0.00000000       0.00000000     101.16389465
2
Properties=species:S:1:pos:R:3:forces:R:3 energy=15.749635185121807 pbc="F F F"
U        0.00000000       0.00000000       0.00000000       0.00000000       0.00000000     -96.74489594
U        0.00000000       0.00000000       1.23818182       0.00000000       0.00000000      96.74489594
2
Properties=species:S:1:pos:R:3:forces:R:3 energy=10.551896188880734 pbc="F F F"
U        0.00000000       0.00000000       0.00000000       0.00000000       0.00000000     -79.71565247
U        0.00000000       0.00000000       1.29696970       0.00000000       0.00000000      79.71565247
2
Properties=species:S:1:pos:R:3:forces:R:3 energy=6.338736709767184 pbc="F F F"
U        0.00000000       0.00000000       0.00000000       0.00000000       0.00000000     -64.26395416
U        0.00000000       0.00000000       1.35575758       0.00000000       0.00000000      64.26395416
2
Properties=species:S:1:pos:R:3:forces:R:3 energy=2.9091365830251967 pbc="F F F"
U        0.00000000       0.00000000       0.00000000       0.00000000       0.00000000     -53.13358307
U        0.00000000       0.00000000       1.41454545       0.00000000       0.00000000      53.13358307
2
Properties=species:S:1:pos:R:3:forces:R:3 energy=0.021431010879183296 pbc="F F F"
U        0.00000000       0.00000000       0.00000000       0.00000000       0.00000000     -45.55903244
U        0.00000000       0.00000000       1.47333333       0.00000000       0.00000000      45.55903244
2
Properties=species:S:1:pos:R:3:forces:R:3 energy=-2.4835891313617786 pbc="F F F"
U        0.00000000       0.00000000       0.00000000       0.00000000       0.00000000     -39.82756805
U        0.00000000       0.00000000       1.53212121       0.00000000       0.00000000      39.82756805
2
Properties=species:S:1:pos:R:3:forces:R:3 energy=-4.663317744694765 pbc="F F F"
U        0.00000000       0.00000000       0.00000000       0.00000000       0.00000000     -34.20517349
U        0.00000000       0.00000000       1.59090909       0.00000000       0.00000000      34.20517349
2
Properties=species:S:1:pos:R:3:forces:R:3 energy=-6.484590665382572 pbc="F F F"
U        0.00000000       0.00000000       0.00000000       0.00000000       0.00000000     -27.63919449
U        0.00000000       0.00000000       1.64969697       0.00000000       0.00000000      27.63919449
2
Properties=species:S:1:pos:R:3:forces:R:3 energy=-7.922383289293372 pbc="F F F"
U        0.00000000       0.00000000       0.00000000       0.00000000       0.00000000     -21.55549049
U        0.00000000       0.00000000       1.70848485       0.00000000       0.00000000      21.55549049
2
Properties=species:S:1:pos:R:3:forces:R:3 energy=-9.062960036648365 pbc="F F F"
U        0.00000000       0.00000000       0.00000000       0.00000000       0.00000000     -17.62634468
U        0.00000000       0.00000000       1.76727273       0.00000000       0.00000000      17.62634468
2
Properties=species:S:1:pos:R:3:forces:R:3 energy=-10.029839635822263 pbc="F F F"
U        0.00000000       0.00000000       0.00000000       0.00000000       0.00000000     -15.46656609
U        0.00000000       0.00000000       1.82606061       0.00000000       0.00000000      15.46656609
2
Properties=species:S:1:pos:R:3:forces:R:3 energy=-10.894452052359412 pbc="F F F"
U        0.00000000       0.00000000       0.00000000       0.00000000       0.00000000     -13.98947334
U        0.00000000       0.00000000       1.88484848       0.00000000       0.00000000      13.98947334
2
Properties=species:S:1:pos:R:3:forces:R:3 energy=-11.675132349898691 pbc="F F F"
U        0.00000000       0.00000000       0.00000000       0.00000000       0.00000000     -12.55407047
U        0.00000000       0.00000000       1.94363636       0.00000000       0.00000000      12.55407047
2
Properties=species:S:1:pos:R:3:forces:R:3 energy=-12.368398359399974 pbc="F F F"
U        0.00000000       0.00000000       0.00000000       0.00000000       0.00000000     -11.01491928
U        0.00000000       0.00000000       2.00242424       0.00000000       0.00000000      11.01491928
2
Properties=species:S:1:pos:R:3:forces:R:3 energy=-12.967856293449993 pbc="F F F"
U        0.00000000       0.00000000       0.00000000       0.00000000       0.00000000      -9.34809494
U        0.00000000       0.00000000       2.06121212       0.00000000       0.00000000       9.34809494
2
Properties=species:S:1:pos:R:3:forces:R:3 energy=-13.461918666979617 pbc="F F F"
U        0.00000000       0.00000000       0.00000000       0.00000000       0.00000000      -7.39910746
U        0.00000000       0.00000000       2.12000000       0.00000000       0.00000000       7.39910746
2
Properties=species:S:1:pos:R:3:forces:R:3 energy=-13.830787660674318 pbc="F F F"
U        0.00000000       0.00000000       0.00000000       0.00000000       0.00000000      -5.10489798
U        0.00000000       0.00000000       2.17878788       0.00000000       0.00000000       5.10489798
2
Properties=species:S:1:pos:R:3:forces:R:3 energy=-14.060318937937526 pbc="F F F"
U        0.00000000       0.00000000       0.00000000       0.00000000       0.00000000      -2.72255707
U        0.00000000       0.00000000       2.23757576       0.00000000       0.00000000       2.72255707
2
Properties=species:S:1:pos:R:3:forces:R:3 energy=-14.156896778109594 pbc="F F F"
U        0.00000000       0.00000000       0.00000000       0.00000000       0.00000000      -0.64164644
U        0.00000000       0.00000000       2.29636364       0.00000000       0.00000000       0.64164644
2
Properties=species:S:1:pos:R:3:forces:R:3 energy=-14.147104333237516 pbc="F F F"
U        0.00000000       0.00000000       0.00000000       0.00000000       0.00000000       0.86697936
U        0.00000000       0.00000000       2.35515152       0.00000000       0.00000000      -0.86697936
2
Properties=species:S:1:pos:R:3:forces:R:3 energy=-14.067893904155104 pbc="F F F"
U        0.00000000       0.00000000       0.00000000       0.00000000       0.00000000       1.72124684
U        0.00000000       0.00000000       2.41393939       0.00000000       0.00000000      -1.72124684
2
Properties=species:S:1:pos:R:3:forces:R:3 energy=-13.955995610923027 pbc="F F F"
U        0.00000000       0.00000000       0.00000000       0.00000000       0.00000000       2.00466442
U        0.00000000       0.00000000       2.47272727       0.00000000       0.00000000      -2.00466442
2
Properties=species:S:1:pos:R:3:forces:R:3 energy=-13.839381906326667 pbc="F F F"
U        0.00000000       0.00000000       0.00000000       0.00000000       0.00000000       1.92327869
U        0.00000000       0.00000000       2.53151515       0.00000000       0.00000000      -1.92327869
2
Properties=species:S:1:pos:R:3:forces:R:3 energy=-13.731795303949546 pbc="F F F"
U        0.00000000       0.00000000       0.00000000       0.00000000       0.00000000       1.74229074
U        0.00000000       0.00000000       2.59030303       0.00000000       0.00000000      -1.74229074
2
Properties=species:S:1:pos:R:3:forces:R:3 energy=-13.63181976548623 pbc="F F F"
U        0.00000000       0.00000000       0.00000000       0.00000000       0.00000000       1.69556379
U        0.00000000       0.00000000       2.64909091       0.00000000       0.00000000      -1.69556379
2
Properties=species:S:1:pos:R:3:forces:R:3 energy=-13.527374059325133 pbc="F F F"
U        0.00000000       0.00000000       0.00000000       0.00000000       0.00000000       1.90237808
U        0.00000000       0.00000000       2.70787879       0.00000000       0.00000000      -1.90237808
2
Properties=species:S:1:pos:R:3:forces:R:3 energy=-13.403456828440417 pbc="F F F"
U        0.00000000       0.00000000       0.00000000       0.00000000       0.00000000       2.34556890
U        0.00000000       0.00000000       2.76666667       0.00000000       0.00000000      -2.34556890
2
Properties=species:S:1:pos:R:3:forces:R:3 energy=-13.249035908311122 pbc="F F F"
U        0.00000000       0.00000000       0.00000000       0.00000000       0.00000000       2.91852498
U        0.00000000       0.00000000       2.82545455       0.00000000       0.00000000      -2.91852498
2
Properties=species:S:1:pos:R:3:forces:R:3 energy=-13.060322953084073 pbc="F F F"
U        0.00000000       0.00000000       0.00000000       0.00000000       0.00000000       3.49131179
U        0.00000000       0.00000000       2.88424242       0.00000000       0.00000000      -3.49131179
2
Properties=species:S:1:pos:R:3:forces:R:3 energy=-12.840797518186276 pbc="F F F"
U        0.00000000       0.00000000       0.00000000       0.00000000       0.00000000       3.95007706
U        0.00000000       0.00000000       2.94303030       0.00000000       0.00000000      -3.95007706
2
Properties=species:S:1:pos:R:3:forces:R:3 energy=-12.599801610479588 pbc="F F F"
U        0.00000000       0.00000000       0.00000000       0.00000000       0.00000000       4.21058559
U        0.00000000       0.00000000       3.00181818       0.00000000       0.00000000      -4.21058559
2
Properties=species:S:1:pos:R:3:forces:R:3 energy=-12.350516146744443 pbc="F F F"
U        0.00000000       0.00000000       0.00000000       0.00000000       0.00000000       4.22886801
U        0.00000000       0.00000000       3.06060606       0.00000000       0.00000000      -4.22886801
2
Properties=species:S:1:pos:R:3:forces:R:3 energy=-12.107189496760974 pbc="F F F"
U        0.00000000       0.00000000       0.00000000       0.00000000       0.00000000       4.01437330
U        0.00000000       0.00000000       3.11939394       0.00000000       0.00000000      -4.01437330
2
Properties=species:S:1:pos:R:3:forces:R:3 energy=-11.881841904981394 pbc="F F F"
U        0.00000000       0.00000000       0.00000000       0.00000000       0.00000000       3.63168788
U        0.00000000       0.00000000       3.17818182       0.00000000       0.00000000      -3.63168788
2
Properties=species:S:1:pos:R:3:forces:R:3 energy=-11.68154900459668 pbc="F F F"
U        0.00000000       0.00000000       0.00000000       0.00000000       0.00000000       3.17954826
U        0.00000000       0.00000000       3.23696970       0.00000000       0.00000000      -3.17954826
2
Properties=species:S:1:pos:R:3:forces:R:3 energy=-11.507493092317462 pbc="F F F"
U        0.00000000       0.00000000       0.00000000       0.00000000       0.00000000       2.75210738
U        0.00000000       0.00000000       3.29575758       0.00000000       0.00000000      -2.75210738
2
Properties=species:S:1:pos:R:3:forces:R:3 energy=-11.356381251426129 pbc="F F F"
U        0.00000000       0.00000000       0.00000000       0.00000000       0.00000000       2.40377712
U        0.00000000       0.00000000       3.35454545       0.00000000       0.00000000      -2.40377712
2
Properties=species:S:1:pos:R:3:forces:R:3 energy=-11.223215994405573 pbc="F F F"
U        0.00000000       0.00000000       0.00000000       0.00000000       0.00000000       2.13853407
U        0.00000000       0.00000000       3.41333333       0.00000000       0.00000000      -2.13853407
2
Properties=species:S:1:pos:R:3:forces:R:3 energy=-11.103890413494744 pbc="F F F"
U        0.00000000       0.00000000       0.00000000       0.00000000       0.00000000       1.92676675
U        0.00000000       0.00000000       3.47212121       0.00000000       0.00000000      -1.92676675
2
Properties=species:S:1:pos:R:3:forces:R:3 energy=-10.996313769807788 pbc="F F F"
U        0.00000000       0.00000000       0.00000000       0.00000000       0.00000000       1.73410261
U        0.00000000       0.00000000       3.53090909       0.00000000       0.00000000      -1.73410261
2
Properties=species:S:1:pos:R:3:forces:R:3 energy=-10.8999751573199 pbc="F F F"
U        0.00000000       0.00000000       0.00000000       0.00000000       0.00000000       1.54363739
U        0.00000000       0.00000000       3.58969697       0.00000000       0.00000000      -1.54363739
2
Properties=species:S:1:pos:R:3:forces:R:3 energy=-10.814650114425987 pbc="F F F"
U        0.00000000       0.00000000       0.00000000       0.00000000       0.00000000       1.36232686
U        0.00000000       0.00000000       3.64848485       0.00000000       0.00000000      -1.36232686
2
Properties=species:S:1:pos:R:3:forces:R:3 energy=-10.73917553591042 pbc="F F F"
U        0.00000000       0.00000000       0.00000000       0.00000000       0.00000000       1.21280348
U        0.00000000       0.00000000       3.70727273       0.00000000       0.00000000      -1.21280348
2
Properties=species:S:1:pos:R:3:forces:R:3 energy=-10.670984495292528 pbc="F F F"
U        0.00000000       0.00000000       0.00000000       0.00000000       0.00000000       1.11729634
U        0.00000000       0.00000000       3.76606061       0.00000000       0.00000000      -1.11729634
2
Properties=species:S:1:pos:R:3:forces:R:3 energy=-10.606602950754343 pbc="F F F"
U        0.00000000       0.00000000       0.00000000       0.00000000       0.00000000       1.08258748
U        0.00000000       0.00000000       3.82484848       0.00000000       0.00000000      -1.08258748
2
Properties=species:S:1:pos:R:3:forces:R:3 energy=-10.542766770197819 pbc="F F F"
U        0.00000000       0.00000000       0.00000000       0.00000000       0.00000000       1.09496057
U        0.00000000       0.00000000       3.88363636       0.00000000       0.00000000      -1.09496057
2
Properties=species:S:1:pos:R:3:forces:R:3 energy=-10.477462177252733 pbc="F F F"
U        0.00000000       0.00000000       0.00000000       0.00000000       0.00000000       1.12777019
U        0.00000000       0.00000000       3.94242424       0.00000000       0.00000000      -1.12777019
2
Properties=species:S:1:pos:R:3:forces:R:3 energy=-10.41029557417084 pbc="F F F"
U        0.00000000       0.00000000       0.00000000       0.00000000       0.00000000       1.15451014
U        0.00000000       0.00000000       4.00121212       0.00000000       0.00000000      -1.15451014
2
Properties=species:S:1:pos:R:3:forces:R:3 energy=-10.342184785766202 pbc="F F F"
U        0.00000000       0.00000000       0.00000000       0.00000000       0.00000000       1.15791619
U        0.00000000       0.00000000       4.06000000       0.00000000       0.00000000      -1.15791619
2
Properties=species:S:1:pos:R:3:forces:R:3 energy=-10.274731446680311 pbc="F F F"
U        0.00000000       0.00000000       0.00000000       0.00000000       0.00000000       1.13211882
U        0.00000000       0.00000000       4.11878788       0.00000000       0.00000000      -1.13211882
2
Properties=species:S:1:pos:R:3:forces:R:3 energy=-10.209582204316867 pbc="F F F"
U        0.00000000       0.00000000       0.00000000       0.00000000       0.00000000       1.08061957
U        0.00000000       0.00000000       4.17757576       0.00000000       0.00000000      -1.08061957
2
Properties=species:S:1:pos:R:3:forces:R:3 energy=-10.14799377999704 pbc="F F F"
U        0.00000000       0.00000000       0.00000000       0.00000000       0.00000000       1.01291633
U        0.00000000       0.00000000       4.23636364       0.00000000       0.00000000      -1.01291633
2
Properties=species:S:1:pos:R:3:forces:R:3 energy=-10.090573677251374 pbc="F F F"
U        0.00000000       0.00000000       0.00000000       0.00000000       0.00000000       0.94074756
U        0.00000000       0.00000000       4.29515152       0.00000000       0.00000000      -0.94074756
2
Properties=species:S:1:pos:R:3:forces:R:3 energy=-10.037264910359418 pbc="F F F"
U        0.00000000       0.00000000       0.00000000       0.00000000       0.00000000       0.87457752
U        0.00000000       0.00000000       4.35393939       0.00000000       0.00000000      -0.87457752
2
Properties=species:S:1:pos:R:3:forces:R:3 energy=-9.987494821892613 pbc="F F F"
U        0.00000000       0.00000000       0.00000000       0.00000000       0.00000000       0.82101536
U        0.00000000       0.00000000       4.41272727       0.00000000       0.00000000      -0.82101536
2
Properties=species:S:1:pos:R:3:forces:R:3 energy=-9.940448888613401 pbc="F F F"
U        0.00000000       0.00000000       0.00000000       0.00000000       0.00000000       0.78182048
U        0.00000000       0.00000000       4.47151515       0.00000000       0.00000000      -0.78182048
2
Properties=species:S:1:pos:R:3:forces:R:3 energy=-9.895338672279912 pbc="F F F"
U        0.00000000       0.00000000       0.00000000       0.00000000       0.00000000       0.75442362
U        0.00000000       0.00000000       4.53030303       0.00000000       0.00000000      -0.75442362
2
Properties=species:S:1:pos:R:3:forces:R:3 energy=-9.851618405086102 pbc="F F F"
U        0.00000000       0.00000000       0.00000000       0.00000000       0.00000000       0.73356390
U        0.00000000       0.00000000       4.58909091       0.00000000       0.00000000      -0.73356390
2
Properties=species:S:1:pos:R:3:forces:R:3 energy=-9.809077521413018 pbc="F F F"
U        0.00000000       0.00000000       0.00000000       0.00000000       0.00000000       0.71338207
U        0.00000000       0.00000000       4.64787879       0.00000000       0.00000000      -0.71338207
2
Properties=species:S:1:pos:R:3:forces:R:3 energy=-9.767819670658195 pbc="F F F"
U        0.00000000       0.00000000       0.00000000       0.00000000       0.00000000       0.68930888
U        0.00000000       0.00000000       4.70666667       0.00000000       0.00000000      -0.68930888
2
Properties=species:S:1:pos:R:3:forces:R:3 energy=-9.728150234351473 pbc="F F F"
U        0.00000000       0.00000000       0.00000000       0.00000000       0.00000000       0.65927583
U        0.00000000       0.00000000       4.76545455       0.00000000       0.00000000      -0.65927583
2
Properties=species:S:1:pos:R:3:forces:R:3 energy=-9.690407589157434 pbc="F F F"
U        0.00000000       0.00000000       0.00000000       0.00000000       0.00000000       0.62397462
U        0.00000000       0.00000000       4.82424242       0.00000000       0.00000000      -0.62397462
2
Properties=species:S:1:pos:R:3:forces:R:3 energy=-9.654835308181367 pbc="F F F"
U        0.00000000       0.00000000       0.00000000       0.00000000       0.00000000       0.58622444
U        0.00000000       0.00000000       4.88303030       0.00000000       0.00000000      -0.58622444
2
Properties=species:S:1:pos:R:3:forces:R:3 energy=-9.621461959991525 pbc="F F F"
U        0.00000000       0.00000000       0.00000000       0.00000000       0.00000000       0.54955423
U        0.00000000       0.00000000       4.94181818       0.00000000       0.00000000      -0.54955423
2
Properties=species:S:1:pos:R:3:forces:R:3 energy=-9.590145924976357 pbc="F F F"
U        0.00000000       0.00000000       0.00000000       0.00000000       0.00000000       0.51656044
U        0.00000000       0.00000000       5.00060606       0.00000000       0.00000000      -0.51656044
2
Properties=species:S:1:pos:R:3:forces:R:3 energy=-9.560647022288551 pbc="F F F"
U        0.00000000       0.00000000       0.00000000       0.00000000       0.00000000       0.48747805
U        0.00000000       0.00000000       5.05939394       0.00000000       0.00000000      -0.48747805
2
Properties=species:S:1:pos:R:3:forces:R:3 energy=-9.532799901172568 pbc="F F F"
U        0.00000000       0.00000000       0.00000000       0.00000000       0.00000000       0.45989466
U        0.00000000       0.00000000       5.11818182       0.00000000       0.00000000      -0.45989466
2
Properties=species:S:1:pos:R:3:forces:R:3 energy=-9.506620884166317 pbc="F F F"
U        0.00000000       0.00000000       0.00000000       0.00000000       0.00000000       0.43005341
U        0.00000000       0.00000000       5.17696970       0.00000000       0.00000000      -0.43005341
2
Properties=species:S:1:pos:R:3:forces:R:3 energy=-9.48232988893913 pbc="F F F"
U        0.00000000       0.00000000       0.00000000       0.00000000       0.00000000       0.39561012
U        0.00000000       0.00000000       5.23575758       0.00000000       0.00000000      -0.39561012
2
Properties=species:S:1:pos:R:3:forces:R:3 energy=-9.46016713908933 pbc="F F F"
U        0.00000000       0.00000000       0.00000000       0.00000000       0.00000000       0.35827067
U        0.00000000       0.00000000       5.29454545       0.00000000       0.00000000      -0.35827067
2
Properties=species:S:1:pos:R:3:forces:R:3 energy=-9.44016152899131 pbc="F F F"
U        0.00000000       0.00000000       0.00000000       0.00000000       0.00000000       0.32296526
U        0.00000000       0.00000000       5.35333333       0.00000000       0.00000000      -0.32296526
2
Properties=species:S:1:pos:R:3:forces:R:3 energy=-9.4221542629128 pbc="F F F"
U        0.00000000       0.00000000       0.00000000       0.00000000       0.00000000       0.28928524
U        0.00000000       0.00000000       5.41212121       0.00000000       0.00000000      -0.28928524
2
Properties=species:S:1:pos:R:3:forces:R:3 energy=-9.40628610656285 pbc="F F F"
U        0.00000000       0.00000000       0.00000000       0.00000000       0.00000000       0.24918878
U        0.00000000       0.00000000       5.47090909       0.00000000       0.00000000      -0.24918878
2
Properties=species:S:1:pos:R:3:forces:R:3 energy=-9.392926815192393 pbc="F F F"
U        0.00000000       0.00000000       0.00000000       0.00000000       0.00000000       0.20551324
U        0.00000000       0.00000000       5.52969697       0.00000000       0.00000000      -0.20551324
2
Properties=species:S:1:pos:R:3:forces:R:3 energy=-9.382040794454023 pbc="F F F"
U        0.00000000       0.00000000       0.00000000       0.00000000       0.00000000       0.16574463
U        0.00000000       0.00000000       5.58848485       0.00000000       0.00000000      -0.16574463
2
Properties=species:S:1:pos:R:3:forces:R:3 energy=-9.373302444309127 pbc="F F F"
U        0.00000000       0.00000000       0.00000000       0.00000000       0.00000000       0.13337448
U        0.00000000       0.00000000       5.64727273       0.00000000       0.00000000      -0.13337448
2
Properties=species:S:1:pos:R:3:forces:R:3 energy=-9.366069329434142 pbc="F F F"
U        0.00000000       0.00000000       0.00000000       0.00000000       0.00000000       0.11625387
U        0.00000000       0.00000000       5.70606061       0.00000000       0.00000000      -0.11625387
2
Properties=species:S:1:pos:R:3:forces:R:3 energy=-9.3590751150976 pbc="F F F"
U        0.00000000       0.00000000       0.00000000       0.00000000       0.00000000       0.12588158
U        0.00000000       0.00000000       5.76484848       0.00000000       0.00000000      -0.12588158
2
Properties=species:S:1:pos:R:3:forces:R:3 energy=-9.351147588885718 pbc="F F F"
U        0.00000000       0.00000000       0.00000000       0.00000000       0.00000000       0.13981234
U        0.00000000       0.00000000       5.82363636       0.00000000       0.00000000      -0.13981234
2
Properties=species:S:1:pos:R:3:forces:R:3 energy=-9.343578401994497 pbc="F F F"
U        0.00000000       0.00000000       0.00000000       0.00000000       0.00000000       0.11031010
U        0.00000000       0.00000000       5.88242424       0.00000000       0.00000000      -0.11031010
2
Properties=species:S:1:pos:R:3:forces:R:3 energy=-9.338664058399395 pbc="F F F"
U        0.00000000       0.00000000       0.00000000       0.00000000       0.00000000       0.05728061
U        0.00000000       0.00000000       5.94121212       0.00000000       0.00000000      -0.05728061
2
Properties=species:S:1:pos:R:3:forces:R:3 energy=-9.336243915527835 pbc="F F F"
U        0.00000000       0.00000000       0.00000000       0.00000000       0.00000000       0.03283592
U        0.00000000       0.00000000       6.00000000       0.00000000       0.00000000      -0.03283592
