2
Properties=species:S:1:pos:R:3:forces:R:3 energy=4584.740875328955 pbc="F F F"
Zn       0.00000000       0.00000000       0.00000000       0.00000000       0.00000000  -65861.70312500
Zn       0.00000000       0.00000000       0.18000000       0.00000000       0.00000000   65861.70312500
2
Properties=species:S:1:pos:R:3:forces:R:3 energy=2198.0135804070796 pbc="F F F"
Zn       0.00000000       0.00000000       0.00000000       0.00000000       0.00000000  -23757.00390625
Zn       0.00000000       0.00000000       0.23878788       0.00000000       0.00000000   23757.00390625
2
Properties=species:S:1:pos:R:3:forces:R:3 energy=1269.1981507227472 pbc="F F F"
Zn       0.00000000       0.00000000       0.00000000       0.00000000       0.00000000  -10106.66015625
Zn       0.00000000       0.00000000       0.29757576       0.00000000       0.00000000   10106.66015625
2
Properties=species:S:1:pos:R:3:forces:R:3 energy=853.4565125423213 pbc="F F F"
Zn       0.00000000       0.00000000       0.00000000       0.00000000       0.00000000   -4799.76074219
Zn       0.00000000       0.00000000       0.35636364       0.00000000       0.00000000    4799.76074219
2
Properties=species:S:1:pos:R:3:forces:R:3 energy=648.0162049314695 pbc="F F F"
Zn       0.00000000       0.00000000       0.00000000       0.00000000       0.00000000   -2491.14453125
Zn       0.00000000       0.00000000       0.41515152       0.00000000       0.00000000    2491.14453125
2
Properties=species:S:1:pos:R:3:forces:R:3 energy=536.7083436255192 pbc="F F F"
Zn       0.00000000       0.00000000       0.00000000       0.00000000       0.00000000   -1430.59167480
Zn       0.00000000       0.00000000       0.47393939       0.00000000       0.00000000    1430.59167480
2
Properties=species:S:1:pos:R:3:forces:R:3 energy=468.6021424853225 pbc="F F F"
Zn       0.00000000       0.00000000       0.00000000       0.00000000       0.00000000    -953.45239258
Zn       0.00000000       0.00000000       0.53272727       0.00000000       0.00000000     953.45239258
2
Properties=species:S:1:pos:R:3:forces:R:3 energy=418.79864522155447 pbc="F F F"
Zn       0.00000000       0.00000000       0.00000000       0.00000000       0.00000000    -777.02642822
Zn       0.00000000       0.00000000       0.59151515       0.00000000       0.00000000     777.02642822
2
Properties=species:S:1:pos:R:3:forces:R:3 energy=374.06622344158916 pbc="F F F"
Zn       0.00000000       0.00000000       0.00000000       0.00000000       0.00000000    -764.24090576
Zn       0.00000000       0.00000000       0.65030303       0.00000000       0.00000000     764.24090576
2
Properties=species:S:1:pos:R:3:forces:R:3 energy=327.48062178066834 pbc="F F F"
Zn       0.00000000       0.00000000       0.00000000       0.00000000       0.00000000    -825.73449707
Zn       0.00000000       0.00000000       0.70909091       0.00000000       0.00000000     825.73449707
2
Properties=species:S:1:pos:R:3:forces:R:3 energy=276.6932684867909 pbc="F F F"
Zn       0.00000000       0.00000000       0.00000000       0.00000000       0.00000000    -904.13323975
Zn       0.00000000       0.00000000       0.76787879       0.00000000       0.00000000     904.13323975
2
Properties=species:S:1:pos:R:3:forces:R:3 energy=222.11578468855285 pbc="F F F"
Zn       0.00000000       0.00000000       0.00000000       0.00000000       0.00000000    -936.45349121
Zn       0.00000000       0.00000000       0.82666667       0.00000000       0.00000000     936.45349121
2
Properties=species:S:1:pos:R:3:forces:R:3 energy=168.88084558536303 pbc="F F F"
Zn       0.00000000       0.00000000       0.00000000       0.00000000       0.00000000    -856.34729004
Zn       0.00000000       0.00000000       0.88545455       0.00000000       0.00000000     856.34729004
2
Properties=species:S:1:pos:R:3:forces:R:3 energy=122.99164794104739 pbc="F F F"
Zn       0.00000000       0.00000000       0.00000000       0.00000000       0.00000000    -696.33251953
Zn       0.00000000       0.00000000       0.94424242       0.00000000       0.00000000     696.33251953
2
Properties=species:S:1:pos:R:3:forces:R:3 energy=87.51866453941533 pbc="F F F"
Zn       0.00000000       0.00000000       0.00000000       0.00000000       0.00000000    -507.01077271
Zn       0.00000000       0.00000000       1.00303030       0.00000000       0.00000000     507.01077271
2
Properties=species:S:1:pos:R:3:forces:R:3 energy=63.328766320782414 pbc="F F F"
Zn       0.00000000       0.00000000       0.00000000       0.00000000       0.00000000    -327.45846558
Zn       0.00000000       0.00000000       1.06181818       0.00000000       0.00000000     327.45846558
2
Properties=species:S:1:pos:R:3:forces:R:3 energy=46.868391209541045 pbc="F F F"
Zn       0.00000000       0.00000000       0.00000000       0.00000000       0.00000000    -246.04609680
Zn       0.00000000       0.00000000       1.12060606       0.00000000       0.00000000     246.04609680
2
Properties=species:S:1:pos:R:3:forces:R:3 energy=34.037292877618164 pbc="F F F"
Zn       0.00000000       0.00000000       0.00000000       0.00000000       0.00000000    -187.76565552
Zn       0.00000000       0.00000000       1.17939394       0.00000000       0.00000000     187.76565552
2
Properties=species:S:1:pos:R:3:forces:R:3 energy=24.91100245758603 pbc="F F F"
Zn       0.00000000       0.00000000       0.00000000       0.00000000       0.00000000    -125.36469269
Zn       0.00000000       0.00000000       1.23818182       0.00000000       0.00000000     125.36469269
2
Properties=species:S:1:pos:R:3:forces:R:3 energy=18.742075929661144 pbc="F F F"
Zn       0.00000000       0.00000000       0.00000000       0.00000000       0.00000000     -88.90274048
Zn       0.00000000       0.00000000       1.29696970       0.00000000       0.00000000      88.90274048
2
Properties=species:S:1:pos:R:3:forces:R:3 energy=14.228280725764153 pbc="F F F"
Zn       0.00000000       0.00000000       0.00000000       0.00000000       0.00000000     -64.70398712
Zn       0.00000000       0.00000000       1.35575758       0.00000000       0.00000000      64.70398712
2
Properties=species:S:1:pos:R:3:forces:R:3 energy=11.113210248738945 pbc="F F F"
Zn       0.00000000       0.00000000       0.00000000       0.00000000       0.00000000     -42.31001663
Zn       0.00000000       0.00000000       1.41454545       0.00000000       0.00000000      42.31001663
2
Properties=species:S:1:pos:R:3:forces:R:3 energy=9.069811640761246 pbc="F F F"
Zn       0.00000000       0.00000000       0.00000000       0.00000000       0.00000000     -28.79178047
Zn       0.00000000       0.00000000       1.47333333       0.00000000       0.00000000      28.79178047
2
Properties=species:S:1:pos:R:3:forces:R:3 energy=7.586291999653215 pbc="F F F"
Zn       0.00000000       0.00000000       0.00000000       0.00000000       0.00000000     -22.47473907
Zn       0.00000000       0.00000000       1.53212121       0.00000000       0.00000000      22.47473907
2
Properties=species:S:1:pos:R:3:forces:R:3 energy=6.370252178743164 pbc="F F F"
Zn       0.00000000       0.00000000       0.00000000       0.00000000       0.00000000     -19.15615463
Zn       0.00000000       0.00000000       1.59090909       0.00000000       0.00000000      19.15615463
2
Properties=species:S:1:pos:R:3:forces:R:3 energy=5.317796678542755 pbc="F F F"
Zn       0.00000000       0.00000000       0.00000000       0.00000000       0.00000000     -16.71178246
Zn       0.00000000       0.00000000       1.64969697       0.00000000       0.00000000      16.71178246
2
Properties=species:S:1:pos:R:3:forces:R:3 energy=4.401385870350276 pbc="F F F"
Zn       0.00000000       0.00000000       0.00000000       0.00000000       0.00000000     -14.48711681
Zn       0.00000000       0.00000000       1.70848485       0.00000000       0.00000000      14.48711681
2
Properties=species:S:1:pos:R:3:forces:R:3 energy=3.6117847768948153 pbc="F F F"
Zn       0.00000000       0.00000000       0.00000000       0.00000000       0.00000000     -12.40180397
Zn       0.00000000       0.00000000       1.76727273       0.00000000       0.00000000      12.40180397
2
Properties=species:S:1:pos:R:3:forces:R:3 energy=2.939726830939615 pbc="F F F"
Zn       0.00000000       0.00000000       0.00000000       0.00000000       0.00000000     -10.49433994
Zn       0.00000000       0.00000000       1.82606061       0.00000000       0.00000000      10.49433994
2
Properties=species:S:1:pos:R:3:forces:R:3 energy=2.3739974850781165 pbc="F F F"
Zn       0.00000000       0.00000000       0.00000000       0.00000000       0.00000000      -8.78555012
Zn       0.00000000       0.00000000       1.88484848       0.00000000       0.00000000       8.78555012
2
Properties=species:S:1:pos:R:3:forces:R:3 energy=1.9028580698229587 pbc="F F F"
Zn       0.00000000       0.00000000       0.00000000       0.00000000       0.00000000      -7.27570438
Zn       0.00000000       0.00000000       1.94363636       0.00000000       0.00000000       7.27570438
2
Properties=species:S:1:pos:R:3:forces:R:3 energy=1.5147137017363126 pbc="F F F"
Zn       0.00000000       0.00000000       0.00000000       0.00000000       0.00000000      -5.96174240
Zn       0.00000000       0.00000000       2.00242424       0.00000000       0.00000000       5.96174240
2
Properties=species:S:1:pos:R:3:forces:R:3 energy=1.198104972441368 pbc="F F F"
Zn       0.00000000       0.00000000       0.00000000       0.00000000       0.00000000      -4.84144735
Zn       0.00000000       0.00000000       2.06121212       0.00000000       0.00000000       4.84144735
2
Properties=species:S:1:pos:R:3:forces:R:3 energy=0.9418170128424417 pbc="F F F"
Zn       0.00000000       0.00000000       0.00000000       0.00000000       0.00000000      -3.90761209
Zn       0.00000000       0.00000000       2.12000000       0.00000000       0.00000000       3.90761209
2
Properties=species:S:1:pos:R:3:forces:R:3 energy=0.7353160469260186 pbc="F F F"
Zn       0.00000000       0.00000000       0.00000000       0.00000000       0.00000000      -3.14440513
Zn       0.00000000       0.00000000       2.17878788       0.00000000       0.00000000       3.14440513
2
Properties=species:S:1:pos:R:3:forces:R:3 energy=0.5691956896129554 pbc="F F F"
Zn       0.00000000       0.00000000       0.00000000       0.00000000       0.00000000      -2.52993345
Zn       0.00000000       0.00000000       2.23757576       0.00000000       0.00000000       2.52993345
2
Properties=species:S:1:pos:R:3:forces:R:3 energy=0.43540077204553357 pbc="F F F"
Zn       0.00000000       0.00000000       0.00000000       0.00000000       0.00000000      -2.04085875
Zn       0.00000000       0.00000000       2.29636364       0.00000000       0.00000000       2.04085875
2
Properties=species:S:1:pos:R:3:forces:R:3 energy=0.32721590928923977 pbc="F F F"
Zn       0.00000000       0.00000000       0.00000000       0.00000000       0.00000000      -1.65518749
Zn       0.00000000       0.00000000       2.35515152       0.00000000       0.00000000       1.65518749
2
Properties=species:S:1:pos:R:3:forces:R:3 energy=0.2391566194971848 pbc="F F F"
Zn       0.00000000       0.00000000       0.00000000       0.00000000       0.00000000      -1.35296845
Zn       0.00000000       0.00000000       2.41393939       0.00000000       0.00000000       1.35296845
2
Properties=species:S:1:pos:R:3:forces:R:3 energy=0.16687145982068116 pbc="F F F"
Zn       0.00000000       0.00000000       0.00000000       0.00000000       0.00000000      -1.11540389
Zn       0.00000000       0.00000000       2.47272727       0.00000000       0.00000000       1.11540389
2
Properties=species:S:1:pos:R:3:forces:R:3 energy=0.10713613932822233 pbc="F F F"
Zn       0.00000000       0.00000000       0.00000000       0.00000000       0.00000000      -0.92240262
Zn       0.00000000       0.00000000       2.53151515       0.00000000       0.00000000       0.92240262
2
Properties=species:S:1:pos:R:3:forces:R:3 energy=0.05798143007209216 pbc="F F F"
Zn       0.00000000       0.00000000       0.00000000       0.00000000       0.00000000      -0.75199652
Zn       0.00000000       0.00000000       2.59030303       0.00000000       0.00000000       0.75199652
2
Properties=species:S:1:pos:R:3:forces:R:3 energy=0.018563272427094483 pbc="F F F"
Zn       0.00000000       0.00000000       0.00000000       0.00000000       0.00000000      -0.59039485
Zn       0.00000000       0.00000000       2.64909091       0.00000000       0.00000000       0.59039485
2
Properties=species:S:1:pos:R:3:forces:R:3 energy=-0.01170347982553891 pbc="F F F"
Zn       0.00000000       0.00000000       0.00000000       0.00000000       0.00000000      -0.44264090
Zn       0.00000000       0.00000000       2.70787879       0.00000000       0.00000000       0.44264090
2
Properties=species:S:1:pos:R:3:forces:R:3 energy=-0.03395465251768909 pbc="F F F"
Zn       0.00000000       0.00000000       0.00000000       0.00000000       0.00000000      -0.31866714
Zn       0.00000000       0.00000000       2.76666667       0.00000000       0.00000000       0.31866714
2
Properties=species:S:1:pos:R:3:forces:R:3 energy=-0.049660532861655324 pbc="F F F"
Zn       0.00000000       0.00000000       0.00000000       0.00000000       0.00000000      -0.21957773
Zn       0.00000000       0.00000000       2.82545455       0.00000000       0.00000000       0.21957773
2
Properties=species:S:1:pos:R:3:forces:R:3 energy=-0.06020718610421748 pbc="F F F"
Zn       0.00000000       0.00000000       0.00000000       0.00000000       0.00000000      -0.14277460
Zn       0.00000000       0.00000000       2.88424242       0.00000000       0.00000000       0.14277460
2
Properties=species:S:1:pos:R:3:forces:R:3 energy=-0.06685221839932448 pbc="F F F"
Zn       0.00000000       0.00000000       0.00000000       0.00000000       0.00000000      -0.08662661
Zn       0.00000000       0.00000000       2.94303030       0.00000000       0.00000000       0.08662661
2
Properties=species:S:1:pos:R:3:forces:R:3 energy=-0.0707672268721163 pbc="F F F"
Zn       0.00000000       0.00000000       0.00000000       0.00000000       0.00000000      -0.04955042
Zn       0.00000000       0.00000000       3.00181818       0.00000000       0.00000000       0.04955042
2
Properties=species:S:1:pos:R:3:forces:R:3 energy=-0.07299445907030871 pbc="F F F"
Zn       0.00000000       0.00000000       0.00000000       0.00000000       0.00000000      -0.02857089
Zn       0.00000000       0.00000000       3.06060606       0.00000000       0.00000000       0.02857089
2
Properties=species:S:1:pos:R:3:forces:R:3 energy=-0.07435544998407977 pbc="F F F"
Zn       0.00000000       0.00000000       0.00000000       0.00000000       0.00000000      -0.01925412
Zn       0.00000000       0.00000000       3.11939394       0.00000000       0.00000000       0.01925412
2
Properties=species:S:1:pos:R:3:forces:R:3 energy=-0.0753879963742126 pbc="F F F"
Zn       0.00000000       0.00000000       0.00000000       0.00000000       0.00000000      -0.01658495
Zn       0.00000000       0.00000000       3.17818182       0.00000000       0.00000000       0.01658495
2
Properties=species:S:1:pos:R:3:forces:R:3 energy=-0.0763464171650153 pbc="F F F"
Zn       0.00000000       0.00000000       0.00000000       0.00000000       0.00000000      -0.01605425
Zn       0.00000000       0.00000000       3.23696970       0.00000000       0.00000000       0.01605425
2
Properties=species:S:1:pos:R:3:forces:R:3 energy=-0.07725394075470074 pbc="F F F"
Zn       0.00000000       0.00000000       0.00000000       0.00000000       0.00000000      -0.01446125
Zn       0.00000000       0.00000000       3.29575758       0.00000000       0.00000000       0.01446125
2
Properties=species:S:1:pos:R:3:forces:R:3 energy=-0.07799356832311438 pbc="F F F"
Zn       0.00000000       0.00000000       0.00000000       0.00000000       0.00000000      -0.01020099
Zn       0.00000000       0.00000000       3.35454545       0.00000000       0.00000000       0.01020099
2
Properties=species:S:1:pos:R:3:forces:R:3 energy=-0.0783964407349571 pbc="F F F"
Zn       0.00000000       0.00000000       0.00000000       0.00000000       0.00000000      -0.00307696
Zn       0.00000000       0.00000000       3.41333333       0.00000000       0.00000000       0.00307696
2
Properties=species:S:1:pos:R:3:forces:R:3 energy=-0.07831327027331123 pbc="F F F"
Zn       0.00000000       0.00000000       0.00000000       0.00000000       0.00000000       0.00616696
Zn       0.00000000       0.00000000       3.47212121       0.00000000       0.00000000      -0.00616696
2
Properties=species:S:1:pos:R:3:forces:R:3 energy=-0.07765276219535026 pbc="F F F"
Zn       0.00000000       0.00000000       0.00000000       0.00000000       0.00000000       0.01636462
Zn       0.00000000       0.00000000       3.53090909       0.00000000       0.00000000      -0.01636462
2
Properties=species:S:1:pos:R:3:forces:R:3 energy=-0.07639392757773836 pbc="F F F"
Zn       0.00000000       0.00000000       0.00000000       0.00000000       0.00000000       0.02633917
Zn       0.00000000       0.00000000       3.58969697       0.00000000       0.00000000      -0.02633917
2
Properties=species:S:1:pos:R:3:forces:R:3 energy=-0.07457902894848971 pbc="F F F"
Zn       0.00000000       0.00000000       0.00000000       0.00000000       0.00000000       0.03514919
Zn       0.00000000       0.00000000       3.64848485       0.00000000       0.00000000      -0.03514919
2
Properties=species:S:1:pos:R:3:forces:R:3 energy=-0.07229629476299704 pbc="F F F"
Zn       0.00000000       0.00000000       0.00000000       0.00000000       0.00000000       0.04218430
Zn       0.00000000       0.00000000       3.70727273       0.00000000       0.00000000      -0.04218430
2
Properties=species:S:1:pos:R:3:forces:R:3 energy=-0.06965962755753509 pbc="F F F"
Zn       0.00000000       0.00000000       0.00000000       0.00000000       0.00000000       0.04715641
Zn       0.00000000       0.00000000       3.76606061       0.00000000       0.00000000      -0.04715641
2
Properties=species:S:1:pos:R:3:forces:R:3 energy=-0.06679298417426677 pbc="F F F"
Zn       0.00000000       0.00000000       0.00000000       0.00000000       0.00000000       0.05002967
Zn       0.00000000       0.00000000       3.82484848       0.00000000       0.00000000      -0.05002967
2
Properties=species:S:1:pos:R:3:forces:R:3 energy=-0.0638160972677432 pbc="F F F"
Zn       0.00000000       0.00000000       0.00000000       0.00000000       0.00000000       0.05093344
Zn       0.00000000       0.00000000       3.88363636       0.00000000       0.00000000      -0.05093344
2
Properties=species:S:1:pos:R:3:forces:R:3 energy=-0.06083887634406408 pbc="F F F"
Zn       0.00000000       0.00000000       0.00000000       0.00000000       0.00000000       0.05008066
Zn       0.00000000       0.00000000       3.94242424       0.00000000       0.00000000      -0.05008066
2
Properties=species:S:1:pos:R:3:forces:R:3 energy=-0.05795744624211091 pbc="F F F"
Zn       0.00000000       0.00000000       0.00000000       0.00000000       0.00000000       0.04771785
Zn       0.00000000       0.00000000       4.00121212       0.00000000       0.00000000      -0.04771785
2
Properties=species:S:1:pos:R:3:forces:R:3 energy=-0.055252822779591884 pbc="F F F"
Zn       0.00000000       0.00000000       0.00000000       0.00000000       0.00000000       0.04411124
Zn       0.00000000       0.00000000       4.06000000       0.00000000       0.00000000      -0.04411124
2
Properties=species:S:1:pos:R:3:forces:R:3 energy=-0.05278961736092284 pbc="F F F"
Zn       0.00000000       0.00000000       0.00000000       0.00000000       0.00000000       0.03955972
Zn       0.00000000       0.00000000       4.11878788       0.00000000       0.00000000      -0.03955972
2
Properties=species:S:1:pos:R:3:forces:R:3 energy=-0.05061330073824906 pbc="F F F"
Zn       0.00000000       0.00000000       0.00000000       0.00000000       0.00000000       0.03441323
Zn       0.00000000       0.00000000       4.17757576       0.00000000       0.00000000      -0.03441323
2
Properties=species:S:1:pos:R:3:forces:R:3 energy=-0.04874734582450342 pbc="F F F"
Zn       0.00000000       0.00000000       0.00000000       0.00000000       0.00000000       0.02907071
Zn       0.00000000       0.00000000       4.23636364       0.00000000       0.00000000      -0.02907071
2
Properties=species:S:1:pos:R:3:forces:R:3 energy=-0.04719100065124704 pbc="F F F"
Zn       0.00000000       0.00000000       0.00000000       0.00000000       0.00000000       0.02394436
Zn       0.00000000       0.00000000       4.29515152       0.00000000       0.00000000      -0.02394436
2
Properties=species:S:1:pos:R:3:forces:R:3 energy=-0.04592045807006116 pbc="F F F"
Zn       0.00000000       0.00000000       0.00000000       0.00000000       0.00000000       0.01940333
Zn       0.00000000       0.00000000       4.35393939       0.00000000       0.00000000      -0.01940333
2
Properties=species:S:1:pos:R:3:forces:R:3 energy=-0.04489282218249574 pbc="F F F"
Zn       0.00000000       0.00000000       0.00000000       0.00000000       0.00000000       0.01571618
Zn       0.00000000       0.00000000       4.41272727       0.00000000       0.00000000      -0.01571618
2
Properties=species:S:1:pos:R:3:forces:R:3 energy=-0.04405312882662368 pbc="F F F"
Zn       0.00000000       0.00000000       0.00000000       0.00000000       0.00000000       0.01301643
Zn       0.00000000       0.00000000       4.47151515       0.00000000       0.00000000      -0.01301643
2
Properties=species:S:1:pos:R:3:forces:R:3 energy=-0.04334311019414779 pbc="F F F"
Zn       0.00000000       0.00000000       0.00000000       0.00000000       0.00000000       0.01129707
Zn       0.00000000       0.00000000       4.53030303       0.00000000       0.00000000      -0.01129707
2
Properties=species:S:1:pos:R:3:forces:R:3 energy=-0.04270818607210075 pbc="F F F"
Zn       0.00000000       0.00000000       0.00000000       0.00000000       0.00000000       0.01043173
Zn       0.00000000       0.00000000       4.58909091       0.00000000       0.00000000      -0.01043173
2
Properties=species:S:1:pos:R:3:forces:R:3 energy=-0.042103862586400864 pbc="F F F"
Zn       0.00000000       0.00000000       0.00000000       0.00000000       0.00000000       0.01021259
Zn       0.00000000       0.00000000       4.64787879       0.00000000       0.00000000      -0.01021259
2
Properties=species:S:1:pos:R:3:forces:R:3 energy=-0.04149944014436814 pbc="F F F"
Zn       0.00000000       0.00000000       0.00000000       0.00000000       0.00000000       0.01040059
Zn       0.00000000       0.00000000       4.70666667       0.00000000       0.00000000      -0.01040059
2
Properties=species:S:1:pos:R:3:forces:R:3 energy=-0.04087731411984506 pbc="F F F"
Zn       0.00000000       0.00000000       0.00000000       0.00000000       0.00000000       0.01077981
Zn       0.00000000       0.00000000       4.76545455       0.00000000       0.00000000      -0.01077981
2
Properties=species:S:1:pos:R:3:forces:R:3 energy=-0.040230935181518754 pbc="F F F"
Zn       0.00000000       0.00000000       0.00000000       0.00000000       0.00000000       0.01121645
Zn       0.00000000       0.00000000       4.82424242       0.00000000       0.00000000      -0.01121645
2
Properties=species:S:1:pos:R:3:forces:R:3 energy=-0.03955753195157683 pbc="F F F"
Zn       0.00000000       0.00000000       0.00000000       0.00000000       0.00000000       0.01170927
Zn       0.00000000       0.00000000       4.88303030       0.00000000       0.00000000      -0.01170927
2
Properties=species:S:1:pos:R:3:forces:R:3 energy=-0.038850177442548726 pbc="F F F"
Zn       0.00000000       0.00000000       0.00000000       0.00000000       0.00000000       0.01241408
Zn       0.00000000       0.00000000       4.94181818       0.00000000       0.00000000      -0.01241408
2
Properties=species:S:1:pos:R:3:forces:R:3 energy=-0.03808848621099001 pbc="F F F"
Zn       0.00000000       0.00000000       0.00000000       0.00000000       0.00000000       0.01360176
Zn       0.00000000       0.00000000       5.00060606       0.00000000       0.00000000      -0.01360176
2
Properties=species:S:1:pos:R:3:forces:R:3 energy=-0.03723630778333398 pbc="F F F"
Zn       0.00000000       0.00000000       0.00000000       0.00000000       0.00000000       0.01552748
Zn       0.00000000       0.00000000       5.05939394       0.00000000       0.00000000      -0.01552748
2
Properties=species:S:1:pos:R:3:forces:R:3 energy=-0.03624752385355765 pbc="F F F"
Zn       0.00000000       0.00000000       0.00000000       0.00000000       0.00000000       0.01822039
Zn       0.00000000       0.00000000       5.11818182       0.00000000       0.00000000      -0.01822039
2
Properties=species:S:1:pos:R:3:forces:R:3 energy=-0.035086115815819816 pbc="F F F"
Zn       0.00000000       0.00000000       0.00000000       0.00000000       0.00000000       0.02130233
Zn       0.00000000       0.00000000       5.17696970       0.00000000       0.00000000      -0.02130233
2
Properties=species:S:1:pos:R:3:forces:R:3 energy=-0.033750390911248 pbc="F F F"
Zn       0.00000000       0.00000000       0.00000000       0.00000000       0.00000000       0.02400228
Zn       0.00000000       0.00000000       5.23575758       0.00000000       0.00000000      -0.02400228
2
Properties=species:S:1:pos:R:3:forces:R:3 energy=-0.03228818858420271 pbc="F F F"
Zn       0.00000000       0.00000000       0.00000000       0.00000000       0.00000000       0.02548366
Zn       0.00000000       0.00000000       5.29454545       0.00000000       0.00000000      -0.02548366
2
Properties=species:S:1:pos:R:3:forces:R:3 energy=-0.030788413215924914 pbc="F F F"
Zn       0.00000000       0.00000000       0.00000000       0.00000000       0.00000000       0.02521866
Zn       0.00000000       0.00000000       5.35333333       0.00000000       0.00000000      -0.02521866
2
Properties=species:S:1:pos:R:3:forces:R:3 energy=-0.029365389869675008 pbc="F F F"
Zn       0.00000000       0.00000000       0.00000000       0.00000000       0.00000000       0.02278370
Zn       0.00000000       0.00000000       5.41212121       0.00000000       0.00000000      -0.02278370
2
Properties=species:S:1:pos:R:3:forces:R:3 energy=-0.028160903710184433 pbc="F F F"
Zn       0.00000000       0.00000000       0.00000000       0.00000000       0.00000000       0.01780026
Zn       0.00000000       0.00000000       5.47090909       0.00000000       0.00000000      -0.01780026
2
Properties=species:S:1:pos:R:3:forces:R:3 energy=-0.027299427717204894 pbc="F F F"
Zn       0.00000000       0.00000000       0.00000000       0.00000000       0.00000000       0.01146202
Zn       0.00000000       0.00000000       5.52969697       0.00000000       0.00000000      -0.01146202
2
Properties=species:S:1:pos:R:3:forces:R:3 energy=-0.02680558711804809 pbc="F F F"
Zn       0.00000000       0.00000000       0.00000000       0.00000000       0.00000000       0.00544553
Zn       0.00000000       0.00000000       5.58848485       0.00000000       0.00000000      -0.00544553
2
Properties=species:S:1:pos:R:3:forces:R:3 energy=-0.026648157910851955 pbc="F F F"
Zn       0.00000000       0.00000000       0.00000000       0.00000000       0.00000000      -0.00003958
Zn       0.00000000       0.00000000       5.64727273       0.00000000       0.00000000       0.00003958
2
Properties=species:S:1:pos:R:3:forces:R:3 energy=-0.026808747723447397 pbc="F F F"
Zn       0.00000000       0.00000000       0.00000000       0.00000000       0.00000000      -0.00539652
Zn       0.00000000       0.00000000       5.70606061       0.00000000       0.00000000       0.00539652
2
Properties=species:S:1:pos:R:3:forces:R:3 energy=-0.027258202023487714 pbc="F F F"
Zn       0.00000000       0.00000000       0.00000000       0.00000000       0.00000000      -0.00925053
Zn       0.00000000       0.00000000       5.76484848       0.00000000       0.00000000       0.00925053
2
Properties=species:S:1:pos:R:3:forces:R:3 energy=-0.02778839208157776 pbc="F F F"
Zn       0.00000000       0.00000000       0.00000000       0.00000000       0.00000000      -0.00776571
Zn       0.00000000       0.00000000       5.82363636       0.00000000       0.00000000       0.00776571
2
Properties=species:S:1:pos:R:3:forces:R:3 energy=-0.02807714147197478 pbc="F F F"
Zn       0.00000000       0.00000000       0.00000000       0.00000000       0.00000000      -0.00179757
Zn       0.00000000       0.00000000       5.88242424       0.00000000       0.00000000       0.00179757
2
Properties=species:S:1:pos:R:3:forces:R:3 energy=-0.028008272712742314 pbc="F F F"
Zn       0.00000000       0.00000000       0.00000000       0.00000000       0.00000000       0.00378241
Zn       0.00000000       0.00000000       5.94121212       0.00000000       0.00000000      -0.00378241
2
Properties=species:S:1:pos:R:3:forces:R:3 energy=-0.02770664161236812 pbc="F F F"
Zn       0.00000000       0.00000000       0.00000000       0.00000000       0.00000000       0.00571529
Zn       0.00000000       0.00000000       6.00000000       0.00000000       0.00000000      -0.00571529
