2
Properties=species:S:1:pos:R:3:forces:R:3 energy=38307.8438144299 pbc="F F F"
Ag       0.00000000       0.00000000       0.00000000       0.00000000       0.00000000 -917604.75000000
Ag       0.00000000       0.00000000       0.10000000       0.00000000       0.00000000  917604.75000000
2
Properties=species:S:1:pos:R:3:forces:R:3 energy=11269.073306617398 pbc="F F F"
Ag       0.00000000       0.00000000       0.00000000       0.00000000       0.00000000 -201309.81250000
Ag       0.00000000       0.00000000       0.15959596       0.00000000       0.00000000  201309.81250000
2
Properties=species:S:1:pos:R:3:forces:R:3 energy=4307.794986304897 pbc="F F F"
Ag       0.00000000       0.00000000       0.00000000       0.00000000       0.00000000  -63354.17187500
Ag       0.00000000       0.00000000       0.21919192       0.00000000       0.00000000   63354.17187500
2
Properties=species:S:1:pos:R:3:forces:R:3 energy=1905.922183570522 pbc="F F F"
Ag       0.00000000       0.00000000       0.00000000       0.00000000       0.00000000  -24379.71679688
Ag       0.00000000       0.00000000       0.27878788       0.00000000       0.00000000   24379.71679688
2
Properties=species:S:1:pos:R:3:forces:R:3 energy=928.1276279064596 pbc="F F F"
Ag       0.00000000       0.00000000       0.00000000       0.00000000       0.00000000  -10589.13378906
Ag       0.00000000       0.00000000       0.33838384       0.00000000       0.00000000   10589.13378906
2
Properties=species:S:1:pos:R:3:forces:R:3 energy=487.44784886006084 pbc="F F F"
Ag       0.00000000       0.00000000       0.00000000       0.00000000       0.00000000   -4979.88916016
Ag       0.00000000       0.00000000       0.39797980       0.00000000       0.00000000    4979.88916016
2
Properties=species:S:1:pos:R:3:forces:R:3 energy=274.5758090778103 pbc="F F F"
Ag       0.00000000       0.00000000       0.00000000       0.00000000       0.00000000   -2481.71826172
Ag       0.00000000       0.00000000       0.45757576       0.00000000       0.00000000    2481.71826172
2
Properties=species:S:1:pos:R:3:forces:R:3 energy=166.23753700842627 pbc="F F F"
Ag       0.00000000       0.00000000       0.00000000       0.00000000       0.00000000   -1294.16491699
Ag       0.00000000       0.00000000       0.51717172       0.00000000       0.00000000    1294.16491699
2
Properties=species:S:1:pos:R:3:forces:R:3 energy=108.79660382523672 pbc="F F F"
Ag       0.00000000       0.00000000       0.00000000       0.00000000       0.00000000    -699.00439453
Ag       0.00000000       0.00000000       0.57676768       0.00000000       0.00000000     699.00439453
2
Properties=species:S:1:pos:R:3:forces:R:3 energy=77.40816853115928 pbc="F F F"
Ag       0.00000000       0.00000000       0.00000000       0.00000000       0.00000000    -386.54138184
Ag       0.00000000       0.00000000       0.63636364       0.00000000       0.00000000     386.54138184
2
Properties=species:S:1:pos:R:3:forces:R:3 energy=59.95327363200526 pbc="F F F"
Ag       0.00000000       0.00000000       0.00000000       0.00000000       0.00000000    -215.82083130
Ag       0.00000000       0.00000000       0.69595960       0.00000000       0.00000000     215.82083130
2
Properties=species:S:1:pos:R:3:forces:R:3 energy=50.224350014963704 pbc="F F F"
Ag       0.00000000       0.00000000       0.00000000       0.00000000       0.00000000    -119.62805176
Ag       0.00000000       0.00000000       0.75555556       0.00000000       0.00000000     119.62805176
2
Properties=species:S:1:pos:R:3:forces:R:3 energy=44.88648254741218 pbc="F F F"
Ag       0.00000000       0.00000000       0.00000000       0.00000000       0.00000000     -64.63388824
Ag       0.00000000       0.00000000       0.81515152       0.00000000       0.00000000      64.63388824
2
Properties=species:S:1:pos:R:3:forces:R:3 energy=42.040638668255475 pbc="F F F"
Ag       0.00000000       0.00000000       0.00000000       0.00000000       0.00000000     -34.05112076
Ag       0.00000000       0.00000000       0.87474747       0.00000000       0.00000000      34.05112076
2
Properties=species:S:1:pos:R:3:forces:R:3 energy=40.51842242574935 pbc="F F F"
Ag       0.00000000       0.00000000       0.00000000       0.00000000       0.00000000     -19.15639687
Ag       0.00000000       0.00000000       0.93434343       0.00000000       0.00000000      19.15639687
2
Properties=species:S:1:pos:R:3:forces:R:3 energy=39.549169649155424 pbc="F F F"
Ag       0.00000000       0.00000000       0.00000000       0.00000000       0.00000000     -14.77102470
Ag       0.00000000       0.00000000       0.99393939       0.00000000       0.00000000      14.77102470
2
Properties=species:S:1:pos:R:3:forces:R:3 energy=38.63256760299001 pbc="F F F"
Ag       0.00000000       0.00000000       0.00000000       0.00000000       0.00000000     -16.66844940
Ag       0.00000000       0.00000000       1.05353535       0.00000000       0.00000000      16.66844940
2
Properties=species:S:1:pos:R:3:forces:R:3 energy=37.523934041765635 pbc="F F F"
Ag       0.00000000       0.00000000       0.00000000       0.00000000       0.00000000     -20.61685181
Ag       0.00000000       0.00000000       1.11313131       0.00000000       0.00000000      20.61685181
2
Properties=species:S:1:pos:R:3:forces:R:3 energy=36.15529878463808 pbc="F F F"
Ag       0.00000000       0.00000000       0.00000000       0.00000000       0.00000000     -25.77541351
Ag       0.00000000       0.00000000       1.17272727       0.00000000       0.00000000      25.77541351
2
Properties=species:S:1:pos:R:3:forces:R:3 energy=34.36049372642266 pbc="F F F"
Ag       0.00000000       0.00000000       0.00000000       0.00000000       0.00000000     -35.32189560
Ag       0.00000000       0.00000000       1.23232323       0.00000000       0.00000000      35.32189560
2
Properties=species:S:1:pos:R:3:forces:R:3 energy=31.87169291667782 pbc="F F F"
Ag       0.00000000       0.00000000       0.00000000       0.00000000       0.00000000     -48.42965317
Ag       0.00000000       0.00000000       1.29191919       0.00000000       0.00000000      48.42965317
2
Properties=species:S:1:pos:R:3:forces:R:3 energy=28.619205793609854 pbc="F F F"
Ag       0.00000000       0.00000000       0.00000000       0.00000000       0.00000000     -59.94202423
Ag       0.00000000       0.00000000       1.35151515       0.00000000       0.00000000      59.94202423
2
Properties=species:S:1:pos:R:3:forces:R:3 energy=24.865598153745413 pbc="F F F"
Ag       0.00000000       0.00000000       0.00000000       0.00000000       0.00000000     -64.70011902
Ag       0.00000000       0.00000000       1.41111111       0.00000000       0.00000000      64.70011902
2
Properties=species:S:1:pos:R:3:forces:R:3 energy=21.045274563490597 pbc="F F F"
Ag       0.00000000       0.00000000       0.00000000       0.00000000       0.00000000     -62.64975739
Ag       0.00000000       0.00000000       1.47070707       0.00000000       0.00000000      62.64975739
2
Properties=species:S:1:pos:R:3:forces:R:3 energy=17.462995242847935 pbc="F F F"
Ag       0.00000000       0.00000000       0.00000000       0.00000000       0.00000000     -57.28158188
Ag       0.00000000       0.00000000       1.53030303       0.00000000       0.00000000      57.28158188
2
Properties=species:S:1:pos:R:3:forces:R:3 energy=14.233889922404039 pbc="F F F"
Ag       0.00000000       0.00000000       0.00000000       0.00000000       0.00000000     -51.04896164
Ag       0.00000000       0.00000000       1.58989899       0.00000000       0.00000000      51.04896164
2
Properties=species:S:1:pos:R:3:forces:R:3 energy=11.376803517097665 pbc="F F F"
Ag       0.00000000       0.00000000       0.00000000       0.00000000       0.00000000     -44.87783051
Ag       0.00000000       0.00000000       1.64949495       0.00000000       0.00000000      44.87783051
2
Properties=species:S:1:pos:R:3:forces:R:3 energy=8.8774388773664 pbc="F F F"
Ag       0.00000000       0.00000000       0.00000000       0.00000000       0.00000000     -39.07037735
Ag       0.00000000       0.00000000       1.70909091       0.00000000       0.00000000      39.07037735
2
Properties=species:S:1:pos:R:3:forces:R:3 energy=6.7114243078613995 pbc="F F F"
Ag       0.00000000       0.00000000       0.00000000       0.00000000       0.00000000     -33.68710327
Ag       0.00000000       0.00000000       1.76868687       0.00000000       0.00000000      33.68710327
2
Properties=species:S:1:pos:R:3:forces:R:3 energy=4.854882129201008 pbc="F F F"
Ag       0.00000000       0.00000000       0.00000000       0.00000000       0.00000000     -28.67364311
Ag       0.00000000       0.00000000       1.82828283       0.00000000       0.00000000      28.67364311
2
Properties=species:S:1:pos:R:3:forces:R:3 energy=3.287208441366189 pbc="F F F"
Ag       0.00000000       0.00000000       0.00000000       0.00000000       0.00000000     -23.99287415
Ag       0.00000000       0.00000000       1.88787879       0.00000000       0.00000000      23.99287415
2
Properties=species:S:1:pos:R:3:forces:R:3 energy=1.9878313494483053 pbc="F F F"
Ag       0.00000000       0.00000000       0.00000000       0.00000000       0.00000000     -19.68033409
Ag       0.00000000       0.00000000       1.94747475       0.00000000       0.00000000      19.68033409
2
Properties=species:S:1:pos:R:3:forces:R:3 energy=0.9326813801580536 pbc="F F F"
Ag       0.00000000       0.00000000       0.00000000       0.00000000       0.00000000     -15.80903053
Ag       0.00000000       0.00000000       2.00707071       0.00000000       0.00000000      15.80903053
2
Properties=species:S:1:pos:R:3:forces:R:3 energy=0.09368975151652649 pbc="F F F"
Ag       0.00000000       0.00000000       0.00000000       0.00000000       0.00000000     -12.43126011
Ag       0.00000000       0.00000000       2.06666667       0.00000000       0.00000000      12.43126011
2
Properties=species:S:1:pos:R:3:forces:R:3 energy=-0.5589491629578952 pbc="F F F"
Ag       0.00000000       0.00000000       0.00000000       0.00000000       0.00000000      -9.55207920
Ag       0.00000000       0.00000000       2.12626263       0.00000000       0.00000000       9.55207920
2
Properties=species:S:1:pos:R:3:forces:R:3 energy=-1.054179355673376 pbc="F F F"
Ag       0.00000000       0.00000000       0.00000000       0.00000000       0.00000000      -7.14263344
Ag       0.00000000       0.00000000       2.18585859       0.00000000       0.00000000       7.14263344
2
Properties=species:S:1:pos:R:3:forces:R:3 energy=-1.4188196160125903 pbc="F F F"
Ag       0.00000000       0.00000000       0.00000000       0.00000000       0.00000000      -5.16252422
Ag       0.00000000       0.00000000       2.24545455       0.00000000       0.00000000       5.16252422
2
Properties=species:S:1:pos:R:3:forces:R:3 energy=-1.6771977991522595 pbc="F F F"
Ag       0.00000000       0.00000000       0.00000000       0.00000000       0.00000000      -3.56925917
Ag       0.00000000       0.00000000       2.30505051       0.00000000       0.00000000       3.56925917
2
Properties=species:S:1:pos:R:3:forces:R:3 energy=-1.8510408586613651 pbc="F F F"
Ag       0.00000000       0.00000000       0.00000000       0.00000000       0.00000000      -2.31779242
Ag       0.00000000       0.00000000       2.36464646       0.00000000       0.00000000       2.31779242
2
Properties=species:S:1:pos:R:3:forces:R:3 energy=-1.9592834810814095 pbc="F F F"
Ag       0.00000000       0.00000000       0.00000000       0.00000000       0.00000000      -1.35946369
Ag       0.00000000       0.00000000       2.42424242       0.00000000       0.00000000       1.35946369
2
Properties=species:S:1:pos:R:3:forces:R:3 energy=-2.0179018233176516 pbc="F F F"
Ag       0.00000000       0.00000000       0.00000000       0.00000000       0.00000000      -0.64405048
Ag       0.00000000       0.00000000       2.48383838       0.00000000       0.00000000       0.64405048
2
Properties=species:S:1:pos:R:3:forces:R:3 energy=-2.0399170444084347 pbc="F F F"
Ag       0.00000000       0.00000000       0.00000000       0.00000000       0.00000000      -0.12351362
Ag       0.00000000       0.00000000       2.54343434       0.00000000       0.00000000       0.12351362
2
Properties=species:S:1:pos:R:3:forces:R:3 energy=-2.035646306948222 pbc="F F F"
Ag       0.00000000       0.00000000       0.00000000       0.00000000       0.00000000       0.24461538
Ag       0.00000000       0.00000000       2.60303030       0.00000000       0.00000000      -0.24461538
2
Properties=species:S:1:pos:R:3:forces:R:3 energy=-2.013079379600689 pbc="F F F"
Ag       0.00000000       0.00000000       0.00000000       0.00000000       0.00000000       0.49581894
Ag       0.00000000       0.00000000       2.66262626       0.00000000       0.00000000      -0.49581894
2
Properties=species:S:1:pos:R:3:forces:R:3 energy=-1.978291627643936 pbc="F F F"
Ag       0.00000000       0.00000000       0.00000000       0.00000000       0.00000000       0.65909654
Ag       0.00000000       0.00000000       2.72222222       0.00000000       0.00000000      -0.65909654
2
Properties=species:S:1:pos:R:3:forces:R:3 energy=-1.9357917415582682 pbc="F F F"
Ag       0.00000000       0.00000000       0.00000000       0.00000000       0.00000000       0.75822550
Ag       0.00000000       0.00000000       2.78181818       0.00000000       0.00000000      -0.75822550
2
Properties=species:S:1:pos:R:3:forces:R:3 energy=-1.8888067197392586 pbc="F F F"
Ag       0.00000000       0.00000000       0.00000000       0.00000000       0.00000000       0.81243467
Ag       0.00000000       0.00000000       2.84141414       0.00000000       0.00000000      -0.81243467
2
Properties=species:S:1:pos:R:3:forces:R:3 energy=-1.8395537078548718 pbc="F F F"
Ag       0.00000000       0.00000000       0.00000000       0.00000000       0.00000000       0.83641475
Ag       0.00000000       0.00000000       2.90101010       0.00000000       0.00000000      -0.83641475
2
Properties=species:S:1:pos:R:3:forces:R:3 energy=-1.7894947931562197 pbc="F F F"
Ag       0.00000000       0.00000000       0.00000000       0.00000000       0.00000000       0.84116620
Ag       0.00000000       0.00000000       2.96060606       0.00000000       0.00000000      -0.84116620
2
Properties=species:S:1:pos:R:3:forces:R:3 energy=-1.7394744730695202 pbc="F F F"
Ag       0.00000000       0.00000000       0.00000000       0.00000000       0.00000000       0.83687937
Ag       0.00000000       0.00000000       3.02020202       0.00000000       0.00000000      -0.83687937
2
Properties=species:S:1:pos:R:3:forces:R:3 energy=-1.6897154010758908 pbc="F F F"
Ag       0.00000000       0.00000000       0.00000000       0.00000000       0.00000000       0.83388090
Ag       0.00000000       0.00000000       3.07979798       0.00000000       0.00000000      -0.83388090
2
Properties=species:S:1:pos:R:3:forces:R:3 energy=-1.639969123918278 pbc="F F F"
Ag       0.00000000       0.00000000       0.00000000       0.00000000       0.00000000       0.83619112
Ag       0.00000000       0.00000000       3.13939394       0.00000000       0.00000000      -0.83619112
2
Properties=species:S:1:pos:R:3:forces:R:3 energy=-1.5900520242500429 pbc="F F F"
Ag       0.00000000       0.00000000       0.00000000       0.00000000       0.00000000       0.83826649
Ag       0.00000000       0.00000000       3.19898990       0.00000000       0.00000000      -0.83826649
2
Properties=species:S:1:pos:R:3:forces:R:3 energy=-1.5402022110438498 pbc="F F F"
Ag       0.00000000       0.00000000       0.00000000       0.00000000       0.00000000       0.83311331
Ag       0.00000000       0.00000000       3.25858586       0.00000000       0.00000000      -0.83311331
2
Properties=species:S:1:pos:R:3:forces:R:3 energy=-1.4909455212305194 pbc="F F F"
Ag       0.00000000       0.00000000       0.00000000       0.00000000       0.00000000       0.81830639
Ag       0.00000000       0.00000000       3.31818182       0.00000000       0.00000000      -0.81830639
2
Properties=species:S:1:pos:R:3:forces:R:3 energy=-1.442836124507629 pbc="F F F"
Ag       0.00000000       0.00000000       0.00000000       0.00000000       0.00000000       0.79499394
Ag       0.00000000       0.00000000       3.37777778       0.00000000       0.00000000      -0.79499394
2
Properties=species:S:1:pos:R:3:forces:R:3 energy=-1.3963108159901292 pbc="F F F"
Ag       0.00000000       0.00000000       0.00000000       0.00000000       0.00000000       0.76556963
Ag       0.00000000       0.00000000       3.43737374       0.00000000       0.00000000      -0.76556963
2
Properties=species:S:1:pos:R:3:forces:R:3 energy=-1.3516591282587513 pbc="F F F"
Ag       0.00000000       0.00000000       0.00000000       0.00000000       0.00000000       0.73245573
Ag       0.00000000       0.00000000       3.49696970       0.00000000       0.00000000      -0.73245573
2
Properties=species:S:1:pos:R:3:forces:R:3 energy=-1.309041753381083 pbc="F F F"
Ag       0.00000000       0.00000000       0.00000000       0.00000000       0.00000000       0.69757795
Ag       0.00000000       0.00000000       3.55656566       0.00000000       0.00000000      -0.69757795
2
Properties=species:S:1:pos:R:3:forces:R:3 energy=-1.2685234616207013 pbc="F F F"
Ag       0.00000000       0.00000000       0.00000000       0.00000000       0.00000000       0.66219652
Ag       0.00000000       0.00000000       3.61616162       0.00000000       0.00000000      -0.66219652
2
Properties=species:S:1:pos:R:3:forces:R:3 energy=-1.230111352853448 pbc="F F F"
Ag       0.00000000       0.00000000       0.00000000       0.00000000       0.00000000       0.62690920
Ag       0.00000000       0.00000000       3.67575758       0.00000000       0.00000000      -0.62690920
2
Properties=species:S:1:pos:R:3:forces:R:3 energy=-1.1937966667267756 pbc="F F F"
Ag       0.00000000       0.00000000       0.00000000       0.00000000       0.00000000       0.59181887
Ag       0.00000000       0.00000000       3.73535354       0.00000000       0.00000000      -0.59181887
2
Properties=species:S:1:pos:R:3:forces:R:3 energy=-1.159570739058084 pbc="F F F"
Ag       0.00000000       0.00000000       0.00000000       0.00000000       0.00000000       0.55677384
Ag       0.00000000       0.00000000       3.79494949       0.00000000       0.00000000      -0.55677384
2
Properties=species:S:1:pos:R:3:forces:R:3 energy=-1.1274362198595282 pbc="F F F"
Ag       0.00000000       0.00000000       0.00000000       0.00000000       0.00000000       0.52160418
Ag       0.00000000       0.00000000       3.85454545       0.00000000       0.00000000      -0.52160418
2
Properties=species:S:1:pos:R:3:forces:R:3 energy=-1.0974028176577393 pbc="F F F"
Ag       0.00000000       0.00000000       0.00000000       0.00000000       0.00000000       0.48629317
Ag       0.00000000       0.00000000       3.91414141       0.00000000       0.00000000      -0.48629317
2
Properties=species:S:1:pos:R:3:forces:R:3 energy=-1.06947224728527 pbc="F F F"
Ag       0.00000000       0.00000000       0.00000000       0.00000000       0.00000000       0.45106611
Ag       0.00000000       0.00000000       3.97373737       0.00000000       0.00000000      -0.45106611
2
Properties=species:S:1:pos:R:3:forces:R:3 energy=-1.04362823964298 pbc="F F F"
Ag       0.00000000       0.00000000       0.00000000       0.00000000       0.00000000       0.41639224
Ag       0.00000000       0.00000000       4.03333333       0.00000000       0.00000000      -0.41639224
2
Properties=species:S:1:pos:R:3:forces:R:3 energy=-1.0198178345131241 pbc="F F F"
Ag       0.00000000       0.00000000       0.00000000       0.00000000       0.00000000       0.38292411
Ag       0.00000000       0.00000000       4.09292929       0.00000000       0.00000000      -0.38292411
2
Properties=species:S:1:pos:R:3:forces:R:3 energy=-0.9979478028647722 pbc="F F F"
Ag       0.00000000       0.00000000       0.00000000       0.00000000       0.00000000       0.35140550
Ag       0.00000000       0.00000000       4.15252525       0.00000000       0.00000000      -0.35140550
2
Properties=species:S:1:pos:R:3:forces:R:3 energy=-0.9778805012871464 pbc="F F F"
Ag       0.00000000       0.00000000       0.00000000       0.00000000       0.00000000       0.32255089
Ag       0.00000000       0.00000000       4.21212121       0.00000000       0.00000000      -0.32255089
2
Properties=species:S:1:pos:R:3:forces:R:3 energy=-0.9594378997628881 pbc="F F F"
Ag       0.00000000       0.00000000       0.00000000       0.00000000       0.00000000       0.29693046
Ag       0.00000000       0.00000000       4.27171717       0.00000000       0.00000000      -0.29693046
2
Properties=species:S:1:pos:R:3:forces:R:3 energy=-0.9424173109586345 pbc="F F F"
Ag       0.00000000       0.00000000       0.00000000       0.00000000       0.00000000       0.27488819
Ag       0.00000000       0.00000000       4.33131313       0.00000000       0.00000000      -0.27488819
2
Properties=species:S:1:pos:R:3:forces:R:3 energy=-0.9266013735430134 pbc="F F F"
Ag       0.00000000       0.00000000       0.00000000       0.00000000       0.00000000       0.25648087
Ag       0.00000000       0.00000000       4.39090909       0.00000000       0.00000000      -0.25648087
2
Properties=species:S:1:pos:R:3:forces:R:3 energy=-0.9117785556004704 pbc="F F F"
Ag       0.00000000       0.00000000       0.00000000       0.00000000       0.00000000       0.24148978
Ag       0.00000000       0.00000000       4.45050505       0.00000000       0.00000000      -0.24148978
2
Properties=species:S:1:pos:R:3:forces:R:3 energy=-0.8977586760135349 pbc="F F F"
Ag       0.00000000       0.00000000       0.00000000       0.00000000       0.00000000       0.22946899
Ag       0.00000000       0.00000000       4.51010101       0.00000000       0.00000000      -0.22946899
2
Properties=species:S:1:pos:R:3:forces:R:3 energy=-0.8843802340821996 pbc="F F F"
Ag       0.00000000       0.00000000       0.00000000       0.00000000       0.00000000       0.21983431
Ag       0.00000000       0.00000000       4.56969697       0.00000000       0.00000000      -0.21983431
2
Properties=species:S:1:pos:R:3:forces:R:3 energy=-0.8715205739917542 pbc="F F F"
Ag       0.00000000       0.00000000       0.00000000       0.00000000       0.00000000       0.21197090
Ag       0.00000000       0.00000000       4.62929293       0.00000000       0.00000000      -0.21197090
2
Properties=species:S:1:pos:R:3:forces:R:3 energy=-0.8590914523102754 pbc="F F F"
Ag       0.00000000       0.00000000       0.00000000       0.00000000       0.00000000       0.20530879
Ag       0.00000000       0.00000000       4.68888889       0.00000000       0.00000000      -0.20530879
2
Properties=species:S:1:pos:R:3:forces:R:3 energy=-0.8470352407143835 pbc="F F F"
Ag       0.00000000       0.00000000       0.00000000       0.00000000       0.00000000       0.19936515
Ag       0.00000000       0.00000000       4.74848485       0.00000000       0.00000000      -0.19936515
2
Properties=species:S:1:pos:R:3:forces:R:3 energy=-0.8353225907366776 pbc="F F F"
Ag       0.00000000       0.00000000       0.00000000       0.00000000       0.00000000       0.19373563
Ag       0.00000000       0.00000000       4.80808081       0.00000000       0.00000000      -0.19373563
2
Properties=species:S:1:pos:R:3:forces:R:3 energy=-0.8239447966196655 pbc="F F F"
Ag       0.00000000       0.00000000       0.00000000       0.00000000       0.00000000       0.18803611
Ag       0.00000000       0.00000000       4.86767677       0.00000000       0.00000000      -0.18803611
2
Properties=species:S:1:pos:R:3:forces:R:3 energy=-0.8129193954005102 pbc="F F F"
Ag       0.00000000       0.00000000       0.00000000       0.00000000       0.00000000       0.18184952
Ag       0.00000000       0.00000000       4.92727273       0.00000000       0.00000000      -0.18184952
2
Properties=species:S:1:pos:R:3:forces:R:3 energy=-0.8022882744015724 pbc="F F F"
Ag       0.00000000       0.00000000       0.00000000       0.00000000       0.00000000       0.17473011
Ag       0.00000000       0.00000000       4.98686869       0.00000000       0.00000000      -0.17473011
2
Properties=species:S:1:pos:R:3:forces:R:3 energy=-0.7921183528080561 pbc="F F F"
Ag       0.00000000       0.00000000       0.00000000       0.00000000       0.00000000       0.16640344
Ag       0.00000000       0.00000000       5.04646465       0.00000000       0.00000000      -0.16640344
2
Properties=species:S:1:pos:R:3:forces:R:3 energy=-0.7824714338050653 pbc="F F F"
Ag       0.00000000       0.00000000       0.00000000       0.00000000       0.00000000       0.15730272
Ag       0.00000000       0.00000000       5.10606061       0.00000000       0.00000000      -0.15730272
2
Properties=species:S:1:pos:R:3:forces:R:3 energy=-0.7733479300413973 pbc="F F F"
Ag       0.00000000       0.00000000       0.00000000       0.00000000       0.00000000       0.14923067
Ag       0.00000000       0.00000000       5.16565657       0.00000000       0.00000000      -0.14923067
2
Properties=species:S:1:pos:R:3:forces:R:3 energy=-0.7646069680629665 pbc="F F F"
Ag       0.00000000       0.00000000       0.00000000       0.00000000       0.00000000       0.14494653
Ag       0.00000000       0.00000000       5.22525253       0.00000000       0.00000000      -0.14494653
2
Properties=species:S:1:pos:R:3:forces:R:3 energy=-0.7559793484472738 pbc="F F F"
Ag       0.00000000       0.00000000       0.00000000       0.00000000       0.00000000       0.14513950
Ag       0.00000000       0.00000000       5.28484848       0.00000000       0.00000000      -0.14513950
2
Properties=species:S:1:pos:R:3:forces:R:3 energy=-0.7473053736717701 pbc="F F F"
Ag       0.00000000       0.00000000       0.00000000       0.00000000       0.00000000       0.14534810
Ag       0.00000000       0.00000000       5.34444444       0.00000000       0.00000000      -0.14534810
2
Properties=species:S:1:pos:R:3:forces:R:3 energy=-0.7387832006617672 pbc="F F F"
Ag       0.00000000       0.00000000       0.00000000       0.00000000       0.00000000       0.13930559
Ag       0.00000000       0.00000000       5.40404040       0.00000000       0.00000000      -0.13930559
2
Properties=species:S:1:pos:R:3:forces:R:3 energy=-0.7308358038072749 pbc="F F F"
Ag       0.00000000       0.00000000       0.00000000       0.00000000       0.00000000       0.12667726
Ag       0.00000000       0.00000000       5.46363636       0.00000000       0.00000000      -0.12667726
2
Properties=species:S:1:pos:R:3:forces:R:3 energy=-0.723679768620184 pbc="F F F"
Ag       0.00000000       0.00000000       0.00000000       0.00000000       0.00000000       0.11442137
Ag       0.00000000       0.00000000       5.52323232       0.00000000       0.00000000      -0.11442137
2
Properties=species:S:1:pos:R:3:forces:R:3 energy=-0.717033409956688 pbc="F F F"
Ag       0.00000000       0.00000000       0.00000000       0.00000000       0.00000000       0.11026900
Ag       0.00000000       0.00000000       5.58282828       0.00000000       0.00000000      -0.11026900
2
Properties=species:S:1:pos:R:3:forces:R:3 energy=-0.7103753337984968 pbc="F F F"
Ag       0.00000000       0.00000000       0.00000000       0.00000000       0.00000000       0.11380535
Ag       0.00000000       0.00000000       5.64242424       0.00000000       0.00000000      -0.11380535
2
Properties=species:S:1:pos:R:3:forces:R:3 energy=-0.7035304786237998 pbc="F F F"
Ag       0.00000000       0.00000000       0.00000000       0.00000000       0.00000000       0.11400648
Ag       0.00000000       0.00000000       5.70202020       0.00000000       0.00000000      -0.11400648
2
Properties=species:S:1:pos:R:3:forces:R:3 energy=-0.697086286124465 pbc="F F F"
Ag       0.00000000       0.00000000       0.00000000       0.00000000       0.00000000       0.09975268
Ag       0.00000000       0.00000000       5.76161616       0.00000000       0.00000000      -0.09975268
2
Properties=species:S:1:pos:R:3:forces:R:3 energy=-0.691925531087667 pbc="F F F"
Ag       0.00000000       0.00000000       0.00000000       0.00000000       0.00000000       0.07167701
Ag       0.00000000       0.00000000       5.82121212       0.00000000       0.00000000      -0.07167701
2
Properties=species:S:1:pos:R:3:forces:R:3 energy=-0.6886188076816464 pbc="F F F"
Ag       0.00000000       0.00000000       0.00000000       0.00000000       0.00000000       0.04009397
Ag       0.00000000       0.00000000       5.88080808       0.00000000       0.00000000      -0.04009397
2
Properties=species:S:1:pos:R:3:forces:R:3 energy=-0.686985655704495 pbc="F F F"
Ag       0.00000000       0.00000000       0.00000000       0.00000000       0.00000000       0.01627531
Ag       0.00000000       0.00000000       5.94040404       0.00000000       0.00000000      -0.01627531
2
Properties=species:S:1:pos:R:3:forces:R:3 energy=-0.6863757449959167 pbc="F F F"
Ag       0.00000000       0.00000000       0.00000000       0.00000000       0.00000000       0.00717060
Ag       0.00000000       0.00000000       6.00000000       0.00000000       0.00000000      -0.00717060
