2
Properties=species:S:1:pos:R:3:forces:R:3 energy=16206.538261175734 pbc="F F F"
Au       0.00000000       0.00000000       0.00000000       0.00000000       0.00000000 -285769.12500000
Au       0.00000000       0.00000000       0.18000000       0.00000000       0.00000000  285769.12500000
2
Properties=species:S:1:pos:R:3:forces:R:3 energy=6253.930839300735 pbc="F F F"
Au       0.00000000       0.00000000       0.00000000       0.00000000       0.00000000  -93704.98437500
Au       0.00000000       0.00000000       0.23878788       0.00000000       0.00000000   93704.98437500
2
Properties=species:S:1:pos:R:3:forces:R:3 energy=2738.28850531636 pbc="F F F"
Au       0.00000000       0.00000000       0.00000000       0.00000000       0.00000000  -36129.59765625
Au       0.00000000       0.00000000       0.29757576       0.00000000       0.00000000   36129.59765625
2
Properties=species:S:1:pos:R:3:forces:R:3 energy=1318.623832471133 pbc="F F F"
Au       0.00000000       0.00000000       0.00000000       0.00000000       0.00000000  -15408.48046875
Au       0.00000000       0.00000000       0.35636364       0.00000000       0.00000000   15408.48046875
2
Properties=species:S:1:pos:R:3:forces:R:3 energy=692.8873822821562 pbc="F F F"
Au       0.00000000       0.00000000       0.00000000       0.00000000       0.00000000   -7065.17041016
Au       0.00000000       0.00000000       0.41515152       0.00000000       0.00000000    7065.17041016
2
Properties=species:S:1:pos:R:3:forces:R:3 energy=398.39153268545243 pbc="F F F"
Au       0.00000000       0.00000000       0.00000000       0.00000000       0.00000000   -3430.19140625
Au       0.00000000       0.00000000       0.47393939       0.00000000       0.00000000    3430.19140625
2
Properties=species:S:1:pos:R:3:forces:R:3 energy=252.4053266561075 pbc="F F F"
Au       0.00000000       0.00000000       0.00000000       0.00000000       0.00000000   -1741.28076172
Au       0.00000000       0.00000000       0.53272727       0.00000000       0.00000000    1741.28076172
2
Properties=species:S:1:pos:R:3:forces:R:3 energy=177.2301863164298 pbc="F F F"
Au       0.00000000       0.00000000       0.00000000       0.00000000       0.00000000    -909.64318848
Au       0.00000000       0.00000000       0.59151515       0.00000000       0.00000000     909.64318848
2
Properties=species:S:1:pos:R:3:forces:R:3 energy=137.7598952515944 pbc="F F F"
Au       0.00000000       0.00000000       0.00000000       0.00000000       0.00000000    -478.36801147
Au       0.00000000       0.00000000       0.65030303       0.00000000       0.00000000     478.36801147
2
Properties=species:S:1:pos:R:3:forces:R:3 energy=117.14961246768678 pbc="F F F"
Au       0.00000000       0.00000000       0.00000000       0.00000000       0.00000000    -246.11346436
Au       0.00000000       0.00000000       0.70909091       0.00000000       0.00000000     246.11346436
2
Properties=species:S:1:pos:R:3:forces:R:3 energy=106.80677054303405 pbc="F F F"
Au       0.00000000       0.00000000       0.00000000       0.00000000       0.00000000    -118.04284668
Au       0.00000000       0.00000000       0.76787879       0.00000000       0.00000000     118.04284668
2
Properties=species:S:1:pos:R:3:forces:R:3 energy=102.22084855524888 pbc="F F F"
Au       0.00000000       0.00000000       0.00000000       0.00000000       0.00000000     -44.81504059
Au       0.00000000       0.00000000       0.82666667       0.00000000       0.00000000      44.81504059
2
Properties=species:S:1:pos:R:3:forces:R:3 energy=100.65902793882952 pbc="F F F"
Au       0.00000000       0.00000000       0.00000000       0.00000000       0.00000000     -17.72978783
Au       0.00000000       0.00000000       0.88545455       0.00000000       0.00000000      17.72978783
2
Properties=species:S:1:pos:R:3:forces:R:3 energy=98.93179456529796 pbc="F F F"
Au       0.00000000       0.00000000       0.00000000       0.00000000       0.00000000     -50.09507370
Au       0.00000000       0.00000000       0.94424242       0.00000000       0.00000000      50.09507370
2
Properties=species:S:1:pos:R:3:forces:R:3 energy=94.05894676414793 pbc="F F F"
Au       0.00000000       0.00000000       0.00000000       0.00000000       0.00000000    -118.60671234
Au       0.00000000       0.00000000       1.00303030       0.00000000       0.00000000     118.60671234
2
Properties=species:S:1:pos:R:3:forces:R:3 energy=84.9264098726977 pbc="F F F"
Au       0.00000000       0.00000000       0.00000000       0.00000000       0.00000000    -190.78283691
Au       0.00000000       0.00000000       1.06181818       0.00000000       0.00000000     190.78283691
2
Properties=species:S:1:pos:R:3:forces:R:3 energy=72.07540558879516 pbc="F F F"
Au       0.00000000       0.00000000       0.00000000       0.00000000       0.00000000    -236.93682861
Au       0.00000000       0.00000000       1.12060606       0.00000000       0.00000000     236.93682861
2
Properties=species:S:1:pos:R:3:forces:R:3 energy=59.068727710654045 pbc="F F F"
Au       0.00000000       0.00000000       0.00000000       0.00000000       0.00000000    -191.21072388
Au       0.00000000       0.00000000       1.17939394       0.00000000       0.00000000     191.21072388
2
Properties=species:S:1:pos:R:3:forces:R:3 energy=49.71144531253902 pbc="F F F"
Au       0.00000000       0.00000000       0.00000000       0.00000000       0.00000000    -132.00486755
Au       0.00000000       0.00000000       1.23818182       0.00000000       0.00000000     132.00486755
2
Properties=species:S:1:pos:R:3:forces:R:3 energy=43.132251129109186 pbc="F F F"
Au       0.00000000       0.00000000       0.00000000       0.00000000       0.00000000     -94.86647034
Au       0.00000000       0.00000000       1.29696970       0.00000000       0.00000000      94.86647034
2
Properties=species:S:1:pos:R:3:forces:R:3 energy=38.16118145040749 pbc="F F F"
Au       0.00000000       0.00000000       0.00000000       0.00000000       0.00000000     -77.51184845
Au       0.00000000       0.00000000       1.35575758       0.00000000       0.00000000      77.51184845
2
Properties=species:S:1:pos:R:3:forces:R:3 energy=33.73999363063785 pbc="F F F"
Au       0.00000000       0.00000000       0.00000000       0.00000000       0.00000000     -74.21413422
Au       0.00000000       0.00000000       1.41454545       0.00000000       0.00000000      74.21413422
2
Properties=species:S:1:pos:R:3:forces:R:3 energy=29.367121913970752 pbc="F F F"
Au       0.00000000       0.00000000       0.00000000       0.00000000       0.00000000     -74.71067810
Au       0.00000000       0.00000000       1.47333333       0.00000000       0.00000000      74.71067810
2
Properties=species:S:1:pos:R:3:forces:R:3 energy=24.962684838223826 pbc="F F F"
Au       0.00000000       0.00000000       0.00000000       0.00000000       0.00000000     -74.87939453
Au       0.00000000       0.00000000       1.53212121       0.00000000       0.00000000      74.87939453
2
Properties=species:S:1:pos:R:3:forces:R:3 energy=20.60961413736366 pbc="F F F"
Au       0.00000000       0.00000000       0.00000000       0.00000000       0.00000000     -72.72573853
Au       0.00000000       0.00000000       1.59090909       0.00000000       0.00000000      72.72573853
2
Properties=species:S:1:pos:R:3:forces:R:3 energy=16.472872846042005 pbc="F F F"
Au       0.00000000       0.00000000       0.00000000       0.00000000       0.00000000     -67.50100708
Au       0.00000000       0.00000000       1.64969697       0.00000000       0.00000000      67.50100708
2
Properties=species:S:1:pos:R:3:forces:R:3 energy=12.72420944235699 pbc="F F F"
Au       0.00000000       0.00000000       0.00000000       0.00000000       0.00000000     -59.70291138
Au       0.00000000       0.00000000       1.70848485       0.00000000       0.00000000      59.70291138
2
Properties=species:S:1:pos:R:3:forces:R:3 energy=9.476727155993665 pbc="F F F"
Au       0.00000000       0.00000000       0.00000000       0.00000000       0.00000000     -50.70311737
Au       0.00000000       0.00000000       1.76727273       0.00000000       0.00000000      50.70311737
2
Properties=species:S:1:pos:R:3:forces:R:3 energy=6.759763770081312 pbc="F F F"
Au       0.00000000       0.00000000       0.00000000       0.00000000       0.00000000     -41.83383560
Au       0.00000000       0.00000000       1.82606061       0.00000000       0.00000000      41.83383560
2
Properties=species:S:1:pos:R:3:forces:R:3 energy=4.5403302039871525 pbc="F F F"
Au       0.00000000       0.00000000       0.00000000       0.00000000       0.00000000     -33.85176468
Au       0.00000000       0.00000000       1.88484848       0.00000000       0.00000000      33.85176468
2
Properties=species:S:1:pos:R:3:forces:R:3 energy=2.757654043407163 pbc="F F F"
Au       0.00000000       0.00000000       0.00000000       0.00000000       0.00000000     -26.98145866
Au       0.00000000       0.00000000       1.94363636       0.00000000       0.00000000      26.98145866
2
Properties=species:S:1:pos:R:3:forces:R:3 energy=1.3472066019948659 pbc="F F F"
Au       0.00000000       0.00000000       0.00000000       0.00000000       0.00000000     -21.16904449
Au       0.00000000       0.00000000       2.00242424       0.00000000       0.00000000      21.16904449
2
Properties=species:S:1:pos:R:3:forces:R:3 energy=0.25032561500713124 pbc="F F F"
Au       0.00000000       0.00000000       0.00000000       0.00000000       0.00000000     -16.29492378
Au       0.00000000       0.00000000       2.06121212       0.00000000       0.00000000      16.29492378
2
Properties=species:S:1:pos:R:3:forces:R:3 energy=-0.5851391110963035 pbc="F F F"
Au       0.00000000       0.00000000       0.00000000       0.00000000       0.00000000     -12.26162052
Au       0.00000000       0.00000000       2.12000000       0.00000000       0.00000000      12.26162052
2
Properties=species:S:1:pos:R:3:forces:R:3 energy=-1.206299087457815 pbc="F F F"
Au       0.00000000       0.00000000       0.00000000       0.00000000       0.00000000      -8.99102783
Au       0.00000000       0.00000000       2.17878788       0.00000000       0.00000000       8.99102783
2
Properties=species:S:1:pos:R:3:forces:R:3 energy=-1.6555699582283727 pbc="F F F"
Au       0.00000000       0.00000000       0.00000000       0.00000000       0.00000000      -6.39841700
Au       0.00000000       0.00000000       2.23757576       0.00000000       0.00000000       6.39841700
2
Properties=species:S:1:pos:R:3:forces:R:3 energy=-1.9698691054234188 pbc="F F F"
Au       0.00000000       0.00000000       0.00000000       0.00000000       0.00000000      -4.38073874
Au       0.00000000       0.00000000       2.29636364       0.00000000       0.00000000       4.38073874
2
Properties=species:S:1:pos:R:3:forces:R:3 energy=-2.1796924864329186 pbc="F F F"
Au       0.00000000       0.00000000       0.00000000       0.00000000       0.00000000      -2.82550931
Au       0.00000000       0.00000000       2.35515152       0.00000000       0.00000000       2.82550931
2
Properties=species:S:1:pos:R:3:forces:R:3 energy=-2.3091053432003714 pbc="F F F"
Au       0.00000000       0.00000000       0.00000000       0.00000000       0.00000000      -1.62960351
Au       0.00000000       0.00000000       2.41393939       0.00000000       0.00000000       1.62960351
2
Properties=species:S:1:pos:R:3:forces:R:3 energy=-2.376781742073738 pbc="F F F"
Au       0.00000000       0.00000000       0.00000000       0.00000000       0.00000000      -0.71461242
Au       0.00000000       0.00000000       2.47272727       0.00000000       0.00000000       0.71461242
2
Properties=species:S:1:pos:R:3:forces:R:3 energy=-2.3976139617389003 pbc="F F F"
Au       0.00000000       0.00000000       0.00000000       0.00000000       0.00000000      -0.02927038
Au       0.00000000       0.00000000       2.53151515       0.00000000       0.00000000       0.02927038
2
Properties=species:S:1:pos:R:3:forces:R:3 energy=-2.384061619931586 pbc="F F F"
Au       0.00000000       0.00000000       0.00000000       0.00000000       0.00000000       0.46007618
Au       0.00000000       0.00000000       2.59030303       0.00000000       0.00000000      -0.46007618
2
Properties=species:S:1:pos:R:3:forces:R:3 energy=-2.3467889407968796 pbc="F F F"
Au       0.00000000       0.00000000       0.00000000       0.00000000       0.00000000       0.78278089
Au       0.00000000       0.00000000       2.64909091       0.00000000       0.00000000      -0.78278089
2
Properties=species:S:1:pos:R:3:forces:R:3 energy=-2.2946409103757075 pbc="F F F"
Au       0.00000000       0.00000000       0.00000000       0.00000000       0.00000000       0.97217232
Au       0.00000000       0.00000000       2.70787879       0.00000000       0.00000000      -0.97217232
2
Properties=species:S:1:pos:R:3:forces:R:3 energy=-2.2343595960300244 pbc="F F F"
Au       0.00000000       0.00000000       0.00000000       0.00000000       0.00000000       1.06584477
Au       0.00000000       0.00000000       2.76666667       0.00000000       0.00000000      -1.06584477
2
Properties=species:S:1:pos:R:3:forces:R:3 energy=-2.170470554021631 pbc="F F F"
Au       0.00000000       0.00000000       0.00000000       0.00000000       0.00000000       1.10072386
Au       0.00000000       0.00000000       2.82545455       0.00000000       0.00000000      -1.10072386
2
Properties=species:S:1:pos:R:3:forces:R:3 energy=-2.105482465890352 pbc="F F F"
Au       0.00000000       0.00000000       0.00000000       0.00000000       0.00000000       1.10767913
Au       0.00000000       0.00000000       2.88424242       0.00000000       0.00000000      -1.10767913
2
Properties=species:S:1:pos:R:3:forces:R:3 energy=-2.0403500480097243 pbc="F F F"
Au       0.00000000       0.00000000       0.00000000       0.00000000       0.00000000       1.10841715
Au       0.00000000       0.00000000       2.94303030       0.00000000       0.00000000      -1.10841715
2
Properties=species:S:1:pos:R:3:forces:R:3 energy=-1.9750450494548009 pbc="F F F"
Au       0.00000000       0.00000000       0.00000000       0.00000000       0.00000000       1.11468792
Au       0.00000000       0.00000000       3.00181818       0.00000000       0.00000000      -1.11468792
2
Properties=species:S:1:pos:R:3:forces:R:3 energy=-1.9091359242969235 pbc="F F F"
Au       0.00000000       0.00000000       0.00000000       0.00000000       0.00000000       1.12855256
Au       0.00000000       0.00000000       3.06060606       0.00000000       0.00000000      -1.12855256
2
Properties=species:S:1:pos:R:3:forces:R:3 energy=-1.842313530820058 pbc="F F F"
Au       0.00000000       0.00000000       0.00000000       0.00000000       0.00000000       1.14441395
Au       0.00000000       0.00000000       3.11939394       0.00000000       0.00000000      -1.14441395
2
Properties=species:S:1:pos:R:3:forces:R:3 energy=-1.7747086505209246 pbc="F F F"
Au       0.00000000       0.00000000       0.00000000       0.00000000       0.00000000       1.15378952
Au       0.00000000       0.00000000       3.17818182       0.00000000       0.00000000      -1.15378952
2
Properties=species:S:1:pos:R:3:forces:R:3 energy=-1.7069225203092793 pbc="F F F"
Au       0.00000000       0.00000000       0.00000000       0.00000000       0.00000000       1.14968014
Au       0.00000000       0.00000000       3.23696970       0.00000000       0.00000000      -1.14968014
2
Properties=species:S:1:pos:R:3:forces:R:3 energy=-1.6398742025021824 pbc="F F F"
Au       0.00000000       0.00000000       0.00000000       0.00000000       0.00000000       1.12834072
Au       0.00000000       0.00000000       3.29575758       0.00000000       0.00000000      -1.12834072
2
Properties=species:S:1:pos:R:3:forces:R:3 energy=-1.5746053320361117 pbc="F F F"
Au       0.00000000       0.00000000       0.00000000       0.00000000       0.00000000       1.08930433
Au       0.00000000       0.00000000       3.35454545       0.00000000       0.00000000      -1.08930433
2
Properties=species:S:1:pos:R:3:forces:R:3 energy=-1.512104299915452 pbc="F F F"
Au       0.00000000       0.00000000       0.00000000       0.00000000       0.00000000       1.03472424
Au       0.00000000       0.00000000       3.41333333       0.00000000       0.00000000      -1.03472424
2
Properties=species:S:1:pos:R:3:forces:R:3 energy=-1.4531762295720214 pbc="F F F"
Au       0.00000000       0.00000000       0.00000000       0.00000000       0.00000000       0.96848708
Au       0.00000000       0.00000000       3.47212121       0.00000000       0.00000000      -0.96848708
2
Properties=species:S:1:pos:R:3:forces:R:3 energy=-1.398369751035435 pbc="F F F"
Au       0.00000000       0.00000000       0.00000000       0.00000000       0.00000000       0.89532864
Au       0.00000000       0.00000000       3.53090909       0.00000000       0.00000000      -0.89532864
2
Properties=species:S:1:pos:R:3:forces:R:3 energy=-1.3479484577400949 pbc="F F F"
Au       0.00000000       0.00000000       0.00000000       0.00000000       0.00000000       0.82002246
Au       0.00000000       0.00000000       3.58969697       0.00000000       0.00000000      -0.82002246
2
Properties=species:S:1:pos:R:3:forces:R:3 energy=-1.3019137070178664 pbc="F F F"
Au       0.00000000       0.00000000       0.00000000       0.00000000       0.00000000       0.74676555
Au       0.00000000       0.00000000       3.64848485       0.00000000       0.00000000      -0.74676555
2
Properties=species:S:1:pos:R:3:forces:R:3 energy=-1.26004382795512 pbc="F F F"
Au       0.00000000       0.00000000       0.00000000       0.00000000       0.00000000       0.67875594
Au       0.00000000       0.00000000       3.70727273       0.00000000       0.00000000      -0.67875594
2
Properties=species:S:1:pos:R:3:forces:R:3 energy=-1.221964611264804 pbc="F F F"
Au       0.00000000       0.00000000       0.00000000       0.00000000       0.00000000       0.61802787
Au       0.00000000       0.00000000       3.76606061       0.00000000       0.00000000      -0.61802787
2
Properties=species:S:1:pos:R:3:forces:R:3 energy=-1.1872173864623246 pbc="F F F"
Au       0.00000000       0.00000000       0.00000000       0.00000000       0.00000000       0.56549150
Au       0.00000000       0.00000000       3.82484848       0.00000000       0.00000000      -0.56549150
2
Properties=species:S:1:pos:R:3:forces:R:3 energy=-1.1553163785408853 pbc="F F F"
Au       0.00000000       0.00000000       0.00000000       0.00000000       0.00000000       0.52110499
Au       0.00000000       0.00000000       3.88363636       0.00000000       0.00000000      -0.52110499
2
Properties=species:S:1:pos:R:3:forces:R:3 energy=-1.1258020008595584 pbc="F F F"
Au       0.00000000       0.00000000       0.00000000       0.00000000       0.00000000       0.48414820
Au       0.00000000       0.00000000       3.94242424       0.00000000       0.00000000      -0.48414820
2
Properties=species:S:1:pos:R:3:forces:R:3 energy=-1.0982686669217467 pbc="F F F"
Au       0.00000000       0.00000000       0.00000000       0.00000000       0.00000000       0.45350870
Au       0.00000000       0.00000000       4.00121212       0.00000000       0.00000000      -0.45350870
2
Properties=species:S:1:pos:R:3:forces:R:3 energy=-1.0723813592984792 pbc="F F F"
Au       0.00000000       0.00000000       0.00000000       0.00000000       0.00000000       0.42794141
Au       0.00000000       0.00000000       4.06000000       0.00000000       0.00000000      -0.42794141
2
Properties=species:S:1:pos:R:3:forces:R:3 energy=-1.0478768914133936 pbc="F F F"
Au       0.00000000       0.00000000       0.00000000       0.00000000       0.00000000       0.40628031
Au       0.00000000       0.00000000       4.11878788       0.00000000       0.00000000      -0.40628031
2
Properties=species:S:1:pos:R:3:forces:R:3 energy=-1.0245546302249544 pbc="F F F"
Au       0.00000000       0.00000000       0.00000000       0.00000000       0.00000000       0.38757724
Au       0.00000000       0.00000000       4.17757576       0.00000000       0.00000000      -0.38757724
2
Properties=species:S:1:pos:R:3:forces:R:3 energy=-1.0022618429873043 pbc="F F F"
Au       0.00000000       0.00000000       0.00000000       0.00000000       0.00000000       0.37117031
Au       0.00000000       0.00000000       4.23636364       0.00000000       0.00000000      -0.37117031
2
Properties=species:S:1:pos:R:3:forces:R:3 energy=-0.9808758584544137 pbc="F F F"
Au       0.00000000       0.00000000       0.00000000       0.00000000       0.00000000       0.35670123
Au       0.00000000       0.00000000       4.29515152       0.00000000       0.00000000      -0.35670123
2
Properties=species:S:1:pos:R:3:forces:R:3 energy=-0.960286834802097 pbc="F F F"
Au       0.00000000       0.00000000       0.00000000       0.00000000       0.00000000       0.34407702
Au       0.00000000       0.00000000       4.35393939       0.00000000       0.00000000      -0.34407702
2
Properties=species:S:1:pos:R:3:forces:R:3 energy=-0.940382822452822 pbc="F F F"
Au       0.00000000       0.00000000       0.00000000       0.00000000       0.00000000       0.33341187
Au       0.00000000       0.00000000       4.41272727       0.00000000       0.00000000      -0.33341187
2
Properties=species:S:1:pos:R:3:forces:R:3 energy=-0.9210425344906708 pbc="F F F"
Au       0.00000000       0.00000000       0.00000000       0.00000000       0.00000000       0.32493776
Au       0.00000000       0.00000000       4.47151515       0.00000000       0.00000000      -0.32493776
2
Properties=species:S:1:pos:R:3:forces:R:3 energy=-0.9021298802890252 pbc="F F F"
Au       0.00000000       0.00000000       0.00000000       0.00000000       0.00000000       0.31889623
Au       0.00000000       0.00000000       4.53030303       0.00000000       0.00000000      -0.31889623
2
Properties=species:S:1:pos:R:3:forces:R:3 energy=-0.8834977786239211 pbc="F F F"
Au       0.00000000       0.00000000       0.00000000       0.00000000       0.00000000       0.31542170
Au       0.00000000       0.00000000       4.58909091       0.00000000       0.00000000      -0.31542170
2
Properties=species:S:1:pos:R:3:forces:R:3 energy=-0.8649956888660937 pbc="F F F"
Au       0.00000000       0.00000000       0.00000000       0.00000000       0.00000000       0.31442752
Au       0.00000000       0.00000000       4.64787879       0.00000000       0.00000000      -0.31442752
2
Properties=species:S:1:pos:R:3:forces:R:3 energy=-0.8464875650663015 pbc="F F F"
Au       0.00000000       0.00000000       0.00000000       0.00000000       0.00000000       0.31549996
Au       0.00000000       0.00000000       4.70666667       0.00000000       0.00000000      -0.31549996
2
Properties=species:S:1:pos:R:3:forces:R:3 energy=-0.8278755411740581 pbc="F F F"
Au       0.00000000       0.00000000       0.00000000       0.00000000       0.00000000       0.31783974
Au       0.00000000       0.00000000       4.76545455       0.00000000       0.00000000      -0.31783974
2
Properties=species:S:1:pos:R:3:forces:R:3 energy=-0.8091142888374024 pbc="F F F"
Au       0.00000000       0.00000000       0.00000000       0.00000000       0.00000000       0.32027891
Au       0.00000000       0.00000000       4.82424242       0.00000000       0.00000000      -0.32027891
2
Properties=species:S:1:pos:R:3:forces:R:3 energy=-0.7902454546323788 pbc="F F F"
Au       0.00000000       0.00000000       0.00000000       0.00000000       0.00000000       0.32137376
Au       0.00000000       0.00000000       4.88303030       0.00000000       0.00000000      -0.32137376
2
Properties=species:S:1:pos:R:3:forces:R:3 energy=-0.7713848260574782 pbc="F F F"
Au       0.00000000       0.00000000       0.00000000       0.00000000       0.00000000       0.31964421
Au       0.00000000       0.00000000       4.94181818       0.00000000       0.00000000      -0.31964421
2
Properties=species:S:1:pos:R:3:forces:R:3 energy=-0.7527414034360544 pbc="F F F"
Au       0.00000000       0.00000000       0.00000000       0.00000000       0.00000000       0.31389669
Au       0.00000000       0.00000000       5.00060606       0.00000000       0.00000000      -0.31389669
2
Properties=species:S:1:pos:R:3:forces:R:3 energy=-0.734565062870455 pbc="F F F"
Au       0.00000000       0.00000000       0.00000000       0.00000000       0.00000000       0.30371204
Au       0.00000000       0.00000000       5.05939394       0.00000000       0.00000000      -0.30371204
2
Properties=species:S:1:pos:R:3:forces:R:3 energy=-0.7171024123749317 pbc="F F F"
Au       0.00000000       0.00000000       0.00000000       0.00000000       0.00000000       0.28999126
Au       0.00000000       0.00000000       5.11818182       0.00000000       0.00000000      -0.28999126
2
Properties=species:S:1:pos:R:3:forces:R:3 energy=-0.7004929015637739 pbc="F F F"
Au       0.00000000       0.00000000       0.00000000       0.00000000       0.00000000       0.27513582
Au       0.00000000       0.00000000       5.17696970       0.00000000       0.00000000      -0.27513582
2
Properties=species:S:1:pos:R:3:forces:R:3 energy=-0.6847217139750678 pbc="F F F"
Au       0.00000000       0.00000000       0.00000000       0.00000000       0.00000000       0.26180807
Au       0.00000000       0.00000000       5.23575758       0.00000000       0.00000000      -0.26180807
2
Properties=species:S:1:pos:R:3:forces:R:3 energy=-0.6696828868056024 pbc="F F F"
Au       0.00000000       0.00000000       0.00000000       0.00000000       0.00000000       0.24973373
Au       0.00000000       0.00000000       5.29454545       0.00000000       0.00000000      -0.24973373
2
Properties=species:S:1:pos:R:3:forces:R:3 energy=-0.655427517906979 pbc="F F F"
Au       0.00000000       0.00000000       0.00000000       0.00000000       0.00000000       0.23412101
Au       0.00000000       0.00000000       5.35333333       0.00000000       0.00000000      -0.23412101
2
Properties=species:S:1:pos:R:3:forces:R:3 energy=-0.6423241228709008 pbc="F F F"
Au       0.00000000       0.00000000       0.00000000       0.00000000       0.00000000       0.21021038
Au       0.00000000       0.00000000       5.41212121       0.00000000       0.00000000      -0.21021038
2
Properties=species:S:1:pos:R:3:forces:R:3 energy=-0.6308455674310339 pbc="F F F"
Au       0.00000000       0.00000000       0.00000000       0.00000000       0.00000000       0.17971931
Au       0.00000000       0.00000000       5.47090909       0.00000000       0.00000000      -0.17971931
2
Properties=species:S:1:pos:R:3:forces:R:3 energy=-0.6211610098971178 pbc="F F F"
Au       0.00000000       0.00000000       0.00000000       0.00000000       0.00000000       0.15080930
Au       0.00000000       0.00000000       5.52969697       0.00000000       0.00000000      -0.15080930
2
Properties=species:S:1:pos:R:3:forces:R:3 energy=-0.6129177107251976 pbc="F F F"
Au       0.00000000       0.00000000       0.00000000       0.00000000       0.00000000       0.13165326
Au       0.00000000       0.00000000       5.58848485       0.00000000       0.00000000      -0.13165326
2
Properties=species:S:1:pos:R:3:forces:R:3 energy=-0.6054772663157131 pbc="F F F"
Au       0.00000000       0.00000000       0.00000000       0.00000000       0.00000000       0.12280490
Au       0.00000000       0.00000000       5.64727273       0.00000000       0.00000000      -0.12280490
2
Properties=species:S:1:pos:R:3:forces:R:3 energy=-0.5984581550408656 pbc="F F F"
Au       0.00000000       0.00000000       0.00000000       0.00000000       0.00000000       0.11504775
Au       0.00000000       0.00000000       5.70606061       0.00000000       0.00000000      -0.11504775
2
Properties=species:S:1:pos:R:3:forces:R:3 energy=-0.5921299399824282 pbc="F F F"
Au       0.00000000       0.00000000       0.00000000       0.00000000       0.00000000       0.09777030
Au       0.00000000       0.00000000       5.76484848       0.00000000       0.00000000      -0.09777030
2
Properties=species:S:1:pos:R:3:forces:R:3 energy=-0.5871777765239269 pbc="F F F"
Au       0.00000000       0.00000000       0.00000000       0.00000000       0.00000000       0.06944730
Au       0.00000000       0.00000000       5.82363636       0.00000000       0.00000000      -0.06944730
2
Properties=species:S:1:pos:R:3:forces:R:3 energy=-0.5840363955936091 pbc="F F F"
Au       0.00000000       0.00000000       0.00000000       0.00000000       0.00000000       0.03824984
Au       0.00000000       0.00000000       5.88242424       0.00000000       0.00000000      -0.03824984
2
Properties=species:S:1:pos:R:3:forces:R:3 energy=-0.5825313825093393 pbc="F F F"
Au       0.00000000       0.00000000       0.00000000       0.00000000       0.00000000       0.01472203
Au       0.00000000       0.00000000       5.94121212       0.00000000       0.00000000      -0.01472203
2
Properties=species:S:1:pos:R:3:forces:R:3 energy=-0.5820113709732232 pbc="F F F"
Au       0.00000000       0.00000000       0.00000000       0.00000000       0.00000000       0.00582827
Au       0.00000000       0.00000000       6.00000000       0.00000000       0.00000000      -0.00582827
