2
Properties=species:S:1:pos:R:3:forces:R:3 energy=3027.1496246387105 pbc="F F F"
Cr       0.00000000       0.00000000       0.00000000       0.00000000       0.00000000  -46383.07421875
Cr       0.00000000       0.00000000       0.18000000       0.00000000       0.00000000   46383.07421875
2
Properties=species:S:1:pos:R:3:forces:R:3 energy=1332.1803863574603 pbc="F F F"
Cr       0.00000000       0.00000000       0.00000000       0.00000000       0.00000000  -17053.98242188
Cr       0.00000000       0.00000000       0.23878788       0.00000000       0.00000000   17053.98242188
2
Properties=species:S:1:pos:R:3:forces:R:3 energy=660.7735870442219 pbc="F F F"
Cr       0.00000000       0.00000000       0.00000000       0.00000000       0.00000000   -7368.92675781
Cr       0.00000000       0.00000000       0.29757576       0.00000000       0.00000000    7368.92675781
2
Properties=species:S:1:pos:R:3:forces:R:3 energy=356.10909730129606 pbc="F F F"
Cr       0.00000000       0.00000000       0.00000000       0.00000000       0.00000000   -3533.79614258
Cr       0.00000000       0.00000000       0.35636364       0.00000000       0.00000000    3533.79614258
2
Properties=species:S:1:pos:R:3:forces:R:3 energy=205.1087616142723 pbc="F F F"
Cr       0.00000000       0.00000000       0.00000000       0.00000000       0.00000000   -1816.73852539
Cr       0.00000000       0.00000000       0.41515152       0.00000000       0.00000000    1816.73852539
2
Properties=species:S:1:pos:R:3:forces:R:3 energy=125.68021091306439 pbc="F F F"
Cr       0.00000000       0.00000000       0.00000000       0.00000000       0.00000000    -980.00781250
Cr       0.00000000       0.00000000       0.47393939       0.00000000       0.00000000     980.00781250
2
Properties=species:S:1:pos:R:3:forces:R:3 energy=82.13232886783231 pbc="F F F"
Cr       0.00000000       0.00000000       0.00000000       0.00000000       0.00000000    -546.88330078
Cr       0.00000000       0.00000000       0.53272727       0.00000000       0.00000000     546.88330078
2
Properties=species:S:1:pos:R:3:forces:R:3 energy=57.5461701724117 pbc="F F F"
Cr       0.00000000       0.00000000       0.00000000       0.00000000       0.00000000    -312.72882080
Cr       0.00000000       0.00000000       0.59151515       0.00000000       0.00000000     312.72882080
2
Properties=species:S:1:pos:R:3:forces:R:3 energy=43.35371116100105 pbc="F F F"
Cr       0.00000000       0.00000000       0.00000000       0.00000000       0.00000000    -182.60014343
Cr       0.00000000       0.00000000       0.65030303       0.00000000       0.00000000     182.60014343
2
Properties=species:S:1:pos:R:3:forces:R:3 energy=34.965657419013546 pbc="F F F"
Cr       0.00000000       0.00000000       0.00000000       0.00000000       0.00000000    -109.89402771
Cr       0.00000000       0.00000000       0.70909091       0.00000000       0.00000000     109.89402771
2
Properties=species:S:1:pos:R:3:forces:R:3 energy=29.777459557497135 pbc="F F F"
Cr       0.00000000       0.00000000       0.00000000       0.00000000       0.00000000     -70.98915100
Cr       0.00000000       0.00000000       0.76787879       0.00000000       0.00000000      70.98915100
2
Properties=species:S:1:pos:R:3:forces:R:3 energy=26.201345238745265 pbc="F F F"
Cr       0.00000000       0.00000000       0.00000000       0.00000000       0.00000000     -53.55799103
Cr       0.00000000       0.00000000       0.82666667       0.00000000       0.00000000      53.55799103
2
Properties=species:S:1:pos:R:3:forces:R:3 energy=23.203588765414242 pbc="F F F"
Cr       0.00000000       0.00000000       0.00000000       0.00000000       0.00000000     -50.29216385
Cr       0.00000000       0.00000000       0.88545455       0.00000000       0.00000000      50.29216385
2
Properties=species:S:1:pos:R:3:forces:R:3 energy=20.123774535607332 pbc="F F F"
Cr       0.00000000       0.00000000       0.00000000       0.00000000       0.00000000     -55.42500687
Cr       0.00000000       0.00000000       0.94424242       0.00000000       0.00000000      55.42500687
2
Properties=species:S:1:pos:R:3:forces:R:3 energy=16.625717144687425 pbc="F F F"
Cr       0.00000000       0.00000000       0.00000000       0.00000000       0.00000000     -63.72396469
Cr       0.00000000       0.00000000       1.00303030       0.00000000       0.00000000      63.72396469
2
Properties=species:S:1:pos:R:3:forces:R:3 energy=12.650995540069164 pbc="F F F"
Cr       0.00000000       0.00000000       0.00000000       0.00000000       0.00000000     -71.06316376
Cr       0.00000000       0.00000000       1.06181818       0.00000000       0.00000000      71.06316376
2
Properties=species:S:1:pos:R:3:forces:R:3 energy=8.348135045320861 pbc="F F F"
Cr       0.00000000       0.00000000       0.00000000       0.00000000       0.00000000     -74.45526123
Cr       0.00000000       0.00000000       1.12060606       0.00000000       0.00000000      74.45526123
2
Properties=species:S:1:pos:R:3:forces:R:3 energy=4.021018360689773 pbc="F F F"
Cr       0.00000000       0.00000000       0.00000000       0.00000000       0.00000000     -71.54148102
Cr       0.00000000       0.00000000       1.17939394       0.00000000       0.00000000      71.54148102
2
Properties=species:S:1:pos:R:3:forces:R:3 energy=0.07866031473205068 pbc="F F F"
Cr       0.00000000       0.00000000       0.00000000       0.00000000       0.00000000     -61.58113098
Cr       0.00000000       0.00000000       1.23818182       0.00000000       0.00000000      61.58113098
2
Properties=species:S:1:pos:R:3:forces:R:3 energy=-3.159191982037761 pbc="F F F"
Cr       0.00000000       0.00000000       0.00000000       0.00000000       0.00000000     -48.58952332
Cr       0.00000000       0.00000000       1.29696970       0.00000000       0.00000000      48.58952332
2
Properties=species:S:1:pos:R:3:forces:R:3 energy=-5.678863609863029 pbc="F F F"
Cr       0.00000000       0.00000000       0.00000000       0.00000000       0.00000000     -37.69532776
Cr       0.00000000       0.00000000       1.35575758       0.00000000       0.00000000      37.69532776
2
Properties=species:S:1:pos:R:3:forces:R:3 energy=-7.652648998541465 pbc="F F F"
Cr       0.00000000       0.00000000       0.00000000       0.00000000       0.00000000     -29.83067131
Cr       0.00000000       0.00000000       1.41454545       0.00000000       0.00000000      29.83067131
2
Properties=species:S:1:pos:R:3:forces:R:3 energy=-9.204828843219659 pbc="F F F"
Cr       0.00000000       0.00000000       0.00000000       0.00000000       0.00000000     -22.93214035
Cr       0.00000000       0.00000000       1.47333333       0.00000000       0.00000000      22.93214035
2
Properties=species:S:1:pos:R:3:forces:R:3 energy=-10.33415741715719 pbc="F F F"
Cr       0.00000000       0.00000000       0.00000000       0.00000000       0.00000000     -15.39232731
Cr       0.00000000       0.00000000       1.53212121       0.00000000       0.00000000      15.39232731
2
Properties=species:S:1:pos:R:3:forces:R:3 energy=-11.020892429561785 pbc="F F F"
Cr       0.00000000       0.00000000       0.00000000       0.00000000       0.00000000      -8.18946743
Cr       0.00000000       0.00000000       1.59090909       0.00000000       0.00000000       8.18946743
2
Properties=species:S:1:pos:R:3:forces:R:3 energy=-11.334187457062747 pbc="F F F"
Cr       0.00000000       0.00000000       0.00000000       0.00000000       0.00000000      -2.80444241
Cr       0.00000000       0.00000000       1.64969697       0.00000000       0.00000000       2.80444241
2
Properties=species:S:1:pos:R:3:forces:R:3 energy=-11.382531409507248 pbc="F F F"
Cr       0.00000000       0.00000000       0.00000000       0.00000000       0.00000000       0.94430244
Cr       0.00000000       0.00000000       1.70848485       0.00000000       0.00000000      -0.94430244
2
Properties=species:S:1:pos:R:3:forces:R:3 energy=-11.250953074655927 pbc="F F F"
Cr       0.00000000       0.00000000       0.00000000       0.00000000       0.00000000       3.25498939
Cr       0.00000000       0.00000000       1.76727273       0.00000000       0.00000000      -3.25498939
2
Properties=species:S:1:pos:R:3:forces:R:3 energy=-11.03130349038 pbc="F F F"
Cr       0.00000000       0.00000000       0.00000000       0.00000000       0.00000000       3.99454379
Cr       0.00000000       0.00000000       1.82606061       0.00000000       0.00000000      -3.99454379
2
Properties=species:S:1:pos:R:3:forces:R:3 energy=-10.80116589015249 pbc="F F F"
Cr       0.00000000       0.00000000       0.00000000       0.00000000       0.00000000       3.70949340
Cr       0.00000000       0.00000000       1.88484848       0.00000000       0.00000000      -3.70949340
2
Properties=species:S:1:pos:R:3:forces:R:3 energy=-10.60657032739313 pbc="F F F"
Cr       0.00000000       0.00000000       0.00000000       0.00000000       0.00000000       2.83617330
Cr       0.00000000       0.00000000       1.94363636       0.00000000       0.00000000      -2.83617330
2
Properties=species:S:1:pos:R:3:forces:R:3 energy=-10.474166846288616 pbc="F F F"
Cr       0.00000000       0.00000000       0.00000000       0.00000000       0.00000000       1.63301754
Cr       0.00000000       0.00000000       2.00242424       0.00000000       0.00000000      -1.63301754
2
Properties=species:S:1:pos:R:3:forces:R:3 energy=-10.416339428450087 pbc="F F F"
Cr       0.00000000       0.00000000       0.00000000       0.00000000       0.00000000       0.33914775
Cr       0.00000000       0.00000000       2.06121212       0.00000000       0.00000000      -0.33914775
2
Properties=species:S:1:pos:R:3:forces:R:3 energy=-10.431615587552997 pbc="F F F"
Cr       0.00000000       0.00000000       0.00000000       0.00000000       0.00000000      -0.82043511
Cr       0.00000000       0.00000000       2.12000000       0.00000000       0.00000000       0.82043511
2
Properties=species:S:1:pos:R:3:forces:R:3 energy=-10.506969339796676 pbc="F F F"
Cr       0.00000000       0.00000000       0.00000000       0.00000000       0.00000000      -1.68575656
Cr       0.00000000       0.00000000       2.17878788       0.00000000       0.00000000       1.68575656
2
Properties=species:S:1:pos:R:3:forces:R:3 energy=-10.622781031334288 pbc="F F F"
Cr       0.00000000       0.00000000       0.00000000       0.00000000       0.00000000      -2.19524240
Cr       0.00000000       0.00000000       2.23757576       0.00000000       0.00000000       2.19524240
2
Properties=species:S:1:pos:R:3:forces:R:3 energy=-10.758725495334794 pbc="F F F"
Cr       0.00000000       0.00000000       0.00000000       0.00000000       0.00000000      -2.38258815
Cr       0.00000000       0.00000000       2.29636364       0.00000000       0.00000000       2.38258815
2
Properties=species:S:1:pos:R:3:forces:R:3 energy=-10.898407598917492 pbc="F F F"
Cr       0.00000000       0.00000000       0.00000000       0.00000000       0.00000000      -2.34027743
Cr       0.00000000       0.00000000       2.35515152       0.00000000       0.00000000       2.34027743
2
Properties=species:S:1:pos:R:3:forces:R:3 energy=-11.031467176060646 pbc="F F F"
Cr       0.00000000       0.00000000       0.00000000       0.00000000       0.00000000      -2.17393422
Cr       0.00000000       0.00000000       2.41393939       0.00000000       0.00000000       2.17393422
2
Properties=species:S:1:pos:R:3:forces:R:3 energy=-11.153325483034468 pbc="F F F"
Cr       0.00000000       0.00000000       0.00000000       0.00000000       0.00000000      -1.97158253
Cr       0.00000000       0.00000000       2.47272727       0.00000000       0.00000000       1.97158253
2
Properties=species:S:1:pos:R:3:forces:R:3 energy=-11.263717878954356 pbc="F F F"
Cr       0.00000000       0.00000000       0.00000000       0.00000000       0.00000000      -1.79042745
Cr       0.00000000       0.00000000       2.53151515       0.00000000       0.00000000       1.79042745
2
Properties=species:S:1:pos:R:3:forces:R:3 energy=-11.364623083047256 pbc="F F F"
Cr       0.00000000       0.00000000       0.00000000       0.00000000       0.00000000      -1.64767671
Cr       0.00000000       0.00000000       2.59030303       0.00000000       0.00000000       1.64767671
2
Properties=species:S:1:pos:R:3:forces:R:3 energy=-11.457606279149612 pbc="F F F"
Cr       0.00000000       0.00000000       0.00000000       0.00000000       0.00000000      -1.51218534
Cr       0.00000000       0.00000000       2.64909091       0.00000000       0.00000000       1.51218534
2
Properties=species:S:1:pos:R:3:forces:R:3 energy=-11.541558355727975 pbc="F F F"
Cr       0.00000000       0.00000000       0.00000000       0.00000000       0.00000000      -1.33499539
Cr       0.00000000       0.00000000       2.70787879       0.00000000       0.00000000       1.33499539
2
Properties=species:S:1:pos:R:3:forces:R:3 energy=-11.613727582575297 pbc="F F F"
Cr       0.00000000       0.00000000       0.00000000       0.00000000       0.00000000      -1.11588359
Cr       0.00000000       0.00000000       2.76666667       0.00000000       0.00000000       1.11588359
2
Properties=species:S:1:pos:R:3:forces:R:3 energy=-11.672494567881996 pbc="F F F"
Cr       0.00000000       0.00000000       0.00000000       0.00000000       0.00000000      -0.88213265
Cr       0.00000000       0.00000000       2.82545455       0.00000000       0.00000000       0.88213265
2
Properties=species:S:1:pos:R:3:forces:R:3 energy=-11.717305852885177 pbc="F F F"
Cr       0.00000000       0.00000000       0.00000000       0.00000000       0.00000000      -0.64130151
Cr       0.00000000       0.00000000       2.88424242       0.00000000       0.00000000       0.64130151
2
Properties=species:S:1:pos:R:3:forces:R:3 energy=-11.747849237645974 pbc="F F F"
Cr       0.00000000       0.00000000       0.00000000       0.00000000       0.00000000      -0.39853081
Cr       0.00000000       0.00000000       2.94303030       0.00000000       0.00000000       0.39853081
2
Properties=species:S:1:pos:R:3:forces:R:3 energy=-11.764439097749069 pbc="F F F"
Cr       0.00000000       0.00000000       0.00000000       0.00000000       0.00000000      -0.16996440
Cr       0.00000000       0.00000000       3.00181818       0.00000000       0.00000000       0.16996440
2
Properties=species:S:1:pos:R:3:forces:R:3 energy=-11.768504269776702 pbc="F F F"
Cr       0.00000000       0.00000000       0.00000000       0.00000000       0.00000000       0.02454470
Cr       0.00000000       0.00000000       3.06060606       0.00000000       0.00000000      -0.02454470
2
Properties=species:S:1:pos:R:3:forces:R:3 energy=-11.762499396999658 pbc="F F F"
Cr       0.00000000       0.00000000       0.00000000       0.00000000       0.00000000       0.17117167
Cr       0.00000000       0.00000000       3.11939394       0.00000000       0.00000000      -0.17117167
2
Properties=species:S:1:pos:R:3:forces:R:3 energy=-11.749377253235673 pbc="F F F"
Cr       0.00000000       0.00000000       0.00000000       0.00000000       0.00000000       0.26721373
Cr       0.00000000       0.00000000       3.17818182       0.00000000       0.00000000      -0.26721373
2
Properties=species:S:1:pos:R:3:forces:R:3 energy=-11.731916934141777 pbc="F F F"
Cr       0.00000000       0.00000000       0.00000000       0.00000000       0.00000000       0.32082355
Cr       0.00000000       0.00000000       3.23696970       0.00000000       0.00000000      -0.32082355
2
Properties=species:S:1:pos:R:3:forces:R:3 energy=-11.712199930931728 pbc="F F F"
Cr       0.00000000       0.00000000       0.00000000       0.00000000       0.00000000       0.34667882
Cr       0.00000000       0.00000000       3.29575758       0.00000000       0.00000000      -0.34667882
2
Properties=species:S:1:pos:R:3:forces:R:3 energy=-11.691398515728379 pbc="F F F"
Cr       0.00000000       0.00000000       0.00000000       0.00000000       0.00000000       0.35998964
Cr       0.00000000       0.00000000       3.35454545       0.00000000       0.00000000      -0.35998964
2
Properties=species:S:1:pos:R:3:forces:R:3 energy=-11.669903074428012 pbc="F F F"
Cr       0.00000000       0.00000000       0.00000000       0.00000000       0.00000000       0.37158239
Cr       0.00000000       0.00000000       3.41333333       0.00000000       0.00000000      -0.37158239
2
Properties=species:S:1:pos:R:3:forces:R:3 energy=-11.64765444786449 pbc="F F F"
Cr       0.00000000       0.00000000       0.00000000       0.00000000       0.00000000       0.38583133
Cr       0.00000000       0.00000000       3.47212121       0.00000000       0.00000000      -0.38583133
2
Properties=species:S:1:pos:R:3:forces:R:3 energy=-11.62450815303474 pbc="F F F"
Cr       0.00000000       0.00000000       0.00000000       0.00000000       0.00000000       0.40157554
Cr       0.00000000       0.00000000       3.53090909       0.00000000       0.00000000      -0.40157554
2
Properties=species:S:1:pos:R:3:forces:R:3 energy=-11.60048748059562 pbc="F F F"
Cr       0.00000000       0.00000000       0.00000000       0.00000000       0.00000000       0.41482928
Cr       0.00000000       0.00000000       3.58969697       0.00000000       0.00000000      -0.41482928
2
Properties=species:S:1:pos:R:3:forces:R:3 energy=-11.575861588451907 pbc="F F F"
Cr       0.00000000       0.00000000       0.00000000       0.00000000       0.00000000       0.42164448
Cr       0.00000000       0.00000000       3.64848485       0.00000000       0.00000000      -0.42164448
2
Properties=species:S:1:pos:R:3:forces:R:3 energy=-11.551080911664197 pbc="F F F"
Cr       0.00000000       0.00000000       0.00000000       0.00000000       0.00000000       0.41993886
Cr       0.00000000       0.00000000       3.70727273       0.00000000       0.00000000      -0.41993886
2
Properties=species:S:1:pos:R:3:forces:R:3 energy=-11.526650254072742 pbc="F F F"
Cr       0.00000000       0.00000000       0.00000000       0.00000000       0.00000000       0.40995264
Cr       0.00000000       0.00000000       3.76606061       0.00000000       0.00000000      -0.40995264
2
Properties=species:S:1:pos:R:3:forces:R:3 energy=-11.503004962691772 pbc="F F F"
Cr       0.00000000       0.00000000       0.00000000       0.00000000       0.00000000       0.39364833
Cr       0.00000000       0.00000000       3.82484848       0.00000000       0.00000000      -0.39364833
2
Properties=species:S:1:pos:R:3:forces:R:3 energy=-11.480438429454523 pbc="F F F"
Cr       0.00000000       0.00000000       0.00000000       0.00000000       0.00000000       0.37366262
Cr       0.00000000       0.00000000       3.88363636       0.00000000       0.00000000      -0.37366262
2
Properties=species:S:1:pos:R:3:forces:R:3 energy=-11.459096362831685 pbc="F F F"
Cr       0.00000000       0.00000000       0.00000000       0.00000000       0.00000000       0.35236353
Cr       0.00000000       0.00000000       3.94242424       0.00000000       0.00000000      -0.35236353
2
Properties=species:S:1:pos:R:3:forces:R:3 energy=-11.439004393701435 pbc="F F F"
Cr       0.00000000       0.00000000       0.00000000       0.00000000       0.00000000       0.33128718
Cr       0.00000000       0.00000000       4.00121212       0.00000000       0.00000000      -0.33128718
2
Properties=species:S:1:pos:R:3:forces:R:3 energy=-11.420128106146208 pbc="F F F"
Cr       0.00000000       0.00000000       0.00000000       0.00000000       0.00000000       0.31102887
Cr       0.00000000       0.00000000       4.06000000       0.00000000       0.00000000      -0.31102887
2
Properties=species:S:1:pos:R:3:forces:R:3 energy=-11.402421529123014 pbc="F F F"
Cr       0.00000000       0.00000000       0.00000000       0.00000000       0.00000000       0.29146391
Cr       0.00000000       0.00000000       4.11878788       0.00000000       0.00000000      -0.29146391
2
Properties=species:S:1:pos:R:3:forces:R:3 energy=-11.385854710655247 pbc="F F F"
Cr       0.00000000       0.00000000       0.00000000       0.00000000       0.00000000       0.27211624
Cr       0.00000000       0.00000000       4.17757576       0.00000000       0.00000000      -0.27211624
2
Properties=species:S:1:pos:R:3:forces:R:3 energy=-11.370431590554556 pbc="F F F"
Cr       0.00000000       0.00000000       0.00000000       0.00000000       0.00000000       0.25252187
Cr       0.00000000       0.00000000       4.23636364       0.00000000       0.00000000      -0.25252187
2
Properties=species:S:1:pos:R:3:forces:R:3 energy=-11.35617369925846 pbc="F F F"
Cr       0.00000000       0.00000000       0.00000000       0.00000000       0.00000000       0.23247121
Cr       0.00000000       0.00000000       4.29515152       0.00000000       0.00000000      -0.23247121
2
Properties=species:S:1:pos:R:3:forces:R:3 energy=-11.343104651951146 pbc="F F F"
Cr       0.00000000       0.00000000       0.00000000       0.00000000       0.00000000       0.21211161
Cr       0.00000000       0.00000000       4.35393939       0.00000000       0.00000000      -0.21211161
2
Properties=species:S:1:pos:R:3:forces:R:3 energy=-11.331231768990051 pbc="F F F"
Cr       0.00000000       0.00000000       0.00000000       0.00000000       0.00000000       0.19189978
Cr       0.00000000       0.00000000       4.41272727       0.00000000       0.00000000      -0.19189978
2
Properties=species:S:1:pos:R:3:forces:R:3 energy=-11.32052693906308 pbc="F F F"
Cr       0.00000000       0.00000000       0.00000000       0.00000000       0.00000000       0.17248221
Cr       0.00000000       0.00000000       4.47151515       0.00000000       0.00000000      -0.17248221
2
Properties=species:S:1:pos:R:3:forces:R:3 energy=-11.310922484541315 pbc="F F F"
Cr       0.00000000       0.00000000       0.00000000       0.00000000       0.00000000       0.15453857
Cr       0.00000000       0.00000000       4.53030303       0.00000000       0.00000000      -0.15453857
2
Properties=species:S:1:pos:R:3:forces:R:3 energy=-11.30231679799371 pbc="F F F"
Cr       0.00000000       0.00000000       0.00000000       0.00000000       0.00000000       0.13864401
Cr       0.00000000       0.00000000       4.58909091       0.00000000       0.00000000      -0.13864401
2
Properties=species:S:1:pos:R:3:forces:R:3 energy=-11.294574253488065 pbc="F F F"
Cr       0.00000000       0.00000000       0.00000000       0.00000000       0.00000000       0.12518483
Cr       0.00000000       0.00000000       4.64787879       0.00000000       0.00000000      -0.12518483
2
Properties=species:S:1:pos:R:3:forces:R:3 energy=-11.287546878171078 pbc="F F F"
Cr       0.00000000       0.00000000       0.00000000       0.00000000       0.00000000       0.11432073
Cr       0.00000000       0.00000000       4.70666667       0.00000000       0.00000000      -0.11432073
2
Properties=species:S:1:pos:R:3:forces:R:3 energy=-11.281083005029267 pbc="F F F"
Cr       0.00000000       0.00000000       0.00000000       0.00000000       0.00000000       0.10600196
Cr       0.00000000       0.00000000       4.76545455       0.00000000       0.00000000      -0.10600196
2
Properties=species:S:1:pos:R:3:forces:R:3 energy=-11.275037665103975 pbc="F F F"
Cr       0.00000000       0.00000000       0.00000000       0.00000000       0.00000000       0.10000556
Cr       0.00000000       0.00000000       4.82424242       0.00000000       0.00000000      -0.10000556
2
Properties=species:S:1:pos:R:3:forces:R:3 energy=-11.269285938931793 pbc="F F F"
Cr       0.00000000       0.00000000       0.00000000       0.00000000       0.00000000       0.09598574
Cr       0.00000000       0.00000000       4.88303030       0.00000000       0.00000000      -0.09598574
2
Properties=species:S:1:pos:R:3:forces:R:3 energy=-11.263721952185085 pbc="F F F"
Cr       0.00000000       0.00000000       0.00000000       0.00000000       0.00000000       0.09350955
Cr       0.00000000       0.00000000       4.94181818       0.00000000       0.00000000      -0.09350955
2
Properties=species:S:1:pos:R:3:forces:R:3 energy=-11.258270421134108 pbc="F F F"
Cr       0.00000000       0.00000000       0.00000000       0.00000000       0.00000000       0.09206444
Cr       0.00000000       0.00000000       5.00060606       0.00000000       0.00000000      -0.09206444
2
Properties=species:S:1:pos:R:3:forces:R:3 energy=-11.25288957702639 pbc="F F F"
Cr       0.00000000       0.00000000       0.00000000       0.00000000       0.00000000       0.09100753
Cr       0.00000000       0.00000000       5.05939394       0.00000000       0.00000000      -0.09100753
2
Properties=species:S:1:pos:R:3:forces:R:3 energy=-11.247579733316476 pbc="F F F"
Cr       0.00000000       0.00000000       0.00000000       0.00000000       0.00000000       0.08945229
Cr       0.00000000       0.00000000       5.11818182       0.00000000       0.00000000      -0.08945229
2
Properties=species:S:1:pos:R:3:forces:R:3 energy=-11.242405334216793 pbc="F F F"
Cr       0.00000000       0.00000000       0.00000000       0.00000000       0.00000000       0.08620740
Cr       0.00000000       0.00000000       5.17696970       0.00000000       0.00000000      -0.08620740
2
Properties=species:S:1:pos:R:3:forces:R:3 energy=-11.23750176663423 pbc="F F F"
Cr       0.00000000       0.00000000       0.00000000       0.00000000       0.00000000       0.08007240
Cr       0.00000000       0.00000000       5.23575758       0.00000000       0.00000000      -0.08007240
2
Properties=species:S:1:pos:R:3:forces:R:3 energy=-11.233056251837754 pbc="F F F"
Cr       0.00000000       0.00000000       0.00000000       0.00000000       0.00000000       0.07063734
Cr       0.00000000       0.00000000       5.29454545       0.00000000       0.00000000      -0.07063734
2
Properties=species:S:1:pos:R:3:forces:R:3 energy=-11.229241281493424 pbc="F F F"
Cr       0.00000000       0.00000000       0.00000000       0.00000000       0.00000000       0.05895152
Cr       0.00000000       0.00000000       5.35333333       0.00000000       0.00000000      -0.05895152
2
Properties=species:S:1:pos:R:3:forces:R:3 energy=-11.226129759657152 pbc="F F F"
Cr       0.00000000       0.00000000       0.00000000       0.00000000       0.00000000       0.04703590
Cr       0.00000000       0.00000000       5.41212121       0.00000000       0.00000000      -0.04703590
2
Properties=species:S:1:pos:R:3:forces:R:3 energy=-11.223682662029395 pbc="F F F"
Cr       0.00000000       0.00000000       0.00000000       0.00000000       0.00000000       0.03648523
Cr       0.00000000       0.00000000       5.47090909       0.00000000       0.00000000      -0.03648523
2
Properties=species:S:1:pos:R:3:forces:R:3 energy=-11.221808271468731 pbc="F F F"
Cr       0.00000000       0.00000000       0.00000000       0.00000000       0.00000000       0.02749594
Cr       0.00000000       0.00000000       5.52969697       0.00000000       0.00000000      -0.02749594
2
Properties=species:S:1:pos:R:3:forces:R:3 energy=-11.220437578451461 pbc="F F F"
Cr       0.00000000       0.00000000       0.00000000       0.00000000       0.00000000       0.01918127
Cr       0.00000000       0.00000000       5.58848485       0.00000000       0.00000000      -0.01918127
2
Properties=species:S:1:pos:R:3:forces:R:3 energy=-11.219548140352552 pbc="F F F"
Cr       0.00000000       0.00000000       0.00000000       0.00000000       0.00000000       0.01115133
Cr       0.00000000       0.00000000       5.64727273       0.00000000       0.00000000      -0.01115133
2
Properties=species:S:1:pos:R:3:forces:R:3 energy=-11.219095478667388 pbc="F F F"
Cr       0.00000000       0.00000000       0.00000000       0.00000000       0.00000000       0.00472105
Cr       0.00000000       0.00000000       5.70606061       0.00000000       0.00000000      -0.00472105
2
Properties=species:S:1:pos:R:3:forces:R:3 energy=-11.218921597553386 pbc="F F F"
Cr       0.00000000       0.00000000       0.00000000       0.00000000       0.00000000       0.00199558
Cr       0.00000000       0.00000000       5.76484848       0.00000000       0.00000000      -0.00199558
2
Properties=species:S:1:pos:R:3:forces:R:3 energy=-11.218775966248876 pbc="F F F"
Cr       0.00000000       0.00000000       0.00000000       0.00000000       0.00000000       0.00355797
Cr       0.00000000       0.00000000       5.82363636       0.00000000       0.00000000      -0.00355797
2
Properties=species:S:1:pos:R:3:forces:R:3 energy=-11.218453822439816 pbc="F F F"
Cr       0.00000000       0.00000000       0.00000000       0.00000000       0.00000000       0.00747850
Cr       0.00000000       0.00000000       5.88242424       0.00000000       0.00000000      -0.00747850
2
Properties=species:S:1:pos:R:3:forces:R:3 energy=-11.217906862628901 pbc="F F F"
Cr       0.00000000       0.00000000       0.00000000       0.00000000       0.00000000       0.01087635
Cr       0.00000000       0.00000000       5.94121212       0.00000000       0.00000000      -0.01087635
2
Properties=species:S:1:pos:R:3:forces:R:3 energy=-11.217226054615065 pbc="F F F"
Cr       0.00000000       0.00000000       0.00000000       0.00000000       0.00000000       0.01175158
Cr       0.00000000       0.00000000       6.00000000       0.00000000       0.00000000      -0.01175158
