2
Properties=species:S:1:pos:R:3:forces:R:3 energy=9857.27789245925 pbc="F F F"
Cs       0.00000000       0.00000000       0.00000000       0.00000000       0.00000000 -166775.15625000
Cs       0.00000000       0.00000000       0.18000000       0.00000000       0.00000000  166775.15625000
2
Properties=species:S:1:pos:R:3:forces:R:3 energy=3957.44586120925 pbc="F F F"
Cs       0.00000000       0.00000000       0.00000000       0.00000000       0.00000000  -56815.01562500
Cs       0.00000000       0.00000000       0.23878788       0.00000000       0.00000000   56815.01562500
2
Properties=species:S:1:pos:R:3:forces:R:3 energy=1789.7318719514376 pbc="F F F"
Cs       0.00000000       0.00000000       0.00000000       0.00000000       0.00000000  -22803.15625000
Cs       0.00000000       0.00000000       0.29757576       0.00000000       0.00000000   22803.15625000
2
Properties=species:S:1:pos:R:3:forces:R:3 energy=877.7041009553438 pbc="F F F"
Cs       0.00000000       0.00000000       0.00000000       0.00000000       0.00000000  -10131.39746094
Cs       0.00000000       0.00000000       0.35636364       0.00000000       0.00000000   10131.39746094
2
Properties=species:S:1:pos:R:3:forces:R:3 energy=459.05737243971885 pbc="F F F"
Cs       0.00000000       0.00000000       0.00000000       0.00000000       0.00000000   -4831.94335938
Cs       0.00000000       0.00000000       0.41515152       0.00000000       0.00000000    4831.94335938
2
Properties=species:S:1:pos:R:3:forces:R:3 energy=254.2321008332735 pbc="F F F"
Cs       0.00000000       0.00000000       0.00000000       0.00000000       0.00000000   -2437.09912109
Cs       0.00000000       0.00000000       0.47393939       0.00000000       0.00000000    2437.09912109
2
Properties=species:S:1:pos:R:3:forces:R:3 energy=148.62228332918266 pbc="F F F"
Cs       0.00000000       0.00000000       0.00000000       0.00000000       0.00000000   -1290.28320312
Cs       0.00000000       0.00000000       0.53272727       0.00000000       0.00000000    1290.28320312
2
Properties=species:S:1:pos:R:3:forces:R:3 energy=91.56735931874414 pbc="F F F"
Cs       0.00000000       0.00000000       0.00000000       0.00000000       0.00000000    -714.15899658
Cs       0.00000000       0.00000000       0.59151515       0.00000000       0.00000000     714.15899658
2
Properties=species:S:1:pos:R:3:forces:R:3 energy=59.37821518580657 pbc="F F F"
Cs       0.00000000       0.00000000       0.00000000       0.00000000       0.00000000    -412.16409302
Cs       0.00000000       0.00000000       0.65030303       0.00000000       0.00000000     412.16409302
2
Properties=species:S:1:pos:R:3:forces:R:3 energy=40.461669321054465 pbc="F F F"
Cs       0.00000000       0.00000000       0.00000000       0.00000000       0.00000000    -247.32936096
Cs       0.00000000       0.00000000       0.70909091       0.00000000       0.00000000     247.32936096
2
Properties=species:S:1:pos:R:3:forces:R:3 energy=28.931266187807214 pbc="F F F"
Cs       0.00000000       0.00000000       0.00000000       0.00000000       0.00000000    -153.26583862
Cs       0.00000000       0.00000000       0.76787879       0.00000000       0.00000000     153.26583862
2
Properties=species:S:1:pos:R:3:forces:R:3 energy=21.72525537645337 pbc="F F F"
Cs       0.00000000       0.00000000       0.00000000       0.00000000       0.00000000     -96.25026703
Cs       0.00000000       0.00000000       0.82666667       0.00000000       0.00000000      96.25026703
2
Properties=species:S:1:pos:R:3:forces:R:3 energy=17.237470045017456 pbc="F F F"
Cs       0.00000000       0.00000000       0.00000000       0.00000000       0.00000000     -58.77535248
Cs       0.00000000       0.00000000       0.88545455       0.00000000       0.00000000      58.77535248
2
Properties=species:S:1:pos:R:3:forces:R:3 energy=14.597114947520287 pbc="F F F"
Cs       0.00000000       0.00000000       0.00000000       0.00000000       0.00000000     -32.58804321
Cs       0.00000000       0.00000000       0.94424242       0.00000000       0.00000000      32.58804321
2
Properties=species:S:1:pos:R:3:forces:R:3 energy=13.240844174843211 pbc="F F F"
Cs       0.00000000       0.00000000       0.00000000       0.00000000       0.00000000     -14.87505436
Cs       0.00000000       0.00000000       1.00303030       0.00000000       0.00000000      14.87505436
2
Properties=species:S:1:pos:R:3:forces:R:3 energy=12.703344770014512 pbc="F F F"
Cs       0.00000000       0.00000000       0.00000000       0.00000000       0.00000000      -4.51663589
Cs       0.00000000       0.00000000       1.06181818       0.00000000       0.00000000       4.51663589
2
Properties=species:S:1:pos:R:3:forces:R:3 energy=12.601116636227927 pbc="F F F"
Cs       0.00000000       0.00000000       0.00000000       0.00000000       0.00000000       0.31930524
Cs       0.00000000       0.00000000       1.12060606       0.00000000       0.00000000      -0.31930524
2
Properties=species:S:1:pos:R:3:forces:R:3 energy=12.681254882307636 pbc="F F F"
Cs       0.00000000       0.00000000       0.00000000       0.00000000       0.00000000       2.10097814
Cs       0.00000000       0.00000000       1.17939394       0.00000000       0.00000000      -2.10097814
2
Properties=species:S:1:pos:R:3:forces:R:3 energy=12.831056188849162 pbc="F F F"
Cs       0.00000000       0.00000000       0.00000000       0.00000000       0.00000000       2.97362566
Cs       0.00000000       0.00000000       1.23818182       0.00000000       0.00000000      -2.97362566
2
Properties=species:S:1:pos:R:3:forces:R:3 energy=13.035337107061002 pbc="F F F"
Cs       0.00000000       0.00000000       0.00000000       0.00000000       0.00000000       4.03611946
Cs       0.00000000       0.00000000       1.29696970       0.00000000       0.00000000      -4.03611946
2
Properties=species:S:1:pos:R:3:forces:R:3 energy=13.31035874404784 pbc="F F F"
Cs       0.00000000       0.00000000       0.00000000       0.00000000       0.00000000       5.32500553
Cs       0.00000000       0.00000000       1.35575758       0.00000000       0.00000000      -5.32500553
2
Properties=species:S:1:pos:R:3:forces:R:3 energy=13.656605568738277 pbc="F F F"
Cs       0.00000000       0.00000000       0.00000000       0.00000000       0.00000000       6.36651134
Cs       0.00000000       0.00000000       1.41454545       0.00000000       0.00000000      -6.36651134
2
Properties=species:S:1:pos:R:3:forces:R:3 energy=14.043580986218142 pbc="F F F"
Cs       0.00000000       0.00000000       0.00000000       0.00000000       0.00000000       6.62981558
Cs       0.00000000       0.00000000       1.47333333       0.00000000       0.00000000      -6.62981558
2
Properties=species:S:1:pos:R:3:forces:R:3 energy=14.412817138624801 pbc="F F F"
Cs       0.00000000       0.00000000       0.00000000       0.00000000       0.00000000       5.71382809
Cs       0.00000000       0.00000000       1.53212121       0.00000000       0.00000000      -5.71382809
2
Properties=species:S:1:pos:R:3:forces:R:3 energy=14.68960223029645 pbc="F F F"
Cs       0.00000000       0.00000000       0.00000000       0.00000000       0.00000000       3.49454427
Cs       0.00000000       0.00000000       1.59090909       0.00000000       0.00000000      -3.49454427
2
Properties=species:S:1:pos:R:3:forces:R:3 energy=14.802659604418755 pbc="F F F"
Cs       0.00000000       0.00000000       0.00000000       0.00000000       0.00000000       0.20842804
Cs       0.00000000       0.00000000       1.64969697       0.00000000       0.00000000      -0.20842804
2
Properties=species:S:1:pos:R:3:forces:R:3 energy=14.701425453487593 pbc="F F F"
Cs       0.00000000       0.00000000       0.00000000       0.00000000       0.00000000      -3.72735167
Cs       0.00000000       0.00000000       1.70848485       0.00000000       0.00000000       3.72735167
2
Properties=species:S:1:pos:R:3:forces:R:3 energy=14.358707671222737 pbc="F F F"
Cs       0.00000000       0.00000000       0.00000000       0.00000000       0.00000000      -7.95729733
Cs       0.00000000       0.00000000       1.76727273       0.00000000       0.00000000       7.95729733
2
Properties=species:S:1:pos:R:3:forces:R:3 energy=13.76578682285275 pbc="F F F"
Cs       0.00000000       0.00000000       0.00000000       0.00000000       0.00000000     -12.18804646
Cs       0.00000000       0.00000000       1.82606061       0.00000000       0.00000000      12.18804646
2
Properties=species:S:1:pos:R:3:forces:R:3 energy=12.93239134799885 pbc="F F F"
Cs       0.00000000       0.00000000       0.00000000       0.00000000       0.00000000     -16.07432365
Cs       0.00000000       0.00000000       1.88484848       0.00000000       0.00000000      16.07432365
2
Properties=species:S:1:pos:R:3:forces:R:3 energy=11.890677251516822 pbc="F F F"
Cs       0.00000000       0.00000000       0.00000000       0.00000000       0.00000000     -19.20459175
Cs       0.00000000       0.00000000       1.94363636       0.00000000       0.00000000      19.20459175
2
Properties=species:S:1:pos:R:3:forces:R:3 energy=10.696629039980445 pbc="F F F"
Cs       0.00000000       0.00000000       0.00000000       0.00000000       0.00000000     -21.20663071
Cs       0.00000000       0.00000000       2.00242424       0.00000000       0.00000000      21.20663071
2
Properties=species:S:1:pos:R:3:forces:R:3 energy=9.422925296791744 pbc="F F F"
Cs       0.00000000       0.00000000       0.00000000       0.00000000       0.00000000     -21.91103363
Cs       0.00000000       0.00000000       2.06121212       0.00000000       0.00000000      21.91103363
2
Properties=species:S:1:pos:R:3:forces:R:3 energy=8.143257402725036 pbc="F F F"
Cs       0.00000000       0.00000000       0.00000000       0.00000000       0.00000000     -21.45855904
Cs       0.00000000       0.00000000       2.12000000       0.00000000       0.00000000      21.45855904
2
Properties=species:S:1:pos:R:3:forces:R:3 energy=6.9154485579395955 pbc="F F F"
Cs       0.00000000       0.00000000       0.00000000       0.00000000       0.00000000     -20.21270752
Cs       0.00000000       0.00000000       2.17878788       0.00000000       0.00000000      20.21270752
2
Properties=species:S:1:pos:R:3:forces:R:3 energy=5.775208640966942 pbc="F F F"
Cs       0.00000000       0.00000000       0.00000000       0.00000000       0.00000000     -18.52869606
Cs       0.00000000       0.00000000       2.23757576       0.00000000       0.00000000      18.52869606
2
Properties=species:S:1:pos:R:3:forces:R:3 energy=4.7412397009958935 pbc="F F F"
Cs       0.00000000       0.00000000       0.00000000       0.00000000       0.00000000     -16.62144470
Cs       0.00000000       0.00000000       2.29636364       0.00000000       0.00000000      16.62144470
2
Properties=species:S:1:pos:R:3:forces:R:3 energy=3.8229881443076983 pbc="F F F"
Cs       0.00000000       0.00000000       0.00000000       0.00000000       0.00000000     -14.60882378
Cs       0.00000000       0.00000000       2.35515152       0.00000000       0.00000000      14.60882378
2
Properties=species:S:1:pos:R:3:forces:R:3 energy=3.023689336363342 pbc="F F F"
Cs       0.00000000       0.00000000       0.00000000       0.00000000       0.00000000     -12.59180737
Cs       0.00000000       0.00000000       2.41393939       0.00000000       0.00000000      12.59180737
2
Properties=species:S:1:pos:R:3:forces:R:3 energy=2.3404419915680483 pbc="F F F"
Cs       0.00000000       0.00000000       0.00000000       0.00000000       0.00000000     -10.67888832
Cs       0.00000000       0.00000000       2.47272727       0.00000000       0.00000000      10.67888832
2
Properties=species:S:1:pos:R:3:forces:R:3 energy=1.764253226463173 pbc="F F F"
Cs       0.00000000       0.00000000       0.00000000       0.00000000       0.00000000      -8.96156693
Cs       0.00000000       0.00000000       2.53151515       0.00000000       0.00000000       8.96156693
2
Properties=species:S:1:pos:R:3:forces:R:3 energy=1.2819394868964935 pbc="F F F"
Cs       0.00000000       0.00000000       0.00000000       0.00000000       0.00000000      -7.48988104
Cs       0.00000000       0.00000000       2.59030303       0.00000000       0.00000000       7.48988104
2
Properties=species:S:1:pos:R:3:forces:R:3 energy=0.8786039944914521 pbc="F F F"
Cs       0.00000000       0.00000000       0.00000000       0.00000000       0.00000000      -6.27350140
Cs       0.00000000       0.00000000       2.64909091       0.00000000       0.00000000       6.27350140
2
Properties=species:S:1:pos:R:3:forces:R:3 energy=0.5396295857635991 pbc="F F F"
Cs       0.00000000       0.00000000       0.00000000       0.00000000       0.00000000      -5.29632616
Cs       0.00000000       0.00000000       2.70787879       0.00000000       0.00000000       5.29632616
2
Properties=species:S:1:pos:R:3:forces:R:3 energy=0.2518142934772088 pbc="F F F"
Cs       0.00000000       0.00000000       0.00000000       0.00000000       0.00000000      -4.52665091
Cs       0.00000000       0.00000000       2.76666667       0.00000000       0.00000000       4.52665091
2
Properties=species:S:1:pos:R:3:forces:R:3 energy=0.0041362216654491114 pbc="F F F"
Cs       0.00000000       0.00000000       0.00000000       0.00000000       0.00000000      -3.92360640
Cs       0.00000000       0.00000000       2.82545455       0.00000000       0.00000000       3.92360640
2
Properties=species:S:1:pos:R:3:forces:R:3 energy=-0.21190728745577445 pbc="F F F"
Cs       0.00000000       0.00000000       0.00000000       0.00000000       0.00000000      -3.44316745
Cs       0.00000000       0.00000000       2.88424242       0.00000000       0.00000000       3.44316745
2
Properties=species:S:1:pos:R:3:forces:R:3 energy=-0.40228848539048484 pbc="F F F"
Cs       0.00000000       0.00000000       0.00000000       0.00000000       0.00000000      -3.04425240
Cs       0.00000000       0.00000000       2.94303030       0.00000000       0.00000000       3.04425240
2
Properties=species:S:1:pos:R:3:forces:R:3 energy=-0.5707765513165726 pbc="F F F"
Cs       0.00000000       0.00000000       0.00000000       0.00000000       0.00000000      -2.69360662
Cs       0.00000000       0.00000000       3.00181818       0.00000000       0.00000000       2.69360662
2
Properties=species:S:1:pos:R:3:forces:R:3 energy=-0.7194899340737295 pbc="F F F"
Cs       0.00000000       0.00000000       0.00000000       0.00000000       0.00000000      -2.36881065
Cs       0.00000000       0.00000000       3.06060606       0.00000000       0.00000000       2.36881065
2
Properties=species:S:1:pos:R:3:forces:R:3 energy=-0.8495773862691361 pbc="F F F"
Cs       0.00000000       0.00000000       0.00000000       0.00000000       0.00000000      -2.05902100
Cs       0.00000000       0.00000000       3.11939394       0.00000000       0.00000000       2.05902100
2
Properties=species:S:1:pos:R:3:forces:R:3 energy=-0.9618591157481929 pbc="F F F"
Cs       0.00000000       0.00000000       0.00000000       0.00000000       0.00000000      -1.76359940
Cs       0.00000000       0.00000000       3.17818182       0.00000000       0.00000000       1.76359940
2
Properties=species:S:1:pos:R:3:forces:R:3 energy=-1.057336642933974 pbc="F F F"
Cs       0.00000000       0.00000000       0.00000000       0.00000000       0.00000000      -1.48876297
Cs       0.00000000       0.00000000       3.23696970       0.00000000       0.00000000       1.48876297
2
Properties=species:S:1:pos:R:3:forces:R:3 energy=-1.1374737802905204 pbc="F F F"
Cs       0.00000000       0.00000000       0.00000000       0.00000000       0.00000000      -1.24309492
Cs       0.00000000       0.00000000       3.29575758       0.00000000       0.00000000       1.24309492
2
Properties=species:S:1:pos:R:3:forces:R:3 energy=-1.2042027104126958 pbc="F F F"
Cs       0.00000000       0.00000000       0.00000000       0.00000000       0.00000000      -1.03343368
Cs       0.00000000       0.00000000       3.35454545       0.00000000       0.00000000       1.03343368
2
Properties=species:S:1:pos:R:3:forces:R:3 energy=-1.2597446936707914 pbc="F F F"
Cs       0.00000000       0.00000000       0.00000000       0.00000000       0.00000000      -0.86261731
Cs       0.00000000       0.00000000       3.41333333       0.00000000       0.00000000       0.86261731
2
Properties=species:S:1:pos:R:3:forces:R:3 energy=-1.3063639073632483 pbc="F F F"
Cs       0.00000000       0.00000000       0.00000000       0.00000000       0.00000000      -0.72936606
Cs       0.00000000       0.00000000       3.47212121       0.00000000       0.00000000       0.72936606
2
Properties=species:S:1:pos:R:3:forces:R:3 energy=-1.346151676902569 pbc="F F F"
Cs       0.00000000       0.00000000       0.00000000       0.00000000       0.00000000      -0.62929100
Cs       0.00000000       0.00000000       3.53090909       0.00000000       0.00000000       0.62929100
2
Properties=species:S:1:pos:R:3:forces:R:3 energy=-1.3808787723377438 pbc="F F F"
Cs       0.00000000       0.00000000       0.00000000       0.00000000       0.00000000      -0.55599934
Cs       0.00000000       0.00000000       3.58969697       0.00000000       0.00000000       0.55599934
2
Properties=species:S:1:pos:R:3:forces:R:3 energy=-1.4119029138248909 pbc="F F F"
Cs       0.00000000       0.00000000       0.00000000       0.00000000       0.00000000      -0.50206363
Cs       0.00000000       0.00000000       3.64848485       0.00000000       0.00000000       0.50206363
2
Properties=species:S:1:pos:R:3:forces:R:3 energy=-1.4401395693110952 pbc="F F F"
Cs       0.00000000       0.00000000       0.00000000       0.00000000       0.00000000      -0.45991156
Cs       0.00000000       0.00000000       3.70727273       0.00000000       0.00000000       0.45991156
2
Properties=species:S:1:pos:R:3:forces:R:3 energy=-1.4660731522880701 pbc="F F F"
Cs       0.00000000       0.00000000       0.00000000       0.00000000       0.00000000      -0.42266259
Cs       0.00000000       0.00000000       3.76606061       0.00000000       0.00000000       0.42266259
2
Properties=species:S:1:pos:R:3:forces:R:3 energy=-1.489821415399359 pbc="F F F"
Cs       0.00000000       0.00000000       0.00000000       0.00000000       0.00000000      -0.38483104
Cs       0.00000000       0.00000000       3.82484848       0.00000000       0.00000000       0.38483104
2
Properties=species:S:1:pos:R:3:forces:R:3 energy=-1.511238204096195 pbc="F F F"
Cs       0.00000000       0.00000000       0.00000000       0.00000000       0.00000000      -0.34291354
Cs       0.00000000       0.00000000       3.88363636       0.00000000       0.00000000       0.34291354
2
Properties=species:S:1:pos:R:3:forces:R:3 energy=-1.5300365059668941 pbc="F F F"
Cs       0.00000000       0.00000000       0.00000000       0.00000000       0.00000000      -0.29580006
Cs       0.00000000       0.00000000       3.94242424       0.00000000       0.00000000       0.29580006
2
Properties=species:S:1:pos:R:3:forces:R:3 energy=-1.5459384112713779 pbc="F F F"
Cs       0.00000000       0.00000000       0.00000000       0.00000000       0.00000000      -0.24475373
Cs       0.00000000       0.00000000       4.00121212       0.00000000       0.00000000       0.24475373
2
Properties=species:S:1:pos:R:3:forces:R:3 energy=-1.5587953012476161 pbc="F F F"
Cs       0.00000000       0.00000000       0.00000000       0.00000000       0.00000000      -0.19279490
Cs       0.00000000       0.00000000       4.06000000       0.00000000       0.00000000       0.19279490
2
Properties=species:S:1:pos:R:3:forces:R:3 energy=-1.5686615360836376 pbc="F F F"
Cs       0.00000000       0.00000000       0.00000000       0.00000000       0.00000000      -0.14362451
Cs       0.00000000       0.00000000       4.11878788       0.00000000       0.00000000       0.14362451
2
Properties=species:S:1:pos:R:3:forces:R:3 energy=-1.575800436764805 pbc="F F F"
Cs       0.00000000       0.00000000       0.00000000       0.00000000       0.00000000      -0.10043043
Cs       0.00000000       0.00000000       4.17757576       0.00000000       0.00000000       0.10043043
2
Properties=species:S:1:pos:R:3:forces:R:3 energy=-1.5806230376335206 pbc="F F F"
Cs       0.00000000       0.00000000       0.00000000       0.00000000       0.00000000      -0.06501161
Cs       0.00000000       0.00000000       4.23636364       0.00000000       0.00000000       0.06501161
2
Properties=species:S:1:pos:R:3:forces:R:3 energy=-1.583598737234815 pbc="F F F"
Cs       0.00000000       0.00000000       0.00000000       0.00000000       0.00000000      -0.03743788
Cs       0.00000000       0.00000000       4.29515152       0.00000000       0.00000000       0.03743788
2
Properties=species:S:1:pos:R:3:forces:R:3 energy=-1.5851513842458163 pbc="F F F"
Cs       0.00000000       0.00000000       0.00000000       0.00000000       0.00000000      -0.01628400
Cs       0.00000000       0.00000000       4.35393939       0.00000000       0.00000000       0.01628400
2
Properties=species:S:1:pos:R:3:forces:R:3 energy=-1.5855933186846678 pbc="F F F"
Cs       0.00000000       0.00000000       0.00000000       0.00000000       0.00000000       0.00078998
Cs       0.00000000       0.00000000       4.41272727       0.00000000       0.00000000      -0.00078998
2
Properties=species:S:1:pos:R:3:forces:R:3 energy=-1.585087567102628 pbc="F F F"
Cs       0.00000000       0.00000000       0.00000000       0.00000000       0.00000000       0.01638075
Cs       0.00000000       0.00000000       4.47151515       0.00000000       0.00000000      -0.01638075
2
Properties=species:S:1:pos:R:3:forces:R:3 energy=-1.5836494346544738 pbc="F F F"
Cs       0.00000000       0.00000000       0.00000000       0.00000000       0.00000000       0.03287830
Cs       0.00000000       0.00000000       4.53030303       0.00000000       0.00000000      -0.03287830
2
Properties=species:S:1:pos:R:3:forces:R:3 energy=-1.5811645781451735 pbc="F F F"
Cs       0.00000000       0.00000000       0.00000000       0.00000000       0.00000000       0.05228544
Cs       0.00000000       0.00000000       4.58909091       0.00000000       0.00000000      -0.05228544
2
Properties=species:S:1:pos:R:3:forces:R:3 energy=-1.5774115218744906 pbc="F F F"
Cs       0.00000000       0.00000000       0.00000000       0.00000000       0.00000000       0.07631423
Cs       0.00000000       0.00000000       4.64787879       0.00000000       0.00000000      -0.07631423
2
Properties=species:S:1:pos:R:3:forces:R:3 energy=-1.5720695190345246 pbc="F F F"
Cs       0.00000000       0.00000000       0.00000000       0.00000000       0.00000000       0.10659805
Cs       0.00000000       0.00000000       4.70666667       0.00000000       0.00000000      -0.10659805
2
Properties=species:S:1:pos:R:3:forces:R:3 energy=-1.5647223544077569 pbc="F F F"
Cs       0.00000000       0.00000000       0.00000000       0.00000000       0.00000000       0.14482483
Cs       0.00000000       0.00000000       4.76545455       0.00000000       0.00000000      -0.14482483
2
Properties=species:S:1:pos:R:3:forces:R:3 energy=-1.5548534760092583 pbc="F F F"
Cs       0.00000000       0.00000000       0.00000000       0.00000000       0.00000000       0.19258268
Cs       0.00000000       0.00000000       4.82424242       0.00000000       0.00000000      -0.19258268
2
Properties=species:S:1:pos:R:3:forces:R:3 energy=-1.5418767539714777 pbc="F F F"
Cs       0.00000000       0.00000000       0.00000000       0.00000000       0.00000000       0.25069302
Cs       0.00000000       0.00000000       4.88303030       0.00000000       0.00000000      -0.25069302
2
Properties=species:S:1:pos:R:3:forces:R:3 energy=-1.5251898272616649 pbc="F F F"
Cs       0.00000000       0.00000000       0.00000000       0.00000000       0.00000000       0.31835157
Cs       0.00000000       0.00000000       4.94181818       0.00000000       0.00000000      -0.31835157
2
Properties=species:S:1:pos:R:3:forces:R:3 energy=-1.5043139580898643 pbc="F F F"
Cs       0.00000000       0.00000000       0.00000000       0.00000000       0.00000000       0.39269432
Cs       0.00000000       0.00000000       5.00060606       0.00000000       0.00000000      -0.39269432
2
Properties=species:S:1:pos:R:3:forces:R:3 energy=-1.4789430397671013 pbc="F F F"
Cs       0.00000000       0.00000000       0.00000000       0.00000000       0.00000000       0.47098398
Cs       0.00000000       0.00000000       5.05939394       0.00000000       0.00000000      -0.47098398
2
Properties=species:S:1:pos:R:3:forces:R:3 energy=-1.448809852659352 pbc="F F F"
Cs       0.00000000       0.00000000       0.00000000       0.00000000       0.00000000       0.55621082
Cs       0.00000000       0.00000000       5.11818182       0.00000000       0.00000000      -0.55621082
2
Properties=species:S:1:pos:R:3:forces:R:3 energy=-1.4131541351324413 pbc="F F F"
Cs       0.00000000       0.00000000       0.00000000       0.00000000       0.00000000       0.66166341
Cs       0.00000000       0.00000000       5.17696970       0.00000000       0.00000000      -0.66166341
2
Properties=species:S:1:pos:R:3:forces:R:3 energy=-1.370326937537829 pbc="F F F"
Cs       0.00000000       0.00000000       0.00000000       0.00000000       0.00000000       0.80138117
Cs       0.00000000       0.00000000       5.23575758       0.00000000       0.00000000      -0.80138117
2
Properties=species:S:1:pos:R:3:forces:R:3 energy=-1.3184629697113959 pbc="F F F"
Cs       0.00000000       0.00000000       0.00000000       0.00000000       0.00000000       0.96355939
Cs       0.00000000       0.00000000       5.29454545       0.00000000       0.00000000      -0.96355939
2
Properties=species:S:1:pos:R:3:forces:R:3 energy=-1.2575611871981676 pbc="F F F"
Cs       0.00000000       0.00000000       0.00000000       0.00000000       0.00000000       1.09877706
Cs       0.00000000       0.00000000       5.35333333       0.00000000       0.00000000      -1.09877706
2
Properties=species:S:1:pos:R:3:forces:R:3 energy=-1.190741142636046 pbc="F F F"
Cs       0.00000000       0.00000000       0.00000000       0.00000000       0.00000000       1.16192913
Cs       0.00000000       0.00000000       5.41212121       0.00000000       0.00000000      -1.16192913
2
Properties=species:S:1:pos:R:3:forces:R:3 energy=-1.121886753302352 pbc="F F F"
Cs       0.00000000       0.00000000       0.00000000       0.00000000       0.00000000       1.18037200
Cs       0.00000000       0.00000000       5.47090909       0.00000000       0.00000000      -1.18037200
2
Properties=species:S:1:pos:R:3:forces:R:3 energy=-1.0505635805777362 pbc="F F F"
Cs       0.00000000       0.00000000       0.00000000       0.00000000       0.00000000       1.26982856
Cs       0.00000000       0.00000000       5.52969697       0.00000000       0.00000000      -1.26982856
2
Properties=species:S:1:pos:R:3:forces:R:3 energy=-0.9687575590916412 pbc="F F F"
Cs       0.00000000       0.00000000       0.00000000       0.00000000       0.00000000       1.54949057
Cs       0.00000000       0.00000000       5.58848485       0.00000000       0.00000000      -1.54949057
2
Properties=species:S:1:pos:R:3:forces:R:3 energy=-0.8651593194053095 pbc="F F F"
Cs       0.00000000       0.00000000       0.00000000       0.00000000       0.00000000       1.98849940
Cs       0.00000000       0.00000000       5.64727273       0.00000000       0.00000000      -1.98849940
2
Properties=species:S:1:pos:R:3:forces:R:3 energy=-0.7368275263488434 pbc="F F F"
Cs       0.00000000       0.00000000       0.00000000       0.00000000       0.00000000       2.32958698
Cs       0.00000000       0.00000000       5.70606061       0.00000000       0.00000000      -2.32958698
2
Properties=species:S:1:pos:R:3:forces:R:3 energy=-0.5992967083442042 pbc="F F F"
Cs       0.00000000       0.00000000       0.00000000       0.00000000       0.00000000       2.25170851
Cs       0.00000000       0.00000000       5.76484848       0.00000000       0.00000000      -2.25170851
2
Properties=species:S:1:pos:R:3:forces:R:3 energy=-0.48189592248458213 pbc="F F F"
Cs       0.00000000       0.00000000       0.00000000       0.00000000       0.00000000       1.67566526
Cs       0.00000000       0.00000000       5.82363636       0.00000000       0.00000000      -1.67566526
2
Properties=species:S:1:pos:R:3:forces:R:3 energy=-0.4073479891087454 pbc="F F F"
Cs       0.00000000       0.00000000       0.00000000       0.00000000       0.00000000       0.86568260
Cs       0.00000000       0.00000000       5.88242424       0.00000000       0.00000000      -0.86568260
2
Properties=species:S:1:pos:R:3:forces:R:3 energy=-0.37712098672203137 pbc="F F F"
Cs       0.00000000       0.00000000       0.00000000       0.00000000       0.00000000       0.20965211
Cs       0.00000000       0.00000000       5.94121212       0.00000000       0.00000000      -0.20965211
2
Properties=species:S:1:pos:R:3:forces:R:3 energy=-0.37427613180055985 pbc="F F F"
Cs       0.00000000       0.00000000       0.00000000       0.00000000       0.00000000      -0.02732363
Cs       0.00000000       0.00000000       6.00000000       0.00000000       0.00000000       0.02732363
