2
Properties=species:S:1:pos:R:3:forces:R:3 energy=12687.09488031777 pbc="F F F"
Dy       0.00000000       0.00000000       0.00000000       0.00000000       0.00000000 -219071.48437500
Dy       0.00000000       0.00000000       0.18000000       0.00000000       0.00000000  219071.48437500
2
Properties=species:S:1:pos:R:3:forces:R:3 energy=4996.615876411521 pbc="F F F"
Dy       0.00000000       0.00000000       0.00000000       0.00000000       0.00000000  -73248.71875000
Dy       0.00000000       0.00000000       0.23878788       0.00000000       0.00000000   73248.71875000
2
Properties=species:S:1:pos:R:3:forces:R:3 energy=2224.6722728958957 pbc="F F F"
Dy       0.00000000       0.00000000       0.00000000       0.00000000       0.00000000  -28830.34960938
Dy       0.00000000       0.00000000       0.29757576       0.00000000       0.00000000   28830.34960938
2
Properties=species:S:1:pos:R:3:forces:R:3 energy=1081.5537426351295 pbc="F F F"
Dy       0.00000000       0.00000000       0.00000000       0.00000000       0.00000000  -12554.78320312
Dy       0.00000000       0.00000000       0.35636364       0.00000000       0.00000000   12554.78320312
2
Properties=species:S:1:pos:R:3:forces:R:3 energy=567.1899120687233 pbc="F F F"
Dy       0.00000000       0.00000000       0.00000000       0.00000000       0.00000000   -5873.14990234
Dy       0.00000000       0.00000000       0.41515152       0.00000000       0.00000000    5873.14990234
2
Properties=species:S:1:pos:R:3:forces:R:3 energy=320.2438061243634 pbc="F F F"
Dy       0.00000000       0.00000000       0.00000000       0.00000000       0.00000000   -2908.76220703
Dy       0.00000000       0.00000000       0.47393939       0.00000000       0.00000000    2908.76220703
2
Properties=species:S:1:pos:R:3:forces:R:3 energy=195.21829344172215 pbc="F F F"
Dy       0.00000000       0.00000000       0.00000000       0.00000000       0.00000000   -1511.62951660
Dy       0.00000000       0.00000000       0.53272727       0.00000000       0.00000000    1511.62951660
2
Properties=species:S:1:pos:R:3:forces:R:3 energy=129.02488832836883 pbc="F F F"
Dy       0.00000000       0.00000000       0.00000000       0.00000000       0.00000000    -817.58947754
Dy       0.00000000       0.00000000       0.59151515       0.00000000       0.00000000     817.58947754
2
Properties=species:S:1:pos:R:3:forces:R:3 energy=92.70556770034305 pbc="F F F"
Dy       0.00000000       0.00000000       0.00000000       0.00000000       0.00000000    -455.52844238
Dy       0.00000000       0.00000000       0.65030303       0.00000000       0.00000000     455.52844238
2
Properties=species:S:1:pos:R:3:forces:R:3 energy=72.29864637698076 pbc="F F F"
Dy       0.00000000       0.00000000       0.00000000       0.00000000       0.00000000    -257.82336426
Dy       0.00000000       0.00000000       0.70909091       0.00000000       0.00000000     257.82336426
2
Properties=species:S:1:pos:R:3:forces:R:3 energy=60.73740534112 pbc="F F F"
Dy       0.00000000       0.00000000       0.00000000       0.00000000       0.00000000    -145.80383301
Dy       0.00000000       0.00000000       0.76787879       0.00000000       0.00000000     145.80383301
2
Properties=species:S:1:pos:R:3:forces:R:3 energy=54.23208781785848 pbc="F F F"
Dy       0.00000000       0.00000000       0.00000000       0.00000000       0.00000000     -81.49988556
Dy       0.00000000       0.00000000       0.82666667       0.00000000       0.00000000      81.49988556
2
Properties=species:S:1:pos:R:3:forces:R:3 energy=50.60310935470749 pbc="F F F"
Dy       0.00000000       0.00000000       0.00000000       0.00000000       0.00000000     -45.59897232
Dy       0.00000000       0.00000000       0.88545455       0.00000000       0.00000000      45.59897232
2
Properties=species:S:1:pos:R:3:forces:R:3 energy=48.5397208596981 pbc="F F F"
Dy       0.00000000       0.00000000       0.00000000       0.00000000       0.00000000     -26.71256828
Dy       0.00000000       0.00000000       0.94424242       0.00000000       0.00000000      26.71256828
2
Properties=species:S:1:pos:R:3:forces:R:3 energy=47.27318081386332 pbc="F F F"
Dy       0.00000000       0.00000000       0.00000000       0.00000000       0.00000000     -17.61586189
Dy       0.00000000       0.00000000       1.00303030       0.00000000       0.00000000      17.61586189
2
Properties=species:S:1:pos:R:3:forces:R:3 energy=46.34573698941993 pbc="F F F"
Dy       0.00000000       0.00000000       0.00000000       0.00000000       0.00000000     -14.86635208
Dy       0.00000000       0.00000000       1.06181818       0.00000000       0.00000000      14.86635208
2
Properties=species:S:1:pos:R:3:forces:R:3 energy=45.42273367533436 pbc="F F F"
Dy       0.00000000       0.00000000       0.00000000       0.00000000       0.00000000     -17.35153961
Dy       0.00000000       0.00000000       1.12060606       0.00000000       0.00000000      17.35153961
2
Properties=species:S:1:pos:R:3:forces:R:3 energy=44.21750789221439 pbc="F F F"
Dy       0.00000000       0.00000000       0.00000000       0.00000000       0.00000000     -24.31561279
Dy       0.00000000       0.00000000       1.17939394       0.00000000       0.00000000      24.31561279
2
Properties=species:S:1:pos:R:3:forces:R:3 energy=42.49907975864032 pbc="F F F"
Dy       0.00000000       0.00000000       0.00000000       0.00000000       0.00000000     -34.55844116
Dy       0.00000000       0.00000000       1.23818182       0.00000000       0.00000000      34.55844116
2
Properties=species:S:1:pos:R:3:forces:R:3 energy=40.1267747722467 pbc="F F F"
Dy       0.00000000       0.00000000       0.00000000       0.00000000       0.00000000     -46.19241333
Dy       0.00000000       0.00000000       1.29696970       0.00000000       0.00000000      46.19241333
2
Properties=species:S:1:pos:R:3:forces:R:3 energy=37.08219852617513 pbc="F F F"
Dy       0.00000000       0.00000000       0.00000000       0.00000000       0.00000000     -57.14632416
Dy       0.00000000       0.00000000       1.35575758       0.00000000       0.00000000      57.14632416
2
Properties=species:S:1:pos:R:3:forces:R:3 energy=33.441149181806466 pbc="F F F"
Dy       0.00000000       0.00000000       0.00000000       0.00000000       0.00000000     -66.43840790
Dy       0.00000000       0.00000000       1.41454545       0.00000000       0.00000000      66.43840790
2
Properties=species:S:1:pos:R:3:forces:R:3 energy=29.30346891204422 pbc="F F F"
Dy       0.00000000       0.00000000       0.00000000       0.00000000       0.00000000     -74.00573730
Dy       0.00000000       0.00000000       1.47333333       0.00000000       0.00000000      74.00573730
2
Properties=species:S:1:pos:R:3:forces:R:3 energy=24.797451860032727 pbc="F F F"
Dy       0.00000000       0.00000000       0.00000000       0.00000000       0.00000000     -78.54673767
Dy       0.00000000       0.00000000       1.53212121       0.00000000       0.00000000      78.54673767
2
Properties=species:S:1:pos:R:3:forces:R:3 energy=20.190350120868658 pbc="F F F"
Dy       0.00000000       0.00000000       0.00000000       0.00000000       0.00000000     -76.94174194
Dy       0.00000000       0.00000000       1.59090909       0.00000000       0.00000000      76.94174194
2
Properties=species:S:1:pos:R:3:forces:R:3 energy=15.890349843483648 pbc="F F F"
Dy       0.00000000       0.00000000       0.00000000       0.00000000       0.00000000     -68.43235779
Dy       0.00000000       0.00000000       1.64969697       0.00000000       0.00000000      68.43235779
2
Properties=species:S:1:pos:R:3:forces:R:3 energy=12.200795003506496 pbc="F F F"
Dy       0.00000000       0.00000000       0.00000000       0.00000000       0.00000000     -57.01698685
Dy       0.00000000       0.00000000       1.70848485       0.00000000       0.00000000      57.01698685
2
Properties=species:S:1:pos:R:3:forces:R:3 energy=9.165397465970303 pbc="F F F"
Dy       0.00000000       0.00000000       0.00000000       0.00000000       0.00000000     -46.56639862
Dy       0.00000000       0.00000000       1.76727273       0.00000000       0.00000000      46.56639862
2
Properties=species:S:1:pos:R:3:forces:R:3 energy=6.685096033209479 pbc="F F F"
Dy       0.00000000       0.00000000       0.00000000       0.00000000       0.00000000     -38.15125656
Dy       0.00000000       0.00000000       1.82606061       0.00000000       0.00000000      38.15125656
2
Properties=species:S:1:pos:R:3:forces:R:3 energy=4.644698068482561 pbc="F F F"
Dy       0.00000000       0.00000000       0.00000000       0.00000000       0.00000000     -31.51552391
Dy       0.00000000       0.00000000       1.88484848       0.00000000       0.00000000      31.51552391
2
Properties=species:S:1:pos:R:3:forces:R:3 energy=2.956073439823765 pbc="F F F"
Dy       0.00000000       0.00000000       0.00000000       0.00000000       0.00000000     -26.08645248
Dy       0.00000000       0.00000000       1.94363636       0.00000000       0.00000000      26.08645248
2
Properties=species:S:1:pos:R:3:forces:R:3 energy=1.5637426178815268 pbc="F F F"
Dy       0.00000000       0.00000000       0.00000000       0.00000000       0.00000000     -21.37080765
Dy       0.00000000       0.00000000       2.00242424       0.00000000       0.00000000      21.37080765
2
Properties=species:S:1:pos:R:3:forces:R:3 energy=0.43482877599213654 pbc="F F F"
Dy       0.00000000       0.00000000       0.00000000       0.00000000       0.00000000     -17.09826660
Dy       0.00000000       0.00000000       2.06121212       0.00000000       0.00000000      17.09826660
2
Properties=species:S:1:pos:R:3:forces:R:3 energy=-0.45363722054524147 pbc="F F F"
Dy       0.00000000       0.00000000       0.00000000       0.00000000       0.00000000     -13.18861198
Dy       0.00000000       0.00000000       2.12000000       0.00000000       0.00000000      13.18861198
2
Properties=species:S:1:pos:R:3:forces:R:3 energy=-1.1235810548487157 pbc="F F F"
Dy       0.00000000       0.00000000       0.00000000       0.00000000       0.00000000      -9.67619514
Dy       0.00000000       0.00000000       2.17878788       0.00000000       0.00000000       9.67619514
2
Properties=species:S:1:pos:R:3:forces:R:3 energy=-1.6010679019308915 pbc="F F F"
Dy       0.00000000       0.00000000       0.00000000       0.00000000       0.00000000      -6.66224384
Dy       0.00000000       0.00000000       2.23757576       0.00000000       0.00000000       6.66224384
2
Properties=species:S:1:pos:R:3:forces:R:3 energy=-1.9194174486302562 pbc="F F F"
Dy       0.00000000       0.00000000       0.00000000       0.00000000       0.00000000      -4.28682613
Dy       0.00000000       0.00000000       2.29636364       0.00000000       0.00000000       4.28682613
2
Properties=species:S:1:pos:R:3:forces:R:3 energy=-2.1200220903218097 pbc="F F F"
Dy       0.00000000       0.00000000       0.00000000       0.00000000       0.00000000      -2.66894174
Dy       0.00000000       0.00000000       2.35515152       0.00000000       0.00000000       2.66894174
2
Properties=species:S:1:pos:R:3:forces:R:3 energy=-2.24804223278623 pbc="F F F"
Dy       0.00000000       0.00000000       0.00000000       0.00000000       0.00000000      -1.80076075
Dy       0.00000000       0.00000000       2.41393939       0.00000000       0.00000000       1.80076075
2
Properties=species:S:1:pos:R:3:forces:R:3 energy=-2.342863707790625 pbc="F F F"
Dy       0.00000000       0.00000000       0.00000000       0.00000000       0.00000000      -1.49635029
Dy       0.00000000       0.00000000       2.47272727       0.00000000       0.00000000       1.49635029
2
Properties=species:S:1:pos:R:3:forces:R:3 energy=-2.4294745687241615 pbc="F F F"
Dy       0.00000000       0.00000000       0.00000000       0.00000000       0.00000000      -1.47417259
Dy       0.00000000       0.00000000       2.53151515       0.00000000       0.00000000       1.47417259
2
Properties=species:S:1:pos:R:3:forces:R:3 energy=-2.516910129792857 pbc="F F F"
Dy       0.00000000       0.00000000       0.00000000       0.00000000       0.00000000      -1.49275208
Dy       0.00000000       0.00000000       2.59030303       0.00000000       0.00000000       1.49275208
2
Properties=species:S:1:pos:R:3:forces:R:3 energy=-2.6031738137865448 pbc="F F F"
Dy       0.00000000       0.00000000       0.00000000       0.00000000       0.00000000      -1.42239714
Dy       0.00000000       0.00000000       2.64909091       0.00000000       0.00000000       1.42239714
2
Properties=species:S:1:pos:R:3:forces:R:3 energy=-2.681825824169766 pbc="F F F"
Dy       0.00000000       0.00000000       0.00000000       0.00000000       0.00000000      -1.23532403
Dy       0.00000000       0.00000000       2.70787879       0.00000000       0.00000000       1.23532403
2
Properties=species:S:1:pos:R:3:forces:R:3 energy=-2.7466875064430063 pbc="F F F"
Dy       0.00000000       0.00000000       0.00000000       0.00000000       0.00000000      -0.96038204
Dy       0.00000000       0.00000000       2.76666667       0.00000000       0.00000000       0.96038204
2
Properties=species:S:1:pos:R:3:forces:R:3 energy=-2.7939013987077286 pbc="F F F"
Dy       0.00000000       0.00000000       0.00000000       0.00000000       0.00000000      -0.64229786
Dy       0.00000000       0.00000000       2.82545455       0.00000000       0.00000000       0.64229786
2
Properties=species:S:1:pos:R:3:forces:R:3 energy=-2.8221219158445017 pbc="F F F"
Dy       0.00000000       0.00000000       0.00000000       0.00000000       0.00000000      -0.31948414
Dy       0.00000000       0.00000000       2.88424242       0.00000000       0.00000000       0.31948414
2
Properties=species:S:1:pos:R:3:forces:R:3 energy=-2.831868694970034 pbc="F F F"
Dy       0.00000000       0.00000000       0.00000000       0.00000000       0.00000000      -0.01680019
Dy       0.00000000       0.00000000       2.94303030       0.00000000       0.00000000       0.01680019
2
Properties=species:S:1:pos:R:3:forces:R:3 energy=-2.824730518137456 pbc="F F F"
Dy       0.00000000       0.00000000       0.00000000       0.00000000       0.00000000       0.25385028
Dy       0.00000000       0.00000000       3.00181818       0.00000000       0.00000000      -0.25385028
2
Properties=species:S:1:pos:R:3:forces:R:3 energy=-2.80272543021207 pbc="F F F"
Dy       0.00000000       0.00000000       0.00000000       0.00000000       0.00000000       0.48868883
Dy       0.00000000       0.00000000       3.06060606       0.00000000       0.00000000      -0.48868883
2
Properties=species:S:1:pos:R:3:forces:R:3 energy=-2.768004138159468 pbc="F F F"
Dy       0.00000000       0.00000000       0.00000000       0.00000000       0.00000000       0.68614107
Dy       0.00000000       0.00000000       3.11939394       0.00000000       0.00000000      -0.68614107
2
Properties=species:S:1:pos:R:3:forces:R:3 energy=-2.7228325788107757 pbc="F F F"
Dy       0.00000000       0.00000000       0.00000000       0.00000000       0.00000000       0.84374386
Dy       0.00000000       0.00000000       3.17818182       0.00000000       0.00000000      -0.84374386
2
Properties=species:S:1:pos:R:3:forces:R:3 energy=-2.6696281458153868 pbc="F F F"
Dy       0.00000000       0.00000000       0.00000000       0.00000000       0.00000000       0.95919377
Dy       0.00000000       0.00000000       3.23696970       0.00000000       0.00000000      -0.95919377
2
Properties=species:S:1:pos:R:3:forces:R:3 energy=-2.61087437380351 pbc="F F F"
Dy       0.00000000       0.00000000       0.00000000       0.00000000       0.00000000       1.03296566
Dy       0.00000000       0.00000000       3.29575758       0.00000000       0.00000000      -1.03296566
2
Properties=species:S:1:pos:R:3:forces:R:3 energy=-2.5489105034798434 pbc="F F F"
Dy       0.00000000       0.00000000       0.00000000       0.00000000       0.00000000       1.06939030
Dy       0.00000000       0.00000000       3.35454545       0.00000000       0.00000000      -1.06939030
2
Properties=species:S:1:pos:R:3:forces:R:3 energy=-2.4857292139694778 pbc="F F F"
Dy       0.00000000       0.00000000       0.00000000       0.00000000       0.00000000       1.07581317
Dy       0.00000000       0.00000000       3.41333333       0.00000000       0.00000000      -1.07581317
2
Properties=species:S:1:pos:R:3:forces:R:3 energy=-2.422834801777193 pbc="F F F"
Dy       0.00000000       0.00000000       0.00000000       0.00000000       0.00000000       1.06112599
Dy       0.00000000       0.00000000       3.47212121       0.00000000       0.00000000      -1.06112599
2
Properties=species:S:1:pos:R:3:forces:R:3 energy=-2.3611978812574317 pbc="F F F"
Dy       0.00000000       0.00000000       0.00000000       0.00000000       0.00000000       1.03462160
Dy       0.00000000       0.00000000       3.53090909       0.00000000       0.00000000      -1.03462160
2
Properties=species:S:1:pos:R:3:forces:R:3 energy=-2.301248044323501 pbc="F F F"
Dy       0.00000000       0.00000000       0.00000000       0.00000000       0.00000000       1.00506949
Dy       0.00000000       0.00000000       3.58969697       0.00000000       0.00000000      -1.00506949
2
Properties=species:S:1:pos:R:3:forces:R:3 energy=-2.2429425503409304 pbc="F F F"
Dy       0.00000000       0.00000000       0.00000000       0.00000000       0.00000000       0.97964936
Dy       0.00000000       0.00000000       3.64848485       0.00000000       0.00000000      -0.97964936
2
Properties=species:S:1:pos:R:3:forces:R:3 energy=-2.185895812758501 pbc="F F F"
Dy       0.00000000       0.00000000       0.00000000       0.00000000       0.00000000       0.96274596
Dy       0.00000000       0.00000000       3.70727273       0.00000000       0.00000000      -0.96274596
2
Properties=species:S:1:pos:R:3:forces:R:3 energy=-2.1295608966674817 pbc="F F F"
Dy       0.00000000       0.00000000       0.00000000       0.00000000       0.00000000       0.95523053
Dy       0.00000000       0.00000000       3.76606061       0.00000000       0.00000000      -0.95523053
2
Properties=species:S:1:pos:R:3:forces:R:3 energy=-2.073440942564348 pbc="F F F"
Dy       0.00000000       0.00000000       0.00000000       0.00000000       0.00000000       0.95493078
Dy       0.00000000       0.00000000       3.82484848       0.00000000       0.00000000      -0.95493078
2
Properties=species:S:1:pos:R:3:forces:R:3 energy=-2.0172132482140146 pbc="F F F"
Dy       0.00000000       0.00000000       0.00000000       0.00000000       0.00000000       0.95826101
Dy       0.00000000       0.00000000       3.88363636       0.00000000       0.00000000      -0.95826101
2
Properties=species:S:1:pos:R:3:forces:R:3 energy=-1.9607636159324144 pbc="F F F"
Dy       0.00000000       0.00000000       0.00000000       0.00000000       0.00000000       0.96211576
Dy       0.00000000       0.00000000       3.94242424       0.00000000       0.00000000      -0.96211576
2
Properties=species:S:1:pos:R:3:forces:R:3 energy=-1.904113891177437 pbc="F F F"
Dy       0.00000000       0.00000000       0.00000000       0.00000000       0.00000000       0.96494865
Dy       0.00000000       0.00000000       4.00121212       0.00000000       0.00000000      -0.96494865
2
Properties=species:S:1:pos:R:3:forces:R:3 energy=-1.8473345389581268 pbc="F F F"
Dy       0.00000000       0.00000000       0.00000000       0.00000000       0.00000000       0.96651626
Dy       0.00000000       0.00000000       4.06000000       0.00000000       0.00000000      -0.96651626
2
Properties=species:S:1:pos:R:3:forces:R:3 energy=-1.7904987989433618 pbc="F F F"
Dy       0.00000000       0.00000000       0.00000000       0.00000000       0.00000000       0.96682245
Dy       0.00000000       0.00000000       4.11878788       0.00000000       0.00000000      -0.96682245
2
Properties=species:S:1:pos:R:3:forces:R:3 energy=-1.7336983398926502 pbc="F F F"
Dy       0.00000000       0.00000000       0.00000000       0.00000000       0.00000000       0.96509224
Dy       0.00000000       0.00000000       4.17757576       0.00000000       0.00000000      -0.96509224
2
Properties=species:S:1:pos:R:3:forces:R:3 energy=-1.6771026638961921 pbc="F F F"
Dy       0.00000000       0.00000000       0.00000000       0.00000000       0.00000000       0.95944929
Dy       0.00000000       0.00000000       4.23636364       0.00000000       0.00000000      -0.95944929
2
Properties=species:S:1:pos:R:3:forces:R:3 energy=-1.6210152539502587 pbc="F F F"
Dy       0.00000000       0.00000000       0.00000000       0.00000000       0.00000000       0.94737172
Dy       0.00000000       0.00000000       4.29515152       0.00000000       0.00000000      -0.94737172
2
Properties=species:S:1:pos:R:3:forces:R:3 energy=-1.5658855784174741 pbc="F F F"
Dy       0.00000000       0.00000000       0.00000000       0.00000000       0.00000000       0.92666632
Dy       0.00000000       0.00000000       4.35393939       0.00000000       0.00000000      -0.92666632
2
Properties=species:S:1:pos:R:3:forces:R:3 energy=-1.512251003256632 pbc="F F F"
Dy       0.00000000       0.00000000       0.00000000       0.00000000       0.00000000       0.89644754
Dy       0.00000000       0.00000000       4.41272727       0.00000000       0.00000000      -0.89644754
2
Properties=species:S:1:pos:R:3:forces:R:3 energy=-1.460652782319735 pbc="F F F"
Dy       0.00000000       0.00000000       0.00000000       0.00000000       0.00000000       0.85769778
Dy       0.00000000       0.00000000       4.47151515       0.00000000       0.00000000      -0.85769778
2
Properties=species:S:1:pos:R:3:forces:R:3 energy=-1.4115201554122818 pbc="F F F"
Dy       0.00000000       0.00000000       0.00000000       0.00000000       0.00000000       0.81313527
Dy       0.00000000       0.00000000       4.53030303       0.00000000       0.00000000      -0.81313527
2
Properties=species:S:1:pos:R:3:forces:R:3 energy=-1.365088043198323 pbc="F F F"
Dy       0.00000000       0.00000000       0.00000000       0.00000000       0.00000000       0.76653707
Dy       0.00000000       0.00000000       4.58909091       0.00000000       0.00000000      -0.76653707
2
Properties=species:S:1:pos:R:3:forces:R:3 energy=-1.3213590954648262 pbc="F F F"
Dy       0.00000000       0.00000000       0.00000000       0.00000000       0.00000000       0.72175318
Dy       0.00000000       0.00000000       4.64787879       0.00000000       0.00000000      -0.72175318
2
Properties=species:S:1:pos:R:3:forces:R:3 energy=-1.2801318625278755 pbc="F F F"
Dy       0.00000000       0.00000000       0.00000000       0.00000000       0.00000000       0.68175274
Dy       0.00000000       0.00000000       4.70666667       0.00000000       0.00000000      -0.68175274
2
Properties=species:S:1:pos:R:3:forces:R:3 energy=-1.2410777042313645 pbc="F F F"
Dy       0.00000000       0.00000000       0.00000000       0.00000000       0.00000000       0.64798278
Dy       0.00000000       0.00000000       4.76545455       0.00000000       0.00000000      -0.64798278
2
Properties=species:S:1:pos:R:3:forces:R:3 energy=-1.2038288982832632 pbc="F F F"
Dy       0.00000000       0.00000000       0.00000000       0.00000000       0.00000000       0.62007505
Dy       0.00000000       0.00000000       4.82424242       0.00000000       0.00000000      -0.62007505
2
Properties=species:S:1:pos:R:3:forces:R:3 energy=-1.1680991925255753 pbc="F F F"
Dy       0.00000000       0.00000000       0.00000000       0.00000000       0.00000000       0.59594208
Dy       0.00000000       0.00000000       4.88303030       0.00000000       0.00000000      -0.59594208
2
Properties=species:S:1:pos:R:3:forces:R:3 energy=-1.133752851287613 pbc="F F F"
Dy       0.00000000       0.00000000       0.00000000       0.00000000       0.00000000       0.57221395
Dy       0.00000000       0.00000000       4.94181818       0.00000000       0.00000000      -0.57221395
2
Properties=species:S:1:pos:R:3:forces:R:3 energy=-1.1008819220125587 pbc="F F F"
Dy       0.00000000       0.00000000       0.00000000       0.00000000       0.00000000       0.54524279
Dy       0.00000000       0.00000000       5.00060606       0.00000000       0.00000000      -0.54524279
2
Properties=species:S:1:pos:R:3:forces:R:3 energy=-1.069746270400976 pbc="F F F"
Dy       0.00000000       0.00000000       0.00000000       0.00000000       0.00000000       0.51321429
Dy       0.00000000       0.00000000       5.05939394       0.00000000       0.00000000      -0.51321429
2
Properties=species:S:1:pos:R:3:forces:R:3 energy=-1.0405793366250229 pbc="F F F"
Dy       0.00000000       0.00000000       0.00000000       0.00000000       0.00000000       0.47943440
Dy       0.00000000       0.00000000       5.11818182       0.00000000       0.00000000      -0.47943440
2
Properties=species:S:1:pos:R:3:forces:R:3 energy=-1.0132147870887152 pbc="F F F"
Dy       0.00000000       0.00000000       0.00000000       0.00000000       0.00000000       0.45406628
Dy       0.00000000       0.00000000       5.17696970       0.00000000       0.00000000      -0.45406628
2
Properties=species:S:1:pos:R:3:forces:R:3 energy=-0.9868085183646936 pbc="F F F"
Dy       0.00000000       0.00000000       0.00000000       0.00000000       0.00000000       0.44789025
Dy       0.00000000       0.00000000       5.23575758       0.00000000       0.00000000      -0.44789025
2
Properties=species:S:1:pos:R:3:forces:R:3 energy=-0.9602347035482269 pbc="F F F"
Dy       0.00000000       0.00000000       0.00000000       0.00000000       0.00000000       0.45729718
Dy       0.00000000       0.00000000       5.29454545       0.00000000       0.00000000      -0.45729718
2
Properties=species:S:1:pos:R:3:forces:R:3 energy=-0.9331830224846606 pbc="F F F"
Dy       0.00000000       0.00000000       0.00000000       0.00000000       0.00000000       0.45950487
Dy       0.00000000       0.00000000       5.35333333       0.00000000       0.00000000      -0.45950487
2
Properties=species:S:1:pos:R:3:forces:R:3 energy=-0.9067402041136051 pbc="F F F"
Dy       0.00000000       0.00000000       0.00000000       0.00000000       0.00000000       0.43559688
Dy       0.00000000       0.00000000       5.41212121       0.00000000       0.00000000      -0.43559688
2
Properties=species:S:1:pos:R:3:forces:R:3 energy=-0.8822430036043694 pbc="F F F"
Dy       0.00000000       0.00000000       0.00000000       0.00000000       0.00000000       0.39871526
Dy       0.00000000       0.00000000       5.47090909       0.00000000       0.00000000      -0.39871526
2
Properties=species:S:1:pos:R:3:forces:R:3 energy=-0.8592650416394306 pbc="F F F"
Dy       0.00000000       0.00000000       0.00000000       0.00000000       0.00000000       0.39212042
Dy       0.00000000       0.00000000       5.52969697       0.00000000       0.00000000      -0.39212042
2
Properties=species:S:1:pos:R:3:forces:R:3 energy=-0.834747818210812 pbc="F F F"
Dy       0.00000000       0.00000000       0.00000000       0.00000000       0.00000000       0.45461118
Dy       0.00000000       0.00000000       5.58848485       0.00000000       0.00000000      -0.45461118
2
Properties=species:S:1:pos:R:3:forces:R:3 energy=-0.8046819085593282 pbc="F F F"
Dy       0.00000000       0.00000000       0.00000000       0.00000000       0.00000000       0.57224554
Dy       0.00000000       0.00000000       5.64727273       0.00000000       0.00000000      -0.57224554
2
Properties=species:S:1:pos:R:3:forces:R:3 energy=-0.7680071881857131 pbc="F F F"
Dy       0.00000000       0.00000000       0.00000000       0.00000000       0.00000000       0.66268533
Dy       0.00000000       0.00000000       5.70606061       0.00000000       0.00000000      -0.66268533
2
Properties=species:S:1:pos:R:3:forces:R:3 energy=-0.7290369500018369 pbc="F F F"
Dy       0.00000000       0.00000000       0.00000000       0.00000000       0.00000000       0.63703185
Dy       0.00000000       0.00000000       5.76484848       0.00000000       0.00000000      -0.63703185
2
Properties=species:S:1:pos:R:3:forces:R:3 energy=-0.6957163769876106 pbc="F F F"
Dy       0.00000000       0.00000000       0.00000000       0.00000000       0.00000000       0.48079690
Dy       0.00000000       0.00000000       5.82363636       0.00000000       0.00000000      -0.48079690
2
Properties=species:S:1:pos:R:3:forces:R:3 energy=-0.673699732841752 pbc="F F F"
Dy       0.00000000       0.00000000       0.00000000       0.00000000       0.00000000       0.26881778
Dy       0.00000000       0.00000000       5.88242424       0.00000000       0.00000000      -0.26881778
2
Properties=species:S:1:pos:R:3:forces:R:3 energy=-0.6632628920675756 pbc="F F F"
Dy       0.00000000       0.00000000       0.00000000       0.00000000       0.00000000       0.09821004
Dy       0.00000000       0.00000000       5.94121212       0.00000000       0.00000000      -0.09821004
2
Properties=species:S:1:pos:R:3:forces:R:3 energy=-0.6600183388687604 pbc="F F F"
Dy       0.00000000       0.00000000       0.00000000       0.00000000       0.00000000       0.03349671
Dy       0.00000000       0.00000000       6.00000000       0.00000000       0.00000000      -0.03349671
