2
Properties=species:S:1:pos:R:3:forces:R:3 energy=3430.5176055355882 pbc="F F F"
Fe       0.00000000       0.00000000       0.00000000       0.00000000       0.00000000  -52625.08984375
Fe       0.00000000       0.00000000       0.18000000       0.00000000       0.00000000   52625.08984375
2
Properties=species:S:1:pos:R:3:forces:R:3 energy=1513.3033721371507 pbc="F F F"
Fe       0.00000000       0.00000000       0.00000000       0.00000000       0.00000000  -19213.63867188
Fe       0.00000000       0.00000000       0.23878788       0.00000000       0.00000000   19213.63867188
2
Properties=species:S:1:pos:R:3:forces:R:3 energy=758.9567534879749 pbc="F F F"
Fe       0.00000000       0.00000000       0.00000000       0.00000000       0.00000000   -8248.81933594
Fe       0.00000000       0.00000000       0.29757576       0.00000000       0.00000000    8248.81933594
2
Properties=species:S:1:pos:R:3:forces:R:3 energy=418.9420134977405 pbc="F F F"
Fe       0.00000000       0.00000000       0.00000000       0.00000000       0.00000000   -3927.83081055
Fe       0.00000000       0.00000000       0.35636364       0.00000000       0.00000000    3927.83081055
2
Properties=species:S:1:pos:R:3:forces:R:3 energy=251.72036433415428 pbc="F F F"
Fe       0.00000000       0.00000000       0.00000000       0.00000000       0.00000000   -2001.85705566
Fe       0.00000000       0.00000000       0.41515152       0.00000000       0.00000000    2001.85705566
2
Properties=species:S:1:pos:R:3:forces:R:3 energy=164.63560177358337 pbc="F F F"
Fe       0.00000000       0.00000000       0.00000000       0.00000000       0.00000000   -1066.94165039
Fe       0.00000000       0.00000000       0.47393939       0.00000000       0.00000000    1066.94165039
2
Properties=species:S:1:pos:R:3:forces:R:3 energy=117.59398344542235 pbc="F F F"
Fe       0.00000000       0.00000000       0.00000000       0.00000000       0.00000000    -584.11553955
Fe       0.00000000       0.00000000       0.53272727       0.00000000       0.00000000     584.11553955
2
Properties=species:S:1:pos:R:3:forces:R:3 energy=91.68170625542089 pbc="F F F"
Fe       0.00000000       0.00000000       0.00000000       0.00000000       0.00000000    -323.27819824
Fe       0.00000000       0.00000000       0.59151515       0.00000000       0.00000000     323.27819824
2
Properties=species:S:1:pos:R:3:forces:R:3 energy=77.33132637176185 pbc="F F F"
Fe       0.00000000       0.00000000       0.00000000       0.00000000       0.00000000    -179.15383911
Fe       0.00000000       0.00000000       0.65030303       0.00000000       0.00000000     179.15383911
2
Properties=species:S:1:pos:R:3:forces:R:3 energy=69.31153581421464 pbc="F F F"
Fe       0.00000000       0.00000000       0.00000000       0.00000000       0.00000000    -102.50081635
Fe       0.00000000       0.00000000       0.70909091       0.00000000       0.00000000     102.50081635
2
Properties=species:S:1:pos:R:3:forces:R:3 energy=64.41267120750506 pbc="F F F"
Fe       0.00000000       0.00000000       0.00000000       0.00000000       0.00000000     -70.46898651
Fe       0.00000000       0.00000000       0.76787879       0.00000000       0.00000000      70.46898651
2
Properties=species:S:1:pos:R:3:forces:R:3 energy=60.37333425204255 pbc="F F F"
Fe       0.00000000       0.00000000       0.00000000       0.00000000       0.00000000     -71.76834869
Fe       0.00000000       0.00000000       0.82666667       0.00000000       0.00000000      71.76834869
2
Properties=species:S:1:pos:R:3:forces:R:3 energy=55.51670612551344 pbc="F F F"
Fe       0.00000000       0.00000000       0.00000000       0.00000000       0.00000000     -96.24665070
Fe       0.00000000       0.00000000       0.88545455       0.00000000       0.00000000      96.24665070
2
Properties=species:S:1:pos:R:3:forces:R:3 energy=48.88076980026977 pbc="F F F"
Fe       0.00000000       0.00000000       0.00000000       0.00000000       0.00000000    -129.69284058
Fe       0.00000000       0.00000000       0.94424242       0.00000000       0.00000000     129.69284058
2
Properties=species:S:1:pos:R:3:forces:R:3 energy=40.385325112677265 pbc="F F F"
Fe       0.00000000       0.00000000       0.00000000       0.00000000       0.00000000    -157.33312988
Fe       0.00000000       0.00000000       1.00303030       0.00000000       0.00000000     157.33312988
2
Properties=species:S:1:pos:R:3:forces:R:3 energy=30.703031027373527 pbc="F F F"
Fe       0.00000000       0.00000000       0.00000000       0.00000000       0.00000000    -168.69831848
Fe       0.00000000       0.00000000       1.06181818       0.00000000       0.00000000     168.69831848
2
Properties=species:S:1:pos:R:3:forces:R:3 energy=21.015259290222122 pbc="F F F"
Fe       0.00000000       0.00000000       0.00000000       0.00000000       0.00000000    -156.51008606
Fe       0.00000000       0.00000000       1.12060606       0.00000000       0.00000000     156.51008606
2
Properties=species:S:1:pos:R:3:forces:R:3 energy=12.751621161130716 pbc="F F F"
Fe       0.00000000       0.00000000       0.00000000       0.00000000       0.00000000    -122.26094818
Fe       0.00000000       0.00000000       1.17939394       0.00000000       0.00000000     122.26094818
2
Properties=species:S:1:pos:R:3:forces:R:3 energy=6.6868555142352415 pbc="F F F"
Fe       0.00000000       0.00000000       0.00000000       0.00000000       0.00000000     -85.28086090
Fe       0.00000000       0.00000000       1.23818182       0.00000000       0.00000000      85.28086090
2
Properties=species:S:1:pos:R:3:forces:R:3 energy=2.4933972355549847 pbc="F F F"
Fe       0.00000000       0.00000000       0.00000000       0.00000000       0.00000000     -59.54437637
Fe       0.00000000       0.00000000       1.29696970       0.00000000       0.00000000      59.54437637
2
Properties=species:S:1:pos:R:3:forces:R:3 energy=-0.5213714540874523 pbc="F F F"
Fe       0.00000000       0.00000000       0.00000000       0.00000000       0.00000000     -44.22005463
Fe       0.00000000       0.00000000       1.35575758       0.00000000       0.00000000      44.22005463
2
Properties=species:S:1:pos:R:3:forces:R:3 energy=-2.788926566334358 pbc="F F F"
Fe       0.00000000       0.00000000       0.00000000       0.00000000       0.00000000     -33.29999924
Fe       0.00000000       0.00000000       1.41454545       0.00000000       0.00000000      33.29999924
2
Properties=species:S:1:pos:R:3:forces:R:3 energy=-4.469242056839303 pbc="F F F"
Fe       0.00000000       0.00000000       0.00000000       0.00000000       0.00000000     -24.14163971
Fe       0.00000000       0.00000000       1.47333333       0.00000000       0.00000000      24.14163971
2
Properties=species:S:1:pos:R:3:forces:R:3 energy=-5.666653106964351 pbc="F F F"
Fe       0.00000000       0.00000000       0.00000000       0.00000000       0.00000000     -16.98363304
Fe       0.00000000       0.00000000       1.53212121       0.00000000       0.00000000      16.98363304
2
Properties=species:S:1:pos:R:3:forces:R:3 energy=-6.514157566979871 pbc="F F F"
Fe       0.00000000       0.00000000       0.00000000       0.00000000       0.00000000     -12.24581623
Fe       0.00000000       0.00000000       1.59090909       0.00000000       0.00000000      12.24581623
2
Properties=species:S:1:pos:R:3:forces:R:3 energy=-7.146591080920385 pbc="F F F"
Fe       0.00000000       0.00000000       0.00000000       0.00000000       0.00000000      -9.53625393
Fe       0.00000000       0.00000000       1.64969697       0.00000000       0.00000000       9.53625393
2
Properties=species:S:1:pos:R:3:forces:R:3 energy=-7.656991307924515 pbc="F F F"
Fe       0.00000000       0.00000000       0.00000000       0.00000000       0.00000000      -7.93727303
Fe       0.00000000       0.00000000       1.70848485       0.00000000       0.00000000       7.93727303
2
Properties=species:S:1:pos:R:3:forces:R:3 energy=-8.08663933024137 pbc="F F F"
Fe       0.00000000       0.00000000       0.00000000       0.00000000       0.00000000      -6.70328474
Fe       0.00000000       0.00000000       1.76727273       0.00000000       0.00000000       6.70328474
2
Properties=species:S:1:pos:R:3:forces:R:3 energy=-8.446255782504315 pbc="F F F"
Fe       0.00000000       0.00000000       0.00000000       0.00000000       0.00000000      -5.53485632
Fe       0.00000000       0.00000000       1.82606061       0.00000000       0.00000000       5.53485632
2
Properties=species:S:1:pos:R:3:forces:R:3 energy=-8.737823766778176 pbc="F F F"
Fe       0.00000000       0.00000000       0.00000000       0.00000000       0.00000000      -4.38830948
Fe       0.00000000       0.00000000       1.88484848       0.00000000       0.00000000       4.38830948
2
Properties=species:S:1:pos:R:3:forces:R:3 energy=-8.962612350505983 pbc="F F F"
Fe       0.00000000       0.00000000       0.00000000       0.00000000       0.00000000      -3.26161456
Fe       0.00000000       0.00000000       1.94363636       0.00000000       0.00000000       3.26161456
2
Properties=species:S:1:pos:R:3:forces:R:3 energy=-9.121589192049907 pbc="F F F"
Fe       0.00000000       0.00000000       0.00000000       0.00000000       0.00000000      -2.15038896
Fe       0.00000000       0.00000000       2.00242424       0.00000000       0.00000000       2.15038896
2
Properties=species:S:1:pos:R:3:forces:R:3 energy=-9.216269323184433 pbc="F F F"
Fe       0.00000000       0.00000000       0.00000000       0.00000000       0.00000000      -1.08262932
Fe       0.00000000       0.00000000       2.06121212       0.00000000       0.00000000       1.08262932
2
Properties=species:S:1:pos:R:3:forces:R:3 energy=-9.251017619359738 pbc="F F F"
Fe       0.00000000       0.00000000       0.00000000       0.00000000       0.00000000      -0.12417920
Fe       0.00000000       0.00000000       2.12000000       0.00000000       0.00000000       0.12417920
2
Properties=species:S:1:pos:R:3:forces:R:3 energy=-9.234475704596184 pbc="F F F"
Fe       0.00000000       0.00000000       0.00000000       0.00000000       0.00000000       0.65117759
Fe       0.00000000       0.00000000       2.17878788       0.00000000       0.00000000      -0.65117759
2
Properties=species:S:1:pos:R:3:forces:R:3 energy=-9.179043359814264 pbc="F F F"
Fe       0.00000000       0.00000000       0.00000000       0.00000000       0.00000000       1.19385695
Fe       0.00000000       0.00000000       2.23757576       0.00000000       0.00000000      -1.19385695
2
Properties=species:S:1:pos:R:3:forces:R:3 energy=-9.098838241848336 pbc="F F F"
Fe       0.00000000       0.00000000       0.00000000       0.00000000       0.00000000       1.49664938
Fe       0.00000000       0.00000000       2.29636364       0.00000000       0.00000000      -1.49664938
2
Properties=species:S:1:pos:R:3:forces:R:3 energy=-9.007061743829599 pbc="F F F"
Fe       0.00000000       0.00000000       0.00000000       0.00000000       0.00000000       1.59693825
Fe       0.00000000       0.00000000       2.35515152       0.00000000       0.00000000      -1.59693825
2
Properties=species:S:1:pos:R:3:forces:R:3 energy=-8.913734682342746 pbc="F F F"
Fe       0.00000000       0.00000000       0.00000000       0.00000000       0.00000000       1.56161988
Fe       0.00000000       0.00000000       2.41393939       0.00000000       0.00000000      -1.56161988
2
Properties=species:S:1:pos:R:3:forces:R:3 energy=-8.824727751607647 pbc="F F F"
Fe       0.00000000       0.00000000       0.00000000       0.00000000       0.00000000       1.46077740
Fe       0.00000000       0.00000000       2.47272727       0.00000000       0.00000000      -1.46077740
2
Properties=species:S:1:pos:R:3:forces:R:3 energy=-8.74207920550397 pbc="F F F"
Fe       0.00000000       0.00000000       0.00000000       0.00000000       0.00000000       1.35557997
Fe       0.00000000       0.00000000       2.53151515       0.00000000       0.00000000      -1.35557997
2
Properties=species:S:1:pos:R:3:forces:R:3 energy=-8.664069243842786 pbc="F F F"
Fe       0.00000000       0.00000000       0.00000000       0.00000000       0.00000000       1.31450713
Fe       0.00000000       0.00000000       2.59030303       0.00000000       0.00000000      -1.31450713
2
Properties=species:S:1:pos:R:3:forces:R:3 energy=-8.585648522835951 pbc="F F F"
Fe       0.00000000       0.00000000       0.00000000       0.00000000       0.00000000       1.36444819
Fe       0.00000000       0.00000000       2.64909091       0.00000000       0.00000000      -1.36444819
2
Properties=species:S:1:pos:R:3:forces:R:3 energy=-8.503241096794635 pbc="F F F"
Fe       0.00000000       0.00000000       0.00000000       0.00000000       0.00000000       1.43653774
Fe       0.00000000       0.00000000       2.70787879       0.00000000       0.00000000      -1.43653774
2
Properties=species:S:1:pos:R:3:forces:R:3 energy=-8.417313067805411 pbc="F F F"
Fe       0.00000000       0.00000000       0.00000000       0.00000000       0.00000000       1.48138022
Fe       0.00000000       0.00000000       2.76666667       0.00000000       0.00000000      -1.48138022
2
Properties=species:S:1:pos:R:3:forces:R:3 energy=-8.329661076504665 pbc="F F F"
Fe       0.00000000       0.00000000       0.00000000       0.00000000       0.00000000       1.49594486
Fe       0.00000000       0.00000000       2.82545455       0.00000000       0.00000000      -1.49594486
2
Properties=species:S:1:pos:R:3:forces:R:3 energy=-8.241932018254111 pbc="F F F"
Fe       0.00000000       0.00000000       0.00000000       0.00000000       0.00000000       1.48466396
Fe       0.00000000       0.00000000       2.88424242       0.00000000       0.00000000      -1.48466396
2
Properties=species:S:1:pos:R:3:forces:R:3 energy=-8.155537542456457 pbc="F F F"
Fe       0.00000000       0.00000000       0.00000000       0.00000000       0.00000000       1.45114934
Fe       0.00000000       0.00000000       2.94303030       0.00000000       0.00000000      -1.45114934
2
Properties=species:S:1:pos:R:3:forces:R:3 energy=-8.071661758659 pbc="F F F"
Fe       0.00000000       0.00000000       0.00000000       0.00000000       0.00000000       1.39975905
Fe       0.00000000       0.00000000       3.00181818       0.00000000       0.00000000      -1.39975905
2
Properties=species:S:1:pos:R:3:forces:R:3 energy=-7.991216704100892 pbc="F F F"
Fe       0.00000000       0.00000000       0.00000000       0.00000000       0.00000000       1.33522129
Fe       0.00000000       0.00000000       3.06060606       0.00000000       0.00000000      -1.33522129
2
Properties=species:S:1:pos:R:3:forces:R:3 energy=-7.914856951856034 pbc="F F F"
Fe       0.00000000       0.00000000       0.00000000       0.00000000       0.00000000       1.26122594
Fe       0.00000000       0.00000000       3.11939394       0.00000000       0.00000000      -1.26122594
2
Properties=species:S:1:pos:R:3:forces:R:3 energy=-7.843069728129802 pbc="F F F"
Fe       0.00000000       0.00000000       0.00000000       0.00000000       0.00000000       1.17988563
Fe       0.00000000       0.00000000       3.17818182       0.00000000       0.00000000      -1.17988563
2
Properties=species:S:1:pos:R:3:forces:R:3 energy=-7.77625160803822 pbc="F F F"
Fe       0.00000000       0.00000000       0.00000000       0.00000000       0.00000000       1.09238839
Fe       0.00000000       0.00000000       3.23696970       0.00000000       0.00000000      -1.09238839
2
Properties=species:S:1:pos:R:3:forces:R:3 energy=-7.714726727126968 pbc="F F F"
Fe       0.00000000       0.00000000       0.00000000       0.00000000       0.00000000       1.00008738
Fe       0.00000000       0.00000000       3.29575758       0.00000000       0.00000000      -1.00008738
2
Properties=species:S:1:pos:R:3:forces:R:3 energy=-7.658716236786845 pbc="F F F"
Fe       0.00000000       0.00000000       0.00000000       0.00000000       0.00000000       0.90522903
Fe       0.00000000       0.00000000       3.35454545       0.00000000       0.00000000      -0.90522903
2
Properties=species:S:1:pos:R:3:forces:R:3 energy=-7.6082803265254375 pbc="F F F"
Fe       0.00000000       0.00000000       0.00000000       0.00000000       0.00000000       0.81104624
Fe       0.00000000       0.00000000       3.41333333       0.00000000       0.00000000      -0.81104624
2
Properties=species:S:1:pos:R:3:forces:R:3 energy=-7.563269217445777 pbc="F F F"
Fe       0.00000000       0.00000000       0.00000000       0.00000000       0.00000000       0.72132897
Fe       0.00000000       0.00000000       3.47212121       0.00000000       0.00000000      -0.72132897
2
Properties=species:S:1:pos:R:3:forces:R:3 energy=-7.523310427027249 pbc="F F F"
Fe       0.00000000       0.00000000       0.00000000       0.00000000       0.00000000       0.63974422
Fe       0.00000000       0.00000000       3.53090909       0.00000000       0.00000000      -0.63974422
2
Properties=species:S:1:pos:R:3:forces:R:3 energy=-7.487834543674707 pbc="F F F"
Fe       0.00000000       0.00000000       0.00000000       0.00000000       0.00000000       0.56915790
Fe       0.00000000       0.00000000       3.58969697       0.00000000       0.00000000      -0.56915790
2
Properties=species:S:1:pos:R:3:forces:R:3 energy=-7.456142123304799 pbc="F F F"
Fe       0.00000000       0.00000000       0.00000000       0.00000000       0.00000000       0.51119918
Fe       0.00000000       0.00000000       3.64848485       0.00000000       0.00000000      -0.51119918
2
Properties=species:S:1:pos:R:3:forces:R:3 energy=-7.427477122268329 pbc="F F F"
Fe       0.00000000       0.00000000       0.00000000       0.00000000       0.00000000       0.46609685
Fe       0.00000000       0.00000000       3.70727273       0.00000000       0.00000000      -0.46609685
2
Properties=species:S:1:pos:R:3:forces:R:3 energy=-7.401107577864659 pbc="F F F"
Fe       0.00000000       0.00000000       0.00000000       0.00000000       0.00000000       0.43283981
Fe       0.00000000       0.00000000       3.76606061       0.00000000       0.00000000      -0.43283981
2
Properties=species:S:1:pos:R:3:forces:R:3 energy=-7.376390474034333 pbc="F F F"
Fe       0.00000000       0.00000000       0.00000000       0.00000000       0.00000000       0.40952459
Fe       0.00000000       0.00000000       3.82484848       0.00000000       0.00000000      -0.40952459
2
Properties=species:S:1:pos:R:3:forces:R:3 energy=-7.352809430501512 pbc="F F F"
Fe       0.00000000       0.00000000       0.00000000       0.00000000       0.00000000       0.39377016
Fe       0.00000000       0.00000000       3.88363636       0.00000000       0.00000000      -0.39377016
2
Properties=species:S:1:pos:R:3:forces:R:3 energy=-7.329993327933541 pbc="F F F"
Fe       0.00000000       0.00000000       0.00000000       0.00000000       0.00000000       0.38308871
Fe       0.00000000       0.00000000       3.94242424       0.00000000       0.00000000      -0.38308871
2
Properties=species:S:1:pos:R:3:forces:R:3 energy=-7.307714334068048 pbc="F F F"
Fe       0.00000000       0.00000000       0.00000000       0.00000000       0.00000000       0.37513959
Fe       0.00000000       0.00000000       4.00121212       0.00000000       0.00000000      -0.37513959
2
Properties=species:S:1:pos:R:3:forces:R:3 energy=-7.28587312809669 pbc="F F F"
Fe       0.00000000       0.00000000       0.00000000       0.00000000       0.00000000       0.36786777
Fe       0.00000000       0.00000000       4.06000000       0.00000000       0.00000000      -0.36786777
2
Properties=species:S:1:pos:R:3:forces:R:3 energy=-7.264482529810663 pbc="F F F"
Fe       0.00000000       0.00000000       0.00000000       0.00000000       0.00000000       0.35957384
Fe       0.00000000       0.00000000       4.11878788       0.00000000       0.00000000      -0.35957384
2
Properties=species:S:1:pos:R:3:forces:R:3 energy=-7.24364178207238 pbc="F F F"
Fe       0.00000000       0.00000000       0.00000000       0.00000000       0.00000000       0.34895408
Fe       0.00000000       0.00000000       4.17757576       0.00000000       0.00000000      -0.34895408
2
Properties=species:S:1:pos:R:3:forces:R:3 energy=-7.223516311410747 pbc="F F F"
Fe       0.00000000       0.00000000       0.00000000       0.00000000       0.00000000       0.33513689
Fe       0.00000000       0.00000000       4.23636364       0.00000000       0.00000000      -0.33513689
2
Properties=species:S:1:pos:R:3:forces:R:3 energy=-7.204308552255484 pbc="F F F"
Fe       0.00000000       0.00000000       0.00000000       0.00000000       0.00000000       0.31770837
Fe       0.00000000       0.00000000       4.29515152       0.00000000       0.00000000      -0.31770837
2
Properties=species:S:1:pos:R:3:forces:R:3 energy=-7.186232090024639 pbc="F F F"
Fe       0.00000000       0.00000000       0.00000000       0.00000000       0.00000000       0.29672098
Fe       0.00000000       0.00000000       4.35393939       0.00000000       0.00000000      -0.29672098
2
Properties=species:S:1:pos:R:3:forces:R:3 energy=-7.169482832315361 pbc="F F F"
Fe       0.00000000       0.00000000       0.00000000       0.00000000       0.00000000       0.27263090
Fe       0.00000000       0.00000000       4.41272727       0.00000000       0.00000000      -0.27263090
2
Properties=species:S:1:pos:R:3:forces:R:3 energy=-7.154222287925142 pbc="F F F"
Fe       0.00000000       0.00000000       0.00000000       0.00000000       0.00000000       0.24621522
Fe       0.00000000       0.00000000       4.47151515       0.00000000       0.00000000      -0.24621522
2
Properties=species:S:1:pos:R:3:forces:R:3 energy=-7.140560182134398 pbc="F F F"
Fe       0.00000000       0.00000000       0.00000000       0.00000000       0.00000000       0.21843754
Fe       0.00000000       0.00000000       4.53030303       0.00000000       0.00000000      -0.21843754
2
Properties=species:S:1:pos:R:3:forces:R:3 energy=-7.128546280782687 pbc="F F F"
Fe       0.00000000       0.00000000       0.00000000       0.00000000       0.00000000       0.19032215
Fe       0.00000000       0.00000000       4.58909091       0.00000000       0.00000000      -0.19032215
2
Properties=species:S:1:pos:R:3:forces:R:3 energy=-7.11817030156969 pbc="F F F"
Fe       0.00000000       0.00000000       0.00000000       0.00000000       0.00000000       0.16285622
Fe       0.00000000       0.00000000       4.64787879       0.00000000       0.00000000      -0.16285622
2
Properties=species:S:1:pos:R:3:forces:R:3 energy=-7.109367983057561 pbc="F F F"
Fe       0.00000000       0.00000000       0.00000000       0.00000000       0.00000000       0.13693534
Fe       0.00000000       0.00000000       4.70666667       0.00000000       0.00000000      -0.13693534
2
Properties=species:S:1:pos:R:3:forces:R:3 energy=-7.1020244003562825 pbc="F F F"
Fe       0.00000000       0.00000000       0.00000000       0.00000000       0.00000000       0.11333338
Fe       0.00000000       0.00000000       4.76545455       0.00000000       0.00000000      -0.11333338
2
Properties=species:S:1:pos:R:3:forces:R:3 energy=-7.095984910203539 pbc="F F F"
Fe       0.00000000       0.00000000       0.00000000       0.00000000       0.00000000       0.09265924
Fe       0.00000000       0.00000000       4.82424242       0.00000000       0.00000000      -0.09265924
2
Properties=species:S:1:pos:R:3:forces:R:3 energy=-7.091064659197492 pbc="F F F"
Fe       0.00000000       0.00000000       0.00000000       0.00000000       0.00000000       0.07531202
Fe       0.00000000       0.00000000       4.88303030       0.00000000       0.00000000      -0.07531202
2
Properties=species:S:1:pos:R:3:forces:R:3 energy=-7.08706331823135 pbc="F F F"
Fe       0.00000000       0.00000000       0.00000000       0.00000000       0.00000000       0.06138171
Fe       0.00000000       0.00000000       4.94181818       0.00000000       0.00000000      -0.06138171
2
Properties=species:S:1:pos:R:3:forces:R:3 energy=-7.08378518568174 pbc="F F F"
Fe       0.00000000       0.00000000       0.00000000       0.00000000       0.00000000       0.05063506
Fe       0.00000000       0.00000000       5.00060606       0.00000000       0.00000000      -0.05063506
2
Properties=species:S:1:pos:R:3:forces:R:3 energy=-7.081056410567204 pbc="F F F"
Fe       0.00000000       0.00000000       0.00000000       0.00000000       0.00000000       0.04260975
Fe       0.00000000       0.00000000       5.05939394       0.00000000       0.00000000      -0.04260975
2
Properties=species:S:1:pos:R:3:forces:R:3 energy=-7.078728762895957 pbc="F F F"
Fe       0.00000000       0.00000000       0.00000000       0.00000000       0.00000000       0.03696514
Fe       0.00000000       0.00000000       5.11818182       0.00000000       0.00000000      -0.03696514
2
Properties=species:S:1:pos:R:3:forces:R:3 energy=-7.076659714211192 pbc="F F F"
Fe       0.00000000       0.00000000       0.00000000       0.00000000       0.00000000       0.03391372
Fe       0.00000000       0.00000000       5.17696970       0.00000000       0.00000000      -0.03391372
2
Properties=species:S:1:pos:R:3:forces:R:3 energy=-7.074676258155679 pbc="F F F"
Fe       0.00000000       0.00000000       0.00000000       0.00000000       0.00000000       0.03418036
Fe       0.00000000       0.00000000       5.23575758       0.00000000       0.00000000      -0.03418036
2
Properties=species:S:1:pos:R:3:forces:R:3 energy=-7.072572055784462 pbc="F F F"
Fe       0.00000000       0.00000000       0.00000000       0.00000000       0.00000000       0.03790701
Fe       0.00000000       0.00000000       5.29454545       0.00000000       0.00000000      -0.03790701
2
Properties=species:S:1:pos:R:3:forces:R:3 energy=-7.070181459365972 pbc="F F F"
Fe       0.00000000       0.00000000       0.00000000       0.00000000       0.00000000       0.04351299
Fe       0.00000000       0.00000000       5.35333333       0.00000000       0.00000000      -0.04351299
2
Properties=species:S:1:pos:R:3:forces:R:3 energy=-7.067466331590869 pbc="F F F"
Fe       0.00000000       0.00000000       0.00000000       0.00000000       0.00000000       0.04862345
Fe       0.00000000       0.00000000       5.41212121       0.00000000       0.00000000      -0.04862345
2
Properties=species:S:1:pos:R:3:forces:R:3 energy=-7.064501751544673 pbc="F F F"
Fe       0.00000000       0.00000000       0.00000000       0.00000000       0.00000000       0.05187172
Fe       0.00000000       0.00000000       5.47090909       0.00000000       0.00000000      -0.05187172
2
Properties=species:S:1:pos:R:3:forces:R:3 energy=-7.061412688816472 pbc="F F F"
Fe       0.00000000       0.00000000       0.00000000       0.00000000       0.00000000       0.05278585
Fe       0.00000000       0.00000000       5.52969697       0.00000000       0.00000000      -0.05278585
2
Properties=species:S:1:pos:R:3:forces:R:3 energy=-7.05835449435713 pbc="F F F"
Fe       0.00000000       0.00000000       0.00000000       0.00000000       0.00000000       0.05066209
Fe       0.00000000       0.00000000       5.58848485       0.00000000       0.00000000      -0.05066209
2
Properties=species:S:1:pos:R:3:forces:R:3 energy=-7.055541052878549 pbc="F F F"
Fe       0.00000000       0.00000000       0.00000000       0.00000000       0.00000000       0.04433150
Fe       0.00000000       0.00000000       5.64727273       0.00000000       0.00000000      -0.04433150
2
Properties=species:S:1:pos:R:3:forces:R:3 energy=-7.053224786579291 pbc="F F F"
Fe       0.00000000       0.00000000       0.00000000       0.00000000       0.00000000       0.03396054
Fe       0.00000000       0.00000000       5.70606061       0.00000000       0.00000000      -0.03396054
2
Properties=species:S:1:pos:R:3:forces:R:3 energy=-7.051560815159202 pbc="F F F"
Fe       0.00000000       0.00000000       0.00000000       0.00000000       0.00000000       0.02282887
Fe       0.00000000       0.00000000       5.76484848       0.00000000       0.00000000      -0.02282887
2
Properties=species:S:1:pos:R:3:forces:R:3 energy=-7.050474399049207 pbc="F F F"
Fe       0.00000000       0.00000000       0.00000000       0.00000000       0.00000000       0.01484790
Fe       0.00000000       0.00000000       5.82363636       0.00000000       0.00000000      -0.01484790
2
Properties=species:S:1:pos:R:3:forces:R:3 energy=-7.049736762855112 pbc="F F F"
Fe       0.00000000       0.00000000       0.00000000       0.00000000       0.00000000       0.01083162
Fe       0.00000000       0.00000000       5.88242424       0.00000000       0.00000000      -0.01083162
2
Properties=species:S:1:pos:R:3:forces:R:3 energy=-7.049155889617544 pbc="F F F"
Fe       0.00000000       0.00000000       0.00000000       0.00000000       0.00000000       0.00914638
Fe       0.00000000       0.00000000       5.94121212       0.00000000       0.00000000      -0.00914638
2
Properties=species:S:1:pos:R:3:forces:R:3 energy=-7.048644203178025 pbc="F F F"
Fe       0.00000000       0.00000000       0.00000000       0.00000000       0.00000000       0.00836448
Fe       0.00000000       0.00000000       6.00000000       0.00000000       0.00000000      -0.00836448
