2
Properties=species:S:1:pos:R:3:forces:R:3 energy=4387.504690797783 pbc="F F F"
Ga       0.00000000       0.00000000       0.00000000       0.00000000       0.00000000  -69311.60937500
Ga       0.00000000       0.00000000       0.18000000       0.00000000       0.00000000   69311.60937500
2
Properties=species:S:1:pos:R:3:forces:R:3 energy=1879.2600618915335 pbc="F F F"
Ga       0.00000000       0.00000000       0.00000000       0.00000000       0.00000000  -24916.36914062
Ga       0.00000000       0.00000000       0.23878788       0.00000000       0.00000000   24916.36914062
2
Properties=species:S:1:pos:R:3:forces:R:3 energy=906.98045984392 pbc="F F F"
Ga       0.00000000       0.00000000       0.00000000       0.00000000       0.00000000  -10545.96289062
Ga       0.00000000       0.00000000       0.29757576       0.00000000       0.00000000   10545.96289062
2
Properties=species:S:1:pos:R:3:forces:R:3 energy=475.0327669728263 pbc="F F F"
Ga       0.00000000       0.00000000       0.00000000       0.00000000       0.00000000   -4948.91015625
Ga       0.00000000       0.00000000       0.35636364       0.00000000       0.00000000    4948.91015625
2
Properties=species:S:1:pos:R:3:forces:R:3 energy=265.7031771354119 pbc="F F F"
Ga       0.00000000       0.00000000       0.00000000       0.00000000       0.00000000   -2485.97802734
Ga       0.00000000       0.00000000       0.41515152       0.00000000       0.00000000    2485.97802734
2
Properties=species:S:1:pos:R:3:forces:R:3 energy=158.1895968258176 pbc="F F F"
Ga       0.00000000       0.00000000       0.00000000       0.00000000       0.00000000   -1308.65625000
Ga       0.00000000       0.00000000       0.47393939       0.00000000       0.00000000    1308.65625000
2
Properties=species:S:1:pos:R:3:forces:R:3 energy=100.66740293613313 pbc="F F F"
Ga       0.00000000       0.00000000       0.00000000       0.00000000       0.00000000    -713.32379150
Ga       0.00000000       0.00000000       0.53272727       0.00000000       0.00000000     713.32379150
2
Properties=species:S:1:pos:R:3:forces:R:3 energy=68.86301302370154 pbc="F F F"
Ga       0.00000000       0.00000000       0.00000000       0.00000000       0.00000000    -401.09323120
Ga       0.00000000       0.00000000       0.59151515       0.00000000       0.00000000     401.09323120
2
Properties=species:S:1:pos:R:3:forces:R:3 energy=50.78390389199563 pbc="F F F"
Ga       0.00000000       0.00000000       0.00000000       0.00000000       0.00000000    -230.29489136
Ga       0.00000000       0.00000000       0.65030303       0.00000000       0.00000000     230.29489136
2
Properties=species:S:1:pos:R:3:forces:R:3 energy=40.35746661543625 pbc="F F F"
Ga       0.00000000       0.00000000       0.00000000       0.00000000       0.00000000    -133.53399658
Ga       0.00000000       0.00000000       0.70909091       0.00000000       0.00000000     133.53399658
2
Properties=species:S:1:pos:R:3:forces:R:3 energy=34.24792391447638 pbc="F F F"
Ga       0.00000000       0.00000000       0.00000000       0.00000000       0.00000000     -79.81819153
Ga       0.00000000       0.00000000       0.76787879       0.00000000       0.00000000      79.81819153
2
Properties=species:S:1:pos:R:3:forces:R:3 energy=30.473313623150396 pbc="F F F"
Ga       0.00000000       0.00000000       0.00000000       0.00000000       0.00000000     -51.72146225
Ga       0.00000000       0.00000000       0.82666667       0.00000000       0.00000000      51.72146225
2
Properties=species:S:1:pos:R:3:forces:R:3 energy=27.907029753909466 pbc="F F F"
Ga       0.00000000       0.00000000       0.00000000       0.00000000       0.00000000     -37.04520416
Ga       0.00000000       0.00000000       0.88545455       0.00000000       0.00000000      37.04520416
2
Properties=species:S:1:pos:R:3:forces:R:3 energy=26.006776904673952 pbc="F F F"
Ga       0.00000000       0.00000000       0.00000000       0.00000000       0.00000000     -28.17676353
Ga       0.00000000       0.00000000       0.94424242       0.00000000       0.00000000      28.17676353
2
Properties=species:S:1:pos:R:3:forces:R:3 energy=24.535156956371246 pbc="F F F"
Ga       0.00000000       0.00000000       0.00000000       0.00000000       0.00000000     -22.56201172
Ga       0.00000000       0.00000000       1.00303030       0.00000000       0.00000000      22.56201172
2
Properties=species:S:1:pos:R:3:forces:R:3 energy=23.226070026709106 pbc="F F F"
Ga       0.00000000       0.00000000       0.00000000       0.00000000       0.00000000     -23.39859962
Ga       0.00000000       0.00000000       1.06181818       0.00000000       0.00000000      23.39859962
2
Properties=species:S:1:pos:R:3:forces:R:3 energy=21.639153245578303 pbc="F F F"
Ga       0.00000000       0.00000000       0.00000000       0.00000000       0.00000000     -31.23575020
Ga       0.00000000       0.00000000       1.12060606       0.00000000       0.00000000      31.23575020
2
Properties=species:S:1:pos:R:3:forces:R:3 energy=19.56439996246809 pbc="F F F"
Ga       0.00000000       0.00000000       0.00000000       0.00000000       0.00000000     -38.70886230
Ga       0.00000000       0.00000000       1.17939394       0.00000000       0.00000000      38.70886230
2
Properties=species:S:1:pos:R:3:forces:R:3 energy=17.182905395704157 pbc="F F F"
Ga       0.00000000       0.00000000       0.00000000       0.00000000       0.00000000     -41.52119064
Ga       0.00000000       0.00000000       1.23818182       0.00000000       0.00000000      41.52119064
2
Properties=species:S:1:pos:R:3:forces:R:3 energy=14.757132237281022 pbc="F F F"
Ga       0.00000000       0.00000000       0.00000000       0.00000000       0.00000000     -40.55376053
Ga       0.00000000       0.00000000       1.29696970       0.00000000       0.00000000      40.55376053
2
Properties=species:S:1:pos:R:3:forces:R:3 energy=12.446993670625245 pbc="F F F"
Ga       0.00000000       0.00000000       0.00000000       0.00000000       0.00000000     -37.91389084
Ga       0.00000000       0.00000000       1.35575758       0.00000000       0.00000000      37.91389084
2
Properties=species:S:1:pos:R:3:forces:R:3 energy=10.303480890302792 pbc="F F F"
Ga       0.00000000       0.00000000       0.00000000       0.00000000       0.00000000     -35.02242279
Ga       0.00000000       0.00000000       1.41454545       0.00000000       0.00000000      35.02242279
2
Properties=species:S:1:pos:R:3:forces:R:3 energy=8.327789952794074 pbc="F F F"
Ga       0.00000000       0.00000000       0.00000000       0.00000000       0.00000000     -32.18844223
Ga       0.00000000       0.00000000       1.47333333       0.00000000       0.00000000      32.18844223
2
Properties=species:S:1:pos:R:3:forces:R:3 energy=6.52107974345592 pbc="F F F"
Ga       0.00000000       0.00000000       0.00000000       0.00000000       0.00000000     -29.24633026
Ga       0.00000000       0.00000000       1.53212121       0.00000000       0.00000000      29.24633026
2
Properties=species:S:1:pos:R:3:forces:R:3 energy=4.893625339442622 pbc="F F F"
Ga       0.00000000       0.00000000       0.00000000       0.00000000       0.00000000     -26.07757378
Ga       0.00000000       0.00000000       1.59090909       0.00000000       0.00000000      26.07757378
2
Properties=species:S:1:pos:R:3:forces:R:3 energy=3.4599404772607123 pbc="F F F"
Ga       0.00000000       0.00000000       0.00000000       0.00000000       0.00000000     -22.66299820
Ga       0.00000000       0.00000000       1.64969697       0.00000000       0.00000000      22.66299820
2
Properties=species:S:1:pos:R:3:forces:R:3 energy=2.23096070738157 pbc="F F F"
Ga       0.00000000       0.00000000       0.00000000       0.00000000       0.00000000     -19.15339088
Ga       0.00000000       0.00000000       1.70848485       0.00000000       0.00000000      19.15339088
2
Properties=species:S:1:pos:R:3:forces:R:3 energy=1.2045306343193074 pbc="F F F"
Ga       0.00000000       0.00000000       0.00000000       0.00000000       0.00000000     -15.81562710
Ga       0.00000000       0.00000000       1.76727273       0.00000000       0.00000000      15.81562710
2
Properties=species:S:1:pos:R:3:forces:R:3 energy=0.3641455433702768 pbc="F F F"
Ga       0.00000000       0.00000000       0.00000000       0.00000000       0.00000000     -12.84411335
Ga       0.00000000       0.00000000       1.82606061       0.00000000       0.00000000      12.84411335
2
Properties=species:S:1:pos:R:3:forces:R:3 energy=-0.31392187745957345 pbc="F F F"
Ga       0.00000000       0.00000000       0.00000000       0.00000000       0.00000000     -10.29335403
Ga       0.00000000       0.00000000       1.88484848       0.00000000       0.00000000      10.29335403
2
Properties=species:S:1:pos:R:3:forces:R:3 energy=-0.8538158720706528 pbc="F F F"
Ga       0.00000000       0.00000000       0.00000000       0.00000000       0.00000000      -8.13565922
Ga       0.00000000       0.00000000       1.94363636       0.00000000       0.00000000       8.13565922
2
Properties=species:S:1:pos:R:3:forces:R:3 energy=-1.2772750193094566 pbc="F F F"
Ga       0.00000000       0.00000000       0.00000000       0.00000000       0.00000000      -6.32507706
Ga       0.00000000       0.00000000       2.00242424       0.00000000       0.00000000       6.32507706
2
Properties=species:S:1:pos:R:3:forces:R:3 energy=-1.6035282081922753 pbc="F F F"
Ga       0.00000000       0.00000000       0.00000000       0.00000000       0.00000000      -4.82292986
Ga       0.00000000       0.00000000       2.06121212       0.00000000       0.00000000       4.82292986
2
Properties=species:S:1:pos:R:3:forces:R:3 energy=-1.8497574387535274 pbc="F F F"
Ga       0.00000000       0.00000000       0.00000000       0.00000000       0.00000000      -3.59751034
Ga       0.00000000       0.00000000       2.12000000       0.00000000       0.00000000       3.59751034
2
Properties=species:S:1:pos:R:3:forces:R:3 energy=-2.0313402625224914 pbc="F F F"
Ga       0.00000000       0.00000000       0.00000000       0.00000000       0.00000000      -2.61858130
Ga       0.00000000       0.00000000       2.17878788       0.00000000       0.00000000       2.61858130
2
Properties=species:S:1:pos:R:3:forces:R:3 energy=-2.161852293421981 pbc="F F F"
Ga       0.00000000       0.00000000       0.00000000       0.00000000       0.00000000      -1.85457075
Ga       0.00000000       0.00000000       2.23757576       0.00000000       0.00000000       1.85457075
2
Properties=species:S:1:pos:R:3:forces:R:3 energy=-2.2529447936672184 pbc="F F F"
Ga       0.00000000       0.00000000       0.00000000       0.00000000       0.00000000      -1.27173364
Ga       0.00000000       0.00000000       2.29636364       0.00000000       0.00000000       1.27173364
2
Properties=species:S:1:pos:R:3:forces:R:3 energy=-2.3142244307744937 pbc="F F F"
Ga       0.00000000       0.00000000       0.00000000       0.00000000       0.00000000      -0.83422416
Ga       0.00000000       0.00000000       2.35515152       0.00000000       0.00000000       0.83422416
2
Properties=species:S:1:pos:R:3:forces:R:3 energy=-2.3531629747724043 pbc="F F F"
Ga       0.00000000       0.00000000       0.00000000       0.00000000       0.00000000      -0.50571752
Ga       0.00000000       0.00000000       2.41393939       0.00000000       0.00000000       0.50571752
2
Properties=species:S:1:pos:R:3:forces:R:3 energy=-2.3751676135076734 pbc="F F F"
Ga       0.00000000       0.00000000       0.00000000       0.00000000       0.00000000      -0.25309372
Ga       0.00000000       0.00000000       2.47272727       0.00000000       0.00000000       0.25309372
2
Properties=species:S:1:pos:R:3:forces:R:3 energy=-2.383895216170737 pbc="F F F"
Ga       0.00000000       0.00000000       0.00000000       0.00000000       0.00000000      -0.05052379
Ga       0.00000000       0.00000000       2.53151515       0.00000000       0.00000000       0.05052379
2
Properties=species:S:1:pos:R:3:forces:R:3 energy=-2.3817584017364313 pbc="F F F"
Ga       0.00000000       0.00000000       0.00000000       0.00000000       0.00000000       0.11858016
Ga       0.00000000       0.00000000       2.59030303       0.00000000       0.00000000      -0.11858016
2
Properties=species:S:1:pos:R:3:forces:R:3 energy=-2.370434436429706 pbc="F F F"
Ga       0.00000000       0.00000000       0.00000000       0.00000000       0.00000000       0.26294410
Ga       0.00000000       0.00000000       2.64909091       0.00000000       0.00000000      -0.26294410
2
Properties=species:S:1:pos:R:3:forces:R:3 energy=-2.351250143387339 pbc="F F F"
Ga       0.00000000       0.00000000       0.00000000       0.00000000       0.00000000       0.38645619
Ga       0.00000000       0.00000000       2.70787879       0.00000000       0.00000000      -0.38645619
2
Properties=species:S:1:pos:R:3:forces:R:3 energy=-2.3253671054501384 pbc="F F F"
Ga       0.00000000       0.00000000       0.00000000       0.00000000       0.00000000       0.49108571
Ga       0.00000000       0.00000000       2.76666667       0.00000000       0.00000000      -0.49108571
2
Properties=species:S:1:pos:R:3:forces:R:3 energy=-2.2938430978662803 pbc="F F F"
Ga       0.00000000       0.00000000       0.00000000       0.00000000       0.00000000       0.57873261
Ga       0.00000000       0.00000000       2.82545455       0.00000000       0.00000000      -0.57873261
2
Properties=species:S:1:pos:R:3:forces:R:3 energy=-2.2576007356869385 pbc="F F F"
Ga       0.00000000       0.00000000       0.00000000       0.00000000       0.00000000       0.65222806
Ga       0.00000000       0.00000000       2.88424242       0.00000000       0.00000000      -0.65222806
2
Properties=species:S:1:pos:R:3:forces:R:3 energy=-2.217350099201596 pbc="F F F"
Ga       0.00000000       0.00000000       0.00000000       0.00000000       0.00000000       0.71590894
Ga       0.00000000       0.00000000       2.94303030       0.00000000       0.00000000      -0.71590894
2
Properties=species:S:1:pos:R:3:forces:R:3 energy=-2.1735235630342364 pbc="F F F"
Ga       0.00000000       0.00000000       0.00000000       0.00000000       0.00000000       0.77455139
Ga       0.00000000       0.00000000       3.00181818       0.00000000       0.00000000      -0.77455139
2
Properties=species:S:1:pos:R:3:forces:R:3 energy=-2.126336812902888 pbc="F F F"
Ga       0.00000000       0.00000000       0.00000000       0.00000000       0.00000000       0.83018017
Ga       0.00000000       0.00000000       3.06060606       0.00000000       0.00000000      -0.83018017
2
Properties=species:S:1:pos:R:3:forces:R:3 energy=-2.0760062635785395 pbc="F F F"
Ga       0.00000000       0.00000000       0.00000000       0.00000000       0.00000000       0.88108945
Ga       0.00000000       0.00000000       3.11939394       0.00000000       0.00000000      -0.88108945
2
Properties=species:S:1:pos:R:3:forces:R:3 energy=-2.0228881478839846 pbc="F F F"
Ga       0.00000000       0.00000000       0.00000000       0.00000000       0.00000000       0.92459935
Ga       0.00000000       0.00000000       3.17818182       0.00000000       0.00000000      -0.92459935
2
Properties=species:S:1:pos:R:3:forces:R:3 energy=-1.9674775663401887 pbc="F F F"
Ga       0.00000000       0.00000000       0.00000000       0.00000000       0.00000000       0.95888603
Ga       0.00000000       0.00000000       3.23696970       0.00000000       0.00000000      -0.95888603
2
Properties=species:S:1:pos:R:3:forces:R:3 energy=-1.9103478058365424 pbc="F F F"
Ga       0.00000000       0.00000000       0.00000000       0.00000000       0.00000000       0.98296434
Ga       0.00000000       0.00000000       3.29575758       0.00000000       0.00000000      -0.98296434
2
Properties=species:S:1:pos:R:3:forces:R:3 energy=-1.852111943884413 pbc="F F F"
Ga       0.00000000       0.00000000       0.00000000       0.00000000       0.00000000       0.99646747
Ga       0.00000000       0.00000000       3.35454545       0.00000000       0.00000000      -0.99646747
2
Properties=species:S:1:pos:R:3:forces:R:3 energy=-1.7933904255140716 pbc="F F F"
Ga       0.00000000       0.00000000       0.00000000       0.00000000       0.00000000       0.99958974
Ga       0.00000000       0.00000000       3.41333333       0.00000000       0.00000000      -0.99958974
2
Properties=species:S:1:pos:R:3:forces:R:3 energy=-1.7347738766807022 pbc="F F F"
Ga       0.00000000       0.00000000       0.00000000       0.00000000       0.00000000       0.99303406
Ga       0.00000000       0.00000000       3.47212121       0.00000000       0.00000000      -0.99303406
2
Properties=species:S:1:pos:R:3:forces:R:3 energy=-1.6768025167679386 pbc="F F F"
Ga       0.00000000       0.00000000       0.00000000       0.00000000       0.00000000       0.97786379
Ga       0.00000000       0.00000000       3.53090909       0.00000000       0.00000000      -0.97786379
2
Properties=species:S:1:pos:R:3:forces:R:3 energy=-1.6199455424048188 pbc="F F F"
Ga       0.00000000       0.00000000       0.00000000       0.00000000       0.00000000       0.95531160
Ga       0.00000000       0.00000000       3.58969697       0.00000000       0.00000000      -0.95531160
2
Properties=species:S:1:pos:R:3:forces:R:3 energy=-1.5646007228328025 pbc="F F F"
Ga       0.00000000       0.00000000       0.00000000       0.00000000       0.00000000       0.92663616
Ga       0.00000000       0.00000000       3.64848485       0.00000000       0.00000000      -0.92663616
2
Properties=species:S:1:pos:R:3:forces:R:3 energy=-1.5110930242553757 pbc="F F F"
Ga       0.00000000       0.00000000       0.00000000       0.00000000       0.00000000       0.89302772
Ga       0.00000000       0.00000000       3.70727273       0.00000000       0.00000000      -0.89302772
2
Properties=species:S:1:pos:R:3:forces:R:3 energy=-1.4596774945397402 pbc="F F F"
Ga       0.00000000       0.00000000       0.00000000       0.00000000       0.00000000       0.85558355
Ga       0.00000000       0.00000000       3.76606061       0.00000000       0.00000000      -0.85558355
2
Properties=species:S:1:pos:R:3:forces:R:3 energy=-1.410551966261806 pbc="F F F"
Ga       0.00000000       0.00000000       0.00000000       0.00000000       0.00000000       0.81533486
Ga       0.00000000       0.00000000       3.82484848       0.00000000       0.00000000      -0.81533486
2
Properties=species:S:1:pos:R:3:forces:R:3 energy=-1.3638501068894355 pbc="F F F"
Ga       0.00000000       0.00000000       0.00000000       0.00000000       0.00000000       0.77324277
Ga       0.00000000       0.00000000       3.88363636       0.00000000       0.00000000      -0.77324277
2
Properties=species:S:1:pos:R:3:forces:R:3 energy=-1.3196550699980245 pbc="F F F"
Ga       0.00000000       0.00000000       0.00000000       0.00000000       0.00000000       0.73021477
Ga       0.00000000       0.00000000       3.94242424       0.00000000       0.00000000      -0.73021477
2
Properties=species:S:1:pos:R:3:forces:R:3 energy=-1.2779971776089771 pbc="F F F"
Ga       0.00000000       0.00000000       0.00000000       0.00000000       0.00000000       0.68707573
Ga       0.00000000       0.00000000       4.00121212       0.00000000       0.00000000      -0.68707573
2
Properties=species:S:1:pos:R:3:forces:R:3 energy=-1.2388605463927185 pbc="F F F"
Ga       0.00000000       0.00000000       0.00000000       0.00000000       0.00000000       0.64452273
Ga       0.00000000       0.00000000       4.06000000       0.00000000       0.00000000      -0.64452273
2
Properties=species:S:1:pos:R:3:forces:R:3 energy=-1.2021949178987583 pbc="F F F"
Ga       0.00000000       0.00000000       0.00000000       0.00000000       0.00000000       0.60309166
Ga       0.00000000       0.00000000       4.11878788       0.00000000       0.00000000      -0.60309166
2
Properties=species:S:1:pos:R:3:forces:R:3 energy=-1.1679223691219511 pbc="F F F"
Ga       0.00000000       0.00000000       0.00000000       0.00000000       0.00000000       0.56313205
Ga       0.00000000       0.00000000       4.17757576       0.00000000       0.00000000      -0.56313205
2
Properties=species:S:1:pos:R:3:forces:R:3 energy=-1.1359507261314152 pbc="F F F"
Ga       0.00000000       0.00000000       0.00000000       0.00000000       0.00000000       0.52482879
Ga       0.00000000       0.00000000       4.23636364       0.00000000       0.00000000      -0.52482879
2
Properties=species:S:1:pos:R:3:forces:R:3 energy=-1.1061811586190213 pbc="F F F"
Ga       0.00000000       0.00000000       0.00000000       0.00000000       0.00000000       0.48824182
Ga       0.00000000       0.00000000       4.29515152       0.00000000       0.00000000      -0.48824182
2
Properties=species:S:1:pos:R:3:forces:R:3 energy=-1.0785118068632331 pbc="F F F"
Ga       0.00000000       0.00000000       0.00000000       0.00000000       0.00000000       0.45339280
Ga       0.00000000       0.00000000       4.35393939       0.00000000       0.00000000      -0.45339280
2
Properties=species:S:1:pos:R:3:forces:R:3 energy=-1.0528386423686296 pbc="F F F"
Ga       0.00000000       0.00000000       0.00000000       0.00000000       0.00000000       0.42033425
Ga       0.00000000       0.00000000       4.41272727       0.00000000       0.00000000      -0.42033425
2
Properties=species:S:1:pos:R:3:forces:R:3 energy=-1.0290519042585062 pbc="F F F"
Ga       0.00000000       0.00000000       0.00000000       0.00000000       0.00000000       0.38924345
Ga       0.00000000       0.00000000       4.47151515       0.00000000       0.00000000      -0.38924345
2
Properties=species:S:1:pos:R:3:forces:R:3 energy=-1.007027443346119 pbc="F F F"
Ga       0.00000000       0.00000000       0.00000000       0.00000000       0.00000000       0.36045793
Ga       0.00000000       0.00000000       4.53030303       0.00000000       0.00000000      -0.36045793
2
Properties=species:S:1:pos:R:3:forces:R:3 energy=-0.9866163966918972 pbc="F F F"
Ga       0.00000000       0.00000000       0.00000000       0.00000000       0.00000000       0.33446166
Ga       0.00000000       0.00000000       4.58909091       0.00000000       0.00000000      -0.33446166
2
Properties=species:S:1:pos:R:3:forces:R:3 energy=-0.9676376641629367 pbc="F F F"
Ga       0.00000000       0.00000000       0.00000000       0.00000000       0.00000000       0.31182215
Ga       0.00000000       0.00000000       4.64787879       0.00000000       0.00000000      -0.31182215
2
Properties=species:S:1:pos:R:3:forces:R:3 energy=-0.9498781025020698 pbc="F F F"
Ga       0.00000000       0.00000000       0.00000000       0.00000000       0.00000000       0.29301336
Ga       0.00000000       0.00000000       4.70666667       0.00000000       0.00000000      -0.29301336
2
Properties=species:S:1:pos:R:3:forces:R:3 energy=-0.9331071035392162 pbc="F F F"
Ga       0.00000000       0.00000000       0.00000000       0.00000000       0.00000000       0.27821872
Ga       0.00000000       0.00000000       4.76545455       0.00000000       0.00000000      -0.27821872
2
Properties=species:S:1:pos:R:3:forces:R:3 energy=-0.9170945114307945 pbc="F F F"
Ga       0.00000000       0.00000000       0.00000000       0.00000000       0.00000000       0.26705912
Ga       0.00000000       0.00000000       4.82424242       0.00000000       0.00000000      -0.26705912
2
Properties=species:S:1:pos:R:3:forces:R:3 energy=-0.9016591402565938 pbc="F F F"
Ga       0.00000000       0.00000000       0.00000000       0.00000000       0.00000000       0.25837764
Ga       0.00000000       0.00000000       4.88303030       0.00000000       0.00000000      -0.25837764
2
Properties=species:S:1:pos:R:3:forces:R:3 energy=-0.8867064984242067 pbc="F F F"
Ga       0.00000000       0.00000000       0.00000000       0.00000000       0.00000000       0.25015593
Ga       0.00000000       0.00000000       4.94181818       0.00000000       0.00000000      -0.25015593
2
Properties=species:S:1:pos:R:3:forces:R:3 energy=-0.8722865576571295 pbc="F F F"
Ga       0.00000000       0.00000000       0.00000000       0.00000000       0.00000000       0.23984629
Ga       0.00000000       0.00000000       5.00060606       0.00000000       0.00000000      -0.23984629
2
Properties=species:S:1:pos:R:3:forces:R:3 energy=-0.8585854511100927 pbc="F F F"
Ga       0.00000000       0.00000000       0.00000000       0.00000000       0.00000000       0.22557171
Ga       0.00000000       0.00000000       5.05939394       0.00000000       0.00000000      -0.22557171
2
Properties=species:S:1:pos:R:3:forces:R:3 energy=-0.8458206345505689 pbc="F F F"
Ga       0.00000000       0.00000000       0.00000000       0.00000000       0.00000000       0.20864999
Ga       0.00000000       0.00000000       5.11818182       0.00000000       0.00000000      -0.20864999
2
Properties=species:S:1:pos:R:3:forces:R:3 energy=-0.8339687769001741 pbc="F F F"
Ga       0.00000000       0.00000000       0.00000000       0.00000000       0.00000000       0.19624576
Ga       0.00000000       0.00000000       5.17696970       0.00000000       0.00000000      -0.19624576
2
Properties=species:S:1:pos:R:3:forces:R:3 energy=-0.8224415695717989 pbc="F F F"
Ga       0.00000000       0.00000000       0.00000000       0.00000000       0.00000000       0.19922073
Ga       0.00000000       0.00000000       5.23575758       0.00000000       0.00000000      -0.19922073
2
Properties=species:S:1:pos:R:3:forces:R:3 energy=-0.8101782988185892 pbc="F F F"
Ga       0.00000000       0.00000000       0.00000000       0.00000000       0.00000000       0.22020122
Ga       0.00000000       0.00000000       5.29454545       0.00000000       0.00000000      -0.22020122
2
Properties=species:S:1:pos:R:3:forces:R:3 energy=-0.7965153899701506 pbc="F F F"
Ga       0.00000000       0.00000000       0.00000000       0.00000000       0.00000000       0.24269952
Ga       0.00000000       0.00000000       5.35333333       0.00000000       0.00000000      -0.24269952
2
Properties=species:S:1:pos:R:3:forces:R:3 energy=-0.7820618709515437 pbc="F F F"
Ga       0.00000000       0.00000000       0.00000000       0.00000000       0.00000000       0.24456629
Ga       0.00000000       0.00000000       5.41212121       0.00000000       0.00000000      -0.24456629
2
Properties=species:S:1:pos:R:3:forces:R:3 energy=-0.7681946882526336 pbc="F F F"
Ga       0.00000000       0.00000000       0.00000000       0.00000000       0.00000000       0.22519992
Ga       0.00000000       0.00000000       5.47090909       0.00000000       0.00000000      -0.22519992
2
Properties=species:S:1:pos:R:3:forces:R:3 energy=-0.7555231435589875 pbc="F F F"
Ga       0.00000000       0.00000000       0.00000000       0.00000000       0.00000000       0.20898250
Ga       0.00000000       0.00000000       5.52969697       0.00000000       0.00000000      -0.20898250
2
Properties=species:S:1:pos:R:3:forces:R:3 energy=-0.743035594241246 pbc="F F F"
Ga       0.00000000       0.00000000       0.00000000       0.00000000       0.00000000       0.22174698
Ga       0.00000000       0.00000000       5.58848485       0.00000000       0.00000000      -0.22174698
2
Properties=species:S:1:pos:R:3:forces:R:3 energy=-0.7289025057342465 pbc="F F F"
Ga       0.00000000       0.00000000       0.00000000       0.00000000       0.00000000       0.26113141
Ga       0.00000000       0.00000000       5.64727273       0.00000000       0.00000000      -0.26113141
2
Properties=species:S:1:pos:R:3:forces:R:3 energy=-0.7125621238037605 pbc="F F F"
Ga       0.00000000       0.00000000       0.00000000       0.00000000       0.00000000       0.28912482
Ga       0.00000000       0.00000000       5.70606061       0.00000000       0.00000000      -0.28912482
2
Properties=species:S:1:pos:R:3:forces:R:3 energy=-0.6958878829915285 pbc="F F F"
Ga       0.00000000       0.00000000       0.00000000       0.00000000       0.00000000       0.26730764
Ga       0.00000000       0.00000000       5.76484848       0.00000000       0.00000000      -0.26730764
2
Properties=species:S:1:pos:R:3:forces:R:3 energy=-0.6821427120228083 pbc="F F F"
Ga       0.00000000       0.00000000       0.00000000       0.00000000       0.00000000       0.19468963
Ga       0.00000000       0.00000000       5.82363636       0.00000000       0.00000000      -0.19468963
2
Properties=species:S:1:pos:R:3:forces:R:3 energy=-0.673378491282359 pbc="F F F"
Ga       0.00000000       0.00000000       0.00000000       0.00000000       0.00000000       0.10457426
Ga       0.00000000       0.00000000       5.88242424       0.00000000       0.00000000      -0.10457426
2
Properties=species:S:1:pos:R:3:forces:R:3 energy=-0.6694413241530497 pbc="F F F"
Ga       0.00000000       0.00000000       0.00000000       0.00000000       0.00000000       0.03452947
Ga       0.00000000       0.00000000       5.94121212       0.00000000       0.00000000      -0.03452947
2
Properties=species:S:1:pos:R:3:forces:R:3 energy=-0.668439160796699 pbc="F F F"
Ga       0.00000000       0.00000000       0.00000000       0.00000000       0.00000000       0.00820687
Ga       0.00000000       0.00000000       6.00000000       0.00000000       0.00000000      -0.00820687
