2
Properties=species:S:1:pos:R:3:forces:R:3 energy=62146.99920498384 pbc="F F F"
Gd       0.00000000       0.00000000       0.00000000       0.00000000       0.00000000 -1542286.37500000
Gd       0.00000000       0.00000000       0.10000000       0.00000000       0.00000000 1542286.37500000
2
Properties=species:S:1:pos:R:3:forces:R:3 energy=17493.739439358844 pbc="F F F"
Gd       0.00000000       0.00000000       0.00000000       0.00000000       0.00000000 -324084.15625000
Gd       0.00000000       0.00000000       0.15959596       0.00000000       0.00000000  324084.15625000
2
Properties=species:S:1:pos:R:3:forces:R:3 energy=6435.389341702593 pbc="F F F"
Gd       0.00000000       0.00000000       0.00000000       0.00000000       0.00000000  -98765.42968750
Gd       0.00000000       0.00000000       0.21919192       0.00000000       0.00000000   98765.42968750
2
Properties=species:S:1:pos:R:3:forces:R:3 energy=2740.0260604525924 pbc="F F F"
Gd       0.00000000       0.00000000       0.00000000       0.00000000       0.00000000  -36819.88281250
Gd       0.00000000       0.00000000       0.27878788       0.00000000       0.00000000   36819.88281250
2
Properties=species:S:1:pos:R:3:forces:R:3 energy=1284.1117538119677 pbc="F F F"
Gd       0.00000000       0.00000000       0.00000000       0.00000000       0.00000000  -15471.21582031
Gd       0.00000000       0.00000000       0.33838384       0.00000000       0.00000000   15471.21582031
2
Properties=species:S:1:pos:R:3:forces:R:3 energy=649.3546126986864 pbc="F F F"
Gd       0.00000000       0.00000000       0.00000000       0.00000000       0.00000000   -7045.59277344
Gd       0.00000000       0.00000000       0.39797980       0.00000000       0.00000000    7045.59277344
2
Properties=species:S:1:pos:R:3:forces:R:3 energy=352.0583785804983 pbc="F F F"
Gd       0.00000000       0.00000000       0.00000000       0.00000000       0.00000000   -3412.61425781
Gd       0.00000000       0.00000000       0.45757576       0.00000000       0.00000000    3412.61425781
2
Properties=species:S:1:pos:R:3:forces:R:3 energy=204.66219939395083 pbc="F F F"
Gd       0.00000000       0.00000000       0.00000000       0.00000000       0.00000000   -1739.60266113
Gd       0.00000000       0.00000000       0.51717172       0.00000000       0.00000000    1739.60266113
2
Properties=species:S:1:pos:R:3:forces:R:3 energy=128.03527681820717 pbc="F F F"
Gd       0.00000000       0.00000000       0.00000000       0.00000000       0.00000000    -925.12915039
Gd       0.00000000       0.00000000       0.57676768       0.00000000       0.00000000     925.12915039
2
Properties=species:S:1:pos:R:3:forces:R:3 energy=86.66358801978325 pbc="F F F"
Gd       0.00000000       0.00000000       0.00000000       0.00000000       0.00000000    -507.59286499
Gd       0.00000000       0.00000000       0.63636364       0.00000000       0.00000000     507.59286499
2
Properties=species:S:1:pos:R:3:forces:R:3 energy=63.77998976817426 pbc="F F F"
Gd       0.00000000       0.00000000       0.00000000       0.00000000       0.00000000    -282.41815186
Gd       0.00000000       0.00000000       0.69595960       0.00000000       0.00000000     282.41815186
2
Properties=species:S:1:pos:R:3:forces:R:3 energy=51.08848446275824 pbc="F F F"
Gd       0.00000000       0.00000000       0.00000000       0.00000000       0.00000000    -155.09863281
Gd       0.00000000       0.00000000       0.75555556       0.00000000       0.00000000     155.09863281
2
Properties=species:S:1:pos:R:3:forces:R:3 energy=44.24664199512473 pbc="F F F"
Gd       0.00000000       0.00000000       0.00000000       0.00000000       0.00000000     -81.22251129
Gd       0.00000000       0.00000000       0.81515152       0.00000000       0.00000000      81.22251129
2
Properties=species:S:1:pos:R:3:forces:R:3 energy=40.76471246949777 pbc="F F F"
Gd       0.00000000       0.00000000       0.00000000       0.00000000       0.00000000     -39.98606491
Gd       0.00000000       0.00000000       0.87474747       0.00000000       0.00000000      39.98606491
2
Properties=species:S:1:pos:R:3:forces:R:3 energy=39.062842878701176 pbc="F F F"
Gd       0.00000000       0.00000000       0.00000000       0.00000000       0.00000000     -19.80507851
Gd       0.00000000       0.00000000       0.93434343       0.00000000       0.00000000      19.80507851
2
Properties=species:S:1:pos:R:3:forces:R:3 energy=38.175727919708386 pbc="F F F"
Gd       0.00000000       0.00000000       0.00000000       0.00000000       0.00000000     -11.23792744
Gd       0.00000000       0.00000000       0.99393939       0.00000000       0.00000000      11.23792744
2
Properties=species:S:1:pos:R:3:forces:R:3 energy=37.615254220877304 pbc="F F F"
Gd       0.00000000       0.00000000       0.00000000       0.00000000       0.00000000      -8.30128384
Gd       0.00000000       0.00000000       1.05353535       0.00000000       0.00000000       8.30128384
2
Properties=species:S:1:pos:R:3:forces:R:3 energy=37.09867648423625 pbc="F F F"
Gd       0.00000000       0.00000000       0.00000000       0.00000000       0.00000000      -9.82574368
Gd       0.00000000       0.00000000       1.11313131       0.00000000       0.00000000       9.82574368
2
Properties=species:S:1:pos:R:3:forces:R:3 energy=36.342650491671556 pbc="F F F"
Gd       0.00000000       0.00000000       0.00000000       0.00000000       0.00000000     -16.43557930
Gd       0.00000000       0.00000000       1.17272727       0.00000000       0.00000000      16.43557930
2
Properties=species:S:1:pos:R:3:forces:R:3 energy=35.03434062585158 pbc="F F F"
Gd       0.00000000       0.00000000       0.00000000       0.00000000       0.00000000     -28.31443405
Gd       0.00000000       0.00000000       1.23232323       0.00000000       0.00000000      28.31443405
2
Properties=species:S:1:pos:R:3:forces:R:3 energy=32.88069048743822 pbc="F F F"
Gd       0.00000000       0.00000000       0.00000000       0.00000000       0.00000000     -44.53044510
Gd       0.00000000       0.00000000       1.29191919       0.00000000       0.00000000      44.53044510
2
Properties=species:S:1:pos:R:3:forces:R:3 energy=29.683782226898085 pbc="F F F"
Gd       0.00000000       0.00000000       0.00000000       0.00000000       0.00000000     -62.89622116
Gd       0.00000000       0.00000000       1.35151515       0.00000000       0.00000000      62.89622116
2
Properties=species:S:1:pos:R:3:forces:R:3 energy=25.391507218966908 pbc="F F F"
Gd       0.00000000       0.00000000       0.00000000       0.00000000       0.00000000     -80.89698029
Gd       0.00000000       0.00000000       1.41111111       0.00000000       0.00000000      80.89698029
2
Properties=species:S:1:pos:R:3:forces:R:3 energy=20.094296797400837 pbc="F F F"
Gd       0.00000000       0.00000000       0.00000000       0.00000000       0.00000000     -96.22356415
Gd       0.00000000       0.00000000       1.47070707       0.00000000       0.00000000      96.22356415
2
Properties=species:S:1:pos:R:3:forces:R:3 energy=14.02784981420651 pbc="F F F"
Gd       0.00000000       0.00000000       0.00000000       0.00000000       0.00000000    -106.22604370
Gd       0.00000000       0.00000000       1.53030303       0.00000000       0.00000000     106.22604370
2
Properties=species:S:1:pos:R:3:forces:R:3 energy=7.598338258159307 pbc="F F F"
Gd       0.00000000       0.00000000       0.00000000       0.00000000       0.00000000    -107.95311737
Gd       0.00000000       0.00000000       1.58989899       0.00000000       0.00000000     107.95311737
2
Properties=species:S:1:pos:R:3:forces:R:3 energy=1.3569288664236758 pbc="F F F"
Gd       0.00000000       0.00000000       0.00000000       0.00000000       0.00000000     -99.94678497
Gd       0.00000000       0.00000000       1.64949495       0.00000000       0.00000000      99.94678497
2
Properties=species:S:1:pos:R:3:forces:R:3 energy=-4.166821852167484 pbc="F F F"
Gd       0.00000000       0.00000000       0.00000000       0.00000000       0.00000000     -84.61990356
Gd       0.00000000       0.00000000       1.70909091       0.00000000       0.00000000      84.61990356
2
Properties=species:S:1:pos:R:3:forces:R:3 energy=-8.690144415659786 pbc="F F F"
Gd       0.00000000       0.00000000       0.00000000       0.00000000       0.00000000     -67.27696991
Gd       0.00000000       0.00000000       1.76868687       0.00000000       0.00000000      67.27696991
2
Properties=species:S:1:pos:R:3:forces:R:3 energy=-12.228177171383516 pbc="F F F"
Gd       0.00000000       0.00000000       0.00000000       0.00000000       0.00000000     -51.94913101
Gd       0.00000000       0.00000000       1.82828283       0.00000000       0.00000000      51.94913101
2
Properties=species:S:1:pos:R:3:forces:R:3 energy=-14.939993600529116 pbc="F F F"
Gd       0.00000000       0.00000000       0.00000000       0.00000000       0.00000000     -39.48898315
Gd       0.00000000       0.00000000       1.88787879       0.00000000       0.00000000      39.48898315
2
Properties=species:S:1:pos:R:3:forces:R:3 energy=-16.978893601961637 pbc="F F F"
Gd       0.00000000       0.00000000       0.00000000       0.00000000       0.00000000     -29.26347923
Gd       0.00000000       0.00000000       1.94747475       0.00000000       0.00000000      29.26347923
2
Properties=species:S:1:pos:R:3:forces:R:3 energy=-18.4667258239228 pbc="F F F"
Gd       0.00000000       0.00000000       0.00000000       0.00000000       0.00000000     -21.00291061
Gd       0.00000000       0.00000000       2.00707071       0.00000000       0.00000000      21.00291061
2
Properties=species:S:1:pos:R:3:forces:R:3 energy=-19.523180673648554 pbc="F F F"
Gd       0.00000000       0.00000000       0.00000000       0.00000000       0.00000000     -14.78764725
Gd       0.00000000       0.00000000       2.06666667       0.00000000       0.00000000      14.78764725
2
Properties=species:S:1:pos:R:3:forces:R:3 energy=-20.265849483190582 pbc="F F F"
Gd       0.00000000       0.00000000       0.00000000       0.00000000       0.00000000     -10.40188503
Gd       0.00000000       0.00000000       2.12626263       0.00000000       0.00000000      10.40188503
2
Properties=species:S:1:pos:R:3:forces:R:3 energy=-20.789252244852907 pbc="F F F"
Gd       0.00000000       0.00000000       0.00000000       0.00000000       0.00000000      -7.34040260
Gd       0.00000000       0.00000000       2.18585859       0.00000000       0.00000000       7.34040260
2
Properties=species:S:1:pos:R:3:forces:R:3 energy=-21.15783570901827 pbc="F F F"
Gd       0.00000000       0.00000000       0.00000000       0.00000000       0.00000000      -5.14558935
Gd       0.00000000       0.00000000       2.24545455       0.00000000       0.00000000       5.14558935
2
Properties=species:S:1:pos:R:3:forces:R:3 energy=-21.414405785125076 pbc="F F F"
Gd       0.00000000       0.00000000       0.00000000       0.00000000       0.00000000      -3.55131721
Gd       0.00000000       0.00000000       2.30505051       0.00000000       0.00000000       3.55131721
2
Properties=species:S:1:pos:R:3:forces:R:3 energy=-21.590419582218765 pbc="F F F"
Gd       0.00000000       0.00000000       0.00000000       0.00000000       0.00000000      -2.42632675
Gd       0.00000000       0.00000000       2.36464646       0.00000000       0.00000000       2.42632675
2
Properties=species:S:1:pos:R:3:forces:R:3 energy=-21.711253518546926 pbc="F F F"
Gd       0.00000000       0.00000000       0.00000000       0.00000000       0.00000000      -1.68629885
Gd       0.00000000       0.00000000       2.42424242       0.00000000       0.00000000       1.68629885
2
Properties=species:S:1:pos:R:3:forces:R:3 energy=-21.797422130006957 pbc="F F F"
Gd       0.00000000       0.00000000       0.00000000       0.00000000       0.00000000      -1.24854946
Gd       0.00000000       0.00000000       2.48383838       0.00000000       0.00000000       1.24854946
2
Properties=species:S:1:pos:R:3:forces:R:3 energy=-21.864318544019113 pbc="F F F"
Gd       0.00000000       0.00000000       0.00000000       0.00000000       0.00000000      -1.02469075
Gd       0.00000000       0.00000000       2.54343434       0.00000000       0.00000000       1.02469075
2
Properties=species:S:1:pos:R:3:forces:R:3 energy=-21.922124992531874 pbc="F F F"
Gd       0.00000000       0.00000000       0.00000000       0.00000000       0.00000000      -0.93058294
Gd       0.00000000       0.00000000       2.60303030       0.00000000       0.00000000       0.93058294
2
Properties=species:S:1:pos:R:3:forces:R:3 energy=-21.97642309389235 pbc="F F F"
Gd       0.00000000       0.00000000       0.00000000       0.00000000       0.00000000      -0.89689523
Gd       0.00000000       0.00000000       2.66262626       0.00000000       0.00000000       0.89689523
2
Properties=species:S:1:pos:R:3:forces:R:3 energy=-22.0292046779296 pbc="F F F"
Gd       0.00000000       0.00000000       0.00000000       0.00000000       0.00000000      -0.87261587
Gd       0.00000000       0.00000000       2.72222222       0.00000000       0.00000000       0.87261587
2
Properties=species:S:1:pos:R:3:forces:R:3 energy=-22.07991710804006 pbc="F F F"
Gd       0.00000000       0.00000000       0.00000000       0.00000000       0.00000000      -0.82287163
Gd       0.00000000       0.00000000       2.78181818       0.00000000       0.00000000       0.82287163
2
Properties=species:S:1:pos:R:3:forces:R:3 energy=-22.126348252939316 pbc="F F F"
Gd       0.00000000       0.00000000       0.00000000       0.00000000       0.00000000      -0.72647965
Gd       0.00000000       0.00000000       2.84141414       0.00000000       0.00000000       0.72647965
2
Properties=species:S:1:pos:R:3:forces:R:3 energy=-22.165421863713267 pbc="F F F"
Gd       0.00000000       0.00000000       0.00000000       0.00000000       0.00000000      -0.57593089
Gd       0.00000000       0.00000000       2.90101010       0.00000000       0.00000000       0.57593089
2
Properties=species:S:1:pos:R:3:forces:R:3 energy=-22.19404810558854 pbc="F F F"
Gd       0.00000000       0.00000000       0.00000000       0.00000000       0.00000000      -0.37818277
Gd       0.00000000       0.00000000       2.96060606       0.00000000       0.00000000       0.37818277
2
Properties=species:S:1:pos:R:3:forces:R:3 energy=-22.20994968698064 pbc="F F F"
Gd       0.00000000       0.00000000       0.00000000       0.00000000       0.00000000      -0.15308578
Gd       0.00000000       0.00000000       3.02020202       0.00000000       0.00000000       0.15308578
2
Properties=species:S:1:pos:R:3:forces:R:3 energy=-22.21229497252713 pbc="F F F"
Gd       0.00000000       0.00000000       0.00000000       0.00000000       0.00000000       0.07202847
Gd       0.00000000       0.00000000       3.07979798       0.00000000       0.00000000      -0.07202847
2
Properties=species:S:1:pos:R:3:forces:R:3 energy=-22.201902056720083 pbc="F F F"
Gd       0.00000000       0.00000000       0.00000000       0.00000000       0.00000000       0.27039385
Gd       0.00000000       0.00000000       3.13939394       0.00000000       0.00000000      -0.27039385
2
Properties=species:S:1:pos:R:3:forces:R:3 energy=-22.180975397739278 pbc="F F F"
Gd       0.00000000       0.00000000       0.00000000       0.00000000       0.00000000       0.42343333
Gd       0.00000000       0.00000000       3.19898990       0.00000000       0.00000000      -0.42343333
2
Properties=species:S:1:pos:R:3:forces:R:3 energy=-22.152469092462333 pbc="F F F"
Gd       0.00000000       0.00000000       0.00000000       0.00000000       0.00000000       0.52467781
Gd       0.00000000       0.00000000       3.25858586       0.00000000       0.00000000      -0.52467781
2
Properties=species:S:1:pos:R:3:forces:R:3 energy=-22.119379022038753 pbc="F F F"
Gd       0.00000000       0.00000000       0.00000000       0.00000000       0.00000000       0.57875568
Gd       0.00000000       0.00000000       3.31818182       0.00000000       0.00000000      -0.57875568
2
Properties=species:S:1:pos:R:3:forces:R:3 energy=-22.084195613894714 pbc="F F F"
Gd       0.00000000       0.00000000       0.00000000       0.00000000       0.00000000       0.59721529
Gd       0.00000000       0.00000000       3.37777778       0.00000000       0.00000000      -0.59721529
2
Properties=species:S:1:pos:R:3:forces:R:3 energy=-22.04862504571478 pbc="F F F"
Gd       0.00000000       0.00000000       0.00000000       0.00000000       0.00000000       0.59405667
Gd       0.00000000       0.00000000       3.43737374       0.00000000       0.00000000      -0.59405667
2
Properties=species:S:1:pos:R:3:forces:R:3 energy=-22.01354955858803 pbc="F F F"
Gd       0.00000000       0.00000000       0.00000000       0.00000000       0.00000000       0.58265424
Gd       0.00000000       0.00000000       3.49696970       0.00000000       0.00000000      -0.58265424
2
Properties=species:S:1:pos:R:3:forces:R:3 energy=-21.97912286878916 pbc="F F F"
Gd       0.00000000       0.00000000       0.00000000       0.00000000       0.00000000       0.57384753
Gd       0.00000000       0.00000000       3.55656566       0.00000000       0.00000000      -0.57384753
2
Properties=species:S:1:pos:R:3:forces:R:3 energy=-21.94496437521429 pbc="F F F"
Gd       0.00000000       0.00000000       0.00000000       0.00000000       0.00000000       0.57435548
Gd       0.00000000       0.00000000       3.61616162       0.00000000       0.00000000      -0.57435548
2
Properties=species:S:1:pos:R:3:forces:R:3 energy=-21.910447517484908 pbc="F F F"
Gd       0.00000000       0.00000000       0.00000000       0.00000000       0.00000000       0.58564222
Gd       0.00000000       0.00000000       3.67575758       0.00000000       0.00000000      -0.58564222
2
Properties=species:S:1:pos:R:3:forces:R:3 energy=-21.8750145454931 pbc="F F F"
Gd       0.00000000       0.00000000       0.00000000       0.00000000       0.00000000       0.60412335
Gd       0.00000000       0.00000000       3.73535354       0.00000000       0.00000000      -0.60412335
2
Properties=species:S:1:pos:R:3:forces:R:3 energy=-21.83842809935177 pbc="F F F"
Gd       0.00000000       0.00000000       0.00000000       0.00000000       0.00000000       0.62316412
Gd       0.00000000       0.00000000       3.79494949       0.00000000       0.00000000      -0.62316412
2
Properties=species:S:1:pos:R:3:forces:R:3 energy=-21.800862749457696 pbc="F F F"
Gd       0.00000000       0.00000000       0.00000000       0.00000000       0.00000000       0.63608342
Gd       0.00000000       0.00000000       3.85454545       0.00000000       0.00000000      -0.63608342
2
Properties=species:S:1:pos:R:3:forces:R:3 energy=-21.76282143428344 pbc="F F F"
Gd       0.00000000       0.00000000       0.00000000       0.00000000       0.00000000       0.63867825
Gd       0.00000000       0.00000000       3.91414141       0.00000000       0.00000000      -0.63867825
2
Properties=species:S:1:pos:R:3:forces:R:3 energy=-21.72495966118524 pbc="F F F"
Gd       0.00000000       0.00000000       0.00000000       0.00000000       0.00000000       0.63016397
Gd       0.00000000       0.00000000       3.97373737       0.00000000       0.00000000      -0.63016397
2
Properties=species:S:1:pos:R:3:forces:R:3 energy=-21.687891305302927 pbc="F F F"
Gd       0.00000000       0.00000000       0.00000000       0.00000000       0.00000000       0.61255366
Gd       0.00000000       0.00000000       4.03333333       0.00000000       0.00000000      -0.61255366
2
Properties=species:S:1:pos:R:3:forces:R:3 energy=-21.652060658810402 pbc="F F F"
Gd       0.00000000       0.00000000       0.00000000       0.00000000       0.00000000       0.58926499
Gd       0.00000000       0.00000000       4.09292929       0.00000000       0.00000000      -0.58926499
2
Properties=species:S:1:pos:R:3:forces:R:3 energy=-21.617698707616913 pbc="F F F"
Gd       0.00000000       0.00000000       0.00000000       0.00000000       0.00000000       0.56374347
Gd       0.00000000       0.00000000       4.15252525       0.00000000       0.00000000      -0.56374347
2
Properties=species:S:1:pos:R:3:forces:R:3 energy=-21.58486135436743 pbc="F F F"
Gd       0.00000000       0.00000000       0.00000000       0.00000000       0.00000000       0.53849560
Gd       0.00000000       0.00000000       4.21212121       0.00000000       0.00000000      -0.53849560
2
Properties=species:S:1:pos:R:3:forces:R:3 energy=-21.553486600887766 pbc="F F F"
Gd       0.00000000       0.00000000       0.00000000       0.00000000       0.00000000       0.51468331
Gd       0.00000000       0.00000000       4.27171717       0.00000000       0.00000000      -0.51468331
2
Properties=species:S:1:pos:R:3:forces:R:3 energy=-21.52348816032306 pbc="F F F"
Gd       0.00000000       0.00000000       0.00000000       0.00000000       0.00000000       0.49221373
Gd       0.00000000       0.00000000       4.33131313       0.00000000       0.00000000      -0.49221373
2
Properties=species:S:1:pos:R:3:forces:R:3 energy=-21.4948088375569 pbc="F F F"
Gd       0.00000000       0.00000000       0.00000000       0.00000000       0.00000000       0.47018954
Gd       0.00000000       0.00000000       4.39090909       0.00000000       0.00000000      -0.47018954
2
Properties=species:S:1:pos:R:3:forces:R:3 energy=-21.467456876541316 pbc="F F F"
Gd       0.00000000       0.00000000       0.00000000       0.00000000       0.00000000       0.44759586
Gd       0.00000000       0.00000000       4.45050505       0.00000000       0.00000000      -0.44759586
2
Properties=species:S:1:pos:R:3:forces:R:3 energy=-21.441481158428903 pbc="F F F"
Gd       0.00000000       0.00000000       0.00000000       0.00000000       0.00000000       0.42395851
Gd       0.00000000       0.00000000       4.51010101       0.00000000       0.00000000      -0.42395851
2
Properties=species:S:1:pos:R:3:forces:R:3 energy=-21.416934968284433 pbc="F F F"
Gd       0.00000000       0.00000000       0.00000000       0.00000000       0.00000000       0.39980370
Gd       0.00000000       0.00000000       4.56969697       0.00000000       0.00000000      -0.39980370
2
Properties=species:S:1:pos:R:3:forces:R:3 energy=-21.393805530891413 pbc="F F F"
Gd       0.00000000       0.00000000       0.00000000       0.00000000       0.00000000       0.37672511
Gd       0.00000000       0.00000000       4.62929293       0.00000000       0.00000000      -0.37672511
2
Properties=species:S:1:pos:R:3:forces:R:3 energy=-21.371966244672873 pbc="F F F"
Gd       0.00000000       0.00000000       0.00000000       0.00000000       0.00000000       0.35699731
Gd       0.00000000       0.00000000       4.68888889       0.00000000       0.00000000      -0.35699731
2
Properties=species:S:1:pos:R:3:forces:R:3 energy=-21.35114432645669 pbc="F F F"
Gd       0.00000000       0.00000000       0.00000000       0.00000000       0.00000000       0.34277543
Gd       0.00000000       0.00000000       4.74848485       0.00000000       0.00000000      -0.34277543
2
Properties=species:S:1:pos:R:3:forces:R:3 energy=-21.330977898886072 pbc="F F F"
Gd       0.00000000       0.00000000       0.00000000       0.00000000       0.00000000       0.33514076
Gd       0.00000000       0.00000000       4.80808081       0.00000000       0.00000000      -0.33514076
2
Properties=species:S:1:pos:R:3:forces:R:3 energy=-21.311082848991987 pbc="F F F"
Gd       0.00000000       0.00000000       0.00000000       0.00000000       0.00000000       0.33330086
Gd       0.00000000       0.00000000       4.86767677       0.00000000       0.00000000      -0.33330086
2
Properties=species:S:1:pos:R:3:forces:R:3 energy=-21.291191931594827 pbc="F F F"
Gd       0.00000000       0.00000000       0.00000000       0.00000000       0.00000000       0.33435234
Gd       0.00000000       0.00000000       4.92727273       0.00000000       0.00000000      -0.33435234
2
Properties=species:S:1:pos:R:3:forces:R:3 energy=-21.27125579542553 pbc="F F F"
Gd       0.00000000       0.00000000       0.00000000       0.00000000       0.00000000       0.33415136
Gd       0.00000000       0.00000000       4.98686869       0.00000000       0.00000000      -0.33415136
2
Properties=species:S:1:pos:R:3:forces:R:3 energy=-21.25144677881589 pbc="F F F"
Gd       0.00000000       0.00000000       0.00000000       0.00000000       0.00000000       0.33010989
Gd       0.00000000       0.00000000       5.04646465       0.00000000       0.00000000      -0.33010989
2
Properties=species:S:1:pos:R:3:forces:R:3 energy=-21.23192219572747 pbc="F F F"
Gd       0.00000000       0.00000000       0.00000000       0.00000000       0.00000000       0.32581699
Gd       0.00000000       0.00000000       5.10606061       0.00000000       0.00000000      -0.32581699
2
Properties=species:S:1:pos:R:3:forces:R:3 energy=-21.212368530113537 pbc="F F F"
Gd       0.00000000       0.00000000       0.00000000       0.00000000       0.00000000       0.33363616
Gd       0.00000000       0.00000000       5.16565657       0.00000000       0.00000000      -0.33363616
2
Properties=species:S:1:pos:R:3:forces:R:3 energy=-21.191646472668356 pbc="F F F"
Gd       0.00000000       0.00000000       0.00000000       0.00000000       0.00000000       0.36634564
Gd       0.00000000       0.00000000       5.22525253       0.00000000       0.00000000      -0.36634564
2
Properties=species:S:1:pos:R:3:forces:R:3 energy=-21.168322976061106 pbc="F F F"
Gd       0.00000000       0.00000000       0.00000000       0.00000000       0.00000000       0.41727030
Gd       0.00000000       0.00000000       5.28484848       0.00000000       0.00000000      -0.41727030
2
Properties=species:S:1:pos:R:3:forces:R:3 energy=-21.14219898416994 pbc="F F F"
Gd       0.00000000       0.00000000       0.00000000       0.00000000       0.00000000       0.45369661
Gd       0.00000000       0.00000000       5.34444444       0.00000000       0.00000000      -0.45369661
2
Properties=species:S:1:pos:R:3:forces:R:3 energy=-21.115135187327134 pbc="F F F"
Gd       0.00000000       0.00000000       0.00000000       0.00000000       0.00000000       0.44688466
Gd       0.00000000       0.00000000       5.40404040       0.00000000       0.00000000      -0.44688466
2
Properties=species:S:1:pos:R:3:forces:R:3 energy=-21.08953178943098 pbc="F F F"
Gd       0.00000000       0.00000000       0.00000000       0.00000000       0.00000000       0.41146716
Gd       0.00000000       0.00000000       5.46363636       0.00000000       0.00000000      -0.41146716
2
Properties=species:S:1:pos:R:3:forces:R:3 energy=-21.06548837079687 pbc="F F F"
Gd       0.00000000       0.00000000       0.00000000       0.00000000       0.00000000       0.40701318
Gd       0.00000000       0.00000000       5.52323232       0.00000000       0.00000000      -0.40701318
2
Properties=species:S:1:pos:R:3:forces:R:3 energy=-21.039138753793935 pbc="F F F"
Gd       0.00000000       0.00000000       0.00000000       0.00000000       0.00000000       0.49542367
Gd       0.00000000       0.00000000       5.58282828       0.00000000       0.00000000      -0.49542367
2
Properties=species:S:1:pos:R:3:forces:R:3 energy=-21.004556298409383 pbc="F F F"
Gd       0.00000000       0.00000000       0.00000000       0.00000000       0.00000000       0.67479569
Gd       0.00000000       0.00000000       5.64242424       0.00000000       0.00000000      -0.67479569
2
Properties=species:S:1:pos:R:3:forces:R:3 energy=-20.958869465134683 pbc="F F F"
Gd       0.00000000       0.00000000       0.00000000       0.00000000       0.00000000       0.84255701
Gd       0.00000000       0.00000000       5.70202020       0.00000000       0.00000000      -0.84255701
2
Properties=species:S:1:pos:R:3:forces:R:3 energy=-20.907320056022463 pbc="F F F"
Gd       0.00000000       0.00000000       0.00000000       0.00000000       0.00000000       0.85526901
Gd       0.00000000       0.00000000       5.76161616       0.00000000       0.00000000      -0.85526901
2
Properties=species:S:1:pos:R:3:forces:R:3 energy=-20.861063959349494 pbc="F F F"
Gd       0.00000000       0.00000000       0.00000000       0.00000000       0.00000000       0.66623378
Gd       0.00000000       0.00000000       5.82121212       0.00000000       0.00000000      -0.66623378
2
Properties=species:S:1:pos:R:3:forces:R:3 energy=-20.8301369365579 pbc="F F F"
Gd       0.00000000       0.00000000       0.00000000       0.00000000       0.00000000       0.37064496
Gd       0.00000000       0.00000000       5.88080808       0.00000000       0.00000000      -0.37064496
2
Properties=species:S:1:pos:R:3:forces:R:3 energy=-20.815846145202414 pbc="F F F"
Gd       0.00000000       0.00000000       0.00000000       0.00000000       0.00000000       0.12256426
Gd       0.00000000       0.00000000       5.94040404       0.00000000       0.00000000      -0.12256426
2
Properties=species:S:1:pos:R:3:forces:R:3 energy=-20.812349493310457 pbc="F F F"
Gd       0.00000000       0.00000000       0.00000000       0.00000000       0.00000000       0.02710294
Gd       0.00000000       0.00000000       6.00000000       0.00000000       0.00000000      -0.02710294
