2
Properties=species:S:1:pos:R:3:forces:R:3 energy=4605.128160061726 pbc="F F F"
Ge       0.00000000       0.00000000       0.00000000       0.00000000       0.00000000  -72822.62500000
Ge       0.00000000       0.00000000       0.18000000       0.00000000       0.00000000   72822.62500000
2
Properties=species:S:1:pos:R:3:forces:R:3 energy=1973.0367293976633 pbc="F F F"
Ge       0.00000000       0.00000000       0.00000000       0.00000000       0.00000000  -26104.34765625
Ge       0.00000000       0.00000000       0.23878788       0.00000000       0.00000000   26104.34765625
2
Properties=species:S:1:pos:R:3:forces:R:3 energy=955.5629745148507 pbc="F F F"
Ge       0.00000000       0.00000000       0.00000000       0.00000000       0.00000000  -11019.25195312
Ge       0.00000000       0.00000000       0.29757576       0.00000000       0.00000000   11019.25195312
2
Properties=species:S:1:pos:R:3:forces:R:3 energy=504.7794967348154 pbc="F F F"
Ge       0.00000000       0.00000000       0.00000000       0.00000000       0.00000000   -5156.45312500
Ge       0.00000000       0.00000000       0.35636364       0.00000000       0.00000000    5156.45312500
2
Properties=species:S:1:pos:R:3:forces:R:3 energy=286.959947183772 pbc="F F F"
Ge       0.00000000       0.00000000       0.00000000       0.00000000       0.00000000   -2582.29077148
Ge       0.00000000       0.00000000       0.41515152       0.00000000       0.00000000    2582.29077148
2
Properties=species:S:1:pos:R:3:forces:R:3 energy=175.48330840566578 pbc="F F F"
Ge       0.00000000       0.00000000       0.00000000       0.00000000       0.00000000   -1352.94152832
Ge       0.00000000       0.00000000       0.47393939       0.00000000       0.00000000    1352.94152832
2
Properties=species:S:1:pos:R:3:forces:R:3 energy=116.32001650302384 pbc="F F F"
Ge       0.00000000       0.00000000       0.00000000       0.00000000       0.00000000    -726.54113770
Ge       0.00000000       0.00000000       0.53272727       0.00000000       0.00000000     726.54113770
2
Properties=species:S:1:pos:R:3:forces:R:3 energy=84.48819892675587 pbc="F F F"
Ge       0.00000000       0.00000000       0.00000000       0.00000000       0.00000000    -389.72686768
Ge       0.00000000       0.00000000       0.59151515       0.00000000       0.00000000     389.72686768
2
Properties=species:S:1:pos:R:3:forces:R:3 energy=67.6159837444588 pbc="F F F"
Ge       0.00000000       0.00000000       0.00000000       0.00000000       0.00000000    -202.23832703
Ge       0.00000000       0.00000000       0.65030303       0.00000000       0.00000000     202.23832703
2
Properties=species:S:1:pos:R:3:forces:R:3 energy=59.08646193536865 pbc="F F F"
Ge       0.00000000       0.00000000       0.00000000       0.00000000       0.00000000     -98.73633575
Ge       0.00000000       0.00000000       0.70909091       0.00000000       0.00000000      98.73633575
2
Properties=species:S:1:pos:R:3:forces:R:3 energy=54.954069257976315 pbc="F F F"
Ge       0.00000000       0.00000000       0.00000000       0.00000000       0.00000000     -49.39988708
Ge       0.00000000       0.00000000       0.76787879       0.00000000       0.00000000      49.39988708
2
Properties=species:S:1:pos:R:3:forces:R:3 energy=52.528616376052085 pbc="F F F"
Ge       0.00000000       0.00000000       0.00000000       0.00000000       0.00000000     -38.29249191
Ge       0.00000000       0.00000000       0.82666667       0.00000000       0.00000000      38.29249191
2
Properties=species:S:1:pos:R:3:forces:R:3 energy=49.994147205551535 pbc="F F F"
Ge       0.00000000       0.00000000       0.00000000       0.00000000       0.00000000     -50.50247192
Ge       0.00000000       0.00000000       0.88545455       0.00000000       0.00000000      50.50247192
2
Properties=species:S:1:pos:R:3:forces:R:3 energy=46.448524034476506 pbc="F F F"
Ge       0.00000000       0.00000000       0.00000000       0.00000000       0.00000000     -69.97412872
Ge       0.00000000       0.00000000       0.94424242       0.00000000       0.00000000      69.97412872
2
Properties=species:S:1:pos:R:3:forces:R:3 energy=41.91892663469757 pbc="F F F"
Ge       0.00000000       0.00000000       0.00000000       0.00000000       0.00000000     -82.05344391
Ge       0.00000000       0.00000000       1.00303030       0.00000000       0.00000000      82.05344391
2
Properties=species:S:1:pos:R:3:forces:R:3 energy=37.041184998276094 pbc="F F F"
Ge       0.00000000       0.00000000       0.00000000       0.00000000       0.00000000     -82.36031342
Ge       0.00000000       0.00000000       1.06181818       0.00000000       0.00000000      82.36031342
2
Properties=species:S:1:pos:R:3:forces:R:3 energy=32.32779614631417 pbc="F F F"
Ge       0.00000000       0.00000000       0.00000000       0.00000000       0.00000000     -77.80496216
Ge       0.00000000       0.00000000       1.12060606       0.00000000       0.00000000      77.80496216
2
Properties=species:S:1:pos:R:3:forces:R:3 energy=27.884957537359853 pbc="F F F"
Ge       0.00000000       0.00000000       0.00000000       0.00000000       0.00000000     -73.50179291
Ge       0.00000000       0.00000000       1.17939394       0.00000000       0.00000000      73.50179291
2
Properties=species:S:1:pos:R:3:forces:R:3 energy=23.666681189897698 pbc="F F F"
Ge       0.00000000       0.00000000       0.00000000       0.00000000       0.00000000     -70.17292786
Ge       0.00000000       0.00000000       1.23818182       0.00000000       0.00000000      70.17292786
2
Properties=species:S:1:pos:R:3:forces:R:3 energy=19.6193955454299 pbc="F F F"
Ge       0.00000000       0.00000000       0.00000000       0.00000000       0.00000000     -67.53684998
Ge       0.00000000       0.00000000       1.29696970       0.00000000       0.00000000      67.53684998
2
Properties=species:S:1:pos:R:3:forces:R:3 energy=15.746707549108752 pbc="F F F"
Ge       0.00000000       0.00000000       0.00000000       0.00000000       0.00000000     -63.84370041
Ge       0.00000000       0.00000000       1.35575758       0.00000000       0.00000000      63.84370041
2
Properties=species:S:1:pos:R:3:forces:R:3 energy=12.16706753995939 pbc="F F F"
Ge       0.00000000       0.00000000       0.00000000       0.00000000       0.00000000     -57.48966217
Ge       0.00000000       0.00000000       1.41454545       0.00000000       0.00000000      57.48966217
2
Properties=species:S:1:pos:R:3:forces:R:3 energy=9.024671286866527 pbc="F F F"
Ge       0.00000000       0.00000000       0.00000000       0.00000000       0.00000000     -49.26064301
Ge       0.00000000       0.00000000       1.47333333       0.00000000       0.00000000      49.26064301
2
Properties=species:S:1:pos:R:3:forces:R:3 energy=6.376582130138988 pbc="F F F"
Ge       0.00000000       0.00000000       0.00000000       0.00000000       0.00000000     -40.92700577
Ge       0.00000000       0.00000000       1.53212121       0.00000000       0.00000000      40.92700577
2
Properties=species:S:1:pos:R:3:forces:R:3 energy=4.194526759750983 pbc="F F F"
Ge       0.00000000       0.00000000       0.00000000       0.00000000       0.00000000     -33.49076462
Ge       0.00000000       0.00000000       1.59090909       0.00000000       0.00000000      33.49076462
2
Properties=species:S:1:pos:R:3:forces:R:3 energy=2.4166799659737173 pbc="F F F"
Ge       0.00000000       0.00000000       0.00000000       0.00000000       0.00000000     -27.18113327
Ge       0.00000000       0.00000000       1.64969697       0.00000000       0.00000000      27.18113327
2
Properties=species:S:1:pos:R:3:forces:R:3 energy=0.97708262467793 pbc="F F F"
Ge       0.00000000       0.00000000       0.00000000       0.00000000       0.00000000     -21.97089958
Ge       0.00000000       0.00000000       1.70848485       0.00000000       0.00000000      21.97089958
2
Properties=species:S:1:pos:R:3:forces:R:3 energy=-0.18583737870421718 pbc="F F F"
Ge       0.00000000       0.00000000       0.00000000       0.00000000       0.00000000     -17.74146271
Ge       0.00000000       0.00000000       1.76727273       0.00000000       0.00000000      17.74146271
2
Properties=species:S:1:pos:R:3:forces:R:3 energy=-1.1244727460059047 pbc="F F F"
Ge       0.00000000       0.00000000       0.00000000       0.00000000       0.00000000     -14.30905342
Ge       0.00000000       0.00000000       1.82606061       0.00000000       0.00000000      14.30905342
2
Properties=species:S:1:pos:R:3:forces:R:3 energy=-1.8807168450577536 pbc="F F F"
Ge       0.00000000       0.00000000       0.00000000       0.00000000       0.00000000     -11.51574326
Ge       0.00000000       0.00000000       1.88484848       0.00000000       0.00000000      11.51574326
2
Properties=species:S:1:pos:R:3:forces:R:3 energy=-2.489021033491019 pbc="F F F"
Ge       0.00000000       0.00000000       0.00000000       0.00000000       0.00000000      -9.26230145
Ge       0.00000000       0.00000000       1.94363636       0.00000000       0.00000000       9.26230145
2
Properties=species:S:1:pos:R:3:forces:R:3 energy=-2.978653919528803 pbc="F F F"
Ge       0.00000000       0.00000000       0.00000000       0.00000000       0.00000000      -7.46310663
Ge       0.00000000       0.00000000       2.00242424       0.00000000       0.00000000       7.46310663
2
Properties=species:S:1:pos:R:3:forces:R:3 energy=-3.3733889904658723 pbc="F F F"
Ge       0.00000000       0.00000000       0.00000000       0.00000000       0.00000000      -6.01550913
Ge       0.00000000       0.00000000       2.06121212       0.00000000       0.00000000       6.01550913
2
Properties=species:S:1:pos:R:3:forces:R:3 energy=-3.6907448443490187 pbc="F F F"
Ge       0.00000000       0.00000000       0.00000000       0.00000000       0.00000000      -4.81439066
Ge       0.00000000       0.00000000       2.12000000       0.00000000       0.00000000       4.81439066
2
Properties=species:S:1:pos:R:3:forces:R:3 energy=-3.9426333827374545 pbc="F F F"
Ge       0.00000000       0.00000000       0.00000000       0.00000000       0.00000000      -3.77702594
Ge       0.00000000       0.00000000       2.17878788       0.00000000       0.00000000       3.77702594
2
Properties=species:S:1:pos:R:3:forces:R:3 energy=-4.136986063830863 pbc="F F F"
Ge       0.00000000       0.00000000       0.00000000       0.00000000       0.00000000      -2.85037160
Ge       0.00000000       0.00000000       2.23757576       0.00000000       0.00000000       2.85037160
2
Properties=species:S:1:pos:R:3:forces:R:3 energy=-4.279325941881233 pbc="F F F"
Ge       0.00000000       0.00000000       0.00000000       0.00000000       0.00000000      -2.00365090
Ge       0.00000000       0.00000000       2.29636364       0.00000000       0.00000000       2.00365090
2
Properties=species:S:1:pos:R:3:forces:R:3 energy=-4.373804911557016 pbc="F F F"
Ge       0.00000000       0.00000000       0.00000000       0.00000000       0.00000000      -1.22045767
Ge       0.00000000       0.00000000       2.35515152       0.00000000       0.00000000       1.22045767
2
Properties=species:S:1:pos:R:3:forces:R:3 energy=-4.4239873319599194 pbc="F F F"
Ge       0.00000000       0.00000000       0.00000000       0.00000000       0.00000000      -0.49717942
Ge       0.00000000       0.00000000       2.41393939       0.00000000       0.00000000       0.49717942
2
Properties=species:S:1:pos:R:3:forces:R:3 energy=-4.433604524729255 pbc="F F F"
Ge       0.00000000       0.00000000       0.00000000       0.00000000       0.00000000       0.15726206
Ge       0.00000000       0.00000000       2.47272727       0.00000000       0.00000000      -0.15726206
2
Properties=species:S:1:pos:R:3:forces:R:3 energy=-4.407155655225694 pbc="F F F"
Ge       0.00000000       0.00000000       0.00000000       0.00000000       0.00000000       0.72713828
Ge       0.00000000       0.00000000       2.53151515       0.00000000       0.00000000      -0.72713828
2
Properties=species:S:1:pos:R:3:forces:R:3 energy=-4.350034291967454 pbc="F F F"
Ge       0.00000000       0.00000000       0.00000000       0.00000000       0.00000000       1.19916475
Ge       0.00000000       0.00000000       2.59030303       0.00000000       0.00000000      -1.19916475
2
Properties=species:S:1:pos:R:3:forces:R:3 energy=-4.2681898339457724 pbc="F F F"
Ge       0.00000000       0.00000000       0.00000000       0.00000000       0.00000000       1.56804919
Ge       0.00000000       0.00000000       2.64909091       0.00000000       0.00000000      -1.56804919
2
Properties=species:S:1:pos:R:3:forces:R:3 energy=-4.167636371744972 pbc="F F F"
Ge       0.00000000       0.00000000       0.00000000       0.00000000       0.00000000       1.83674324
Ge       0.00000000       0.00000000       2.70787879       0.00000000       0.00000000      -1.83674324
2
Properties=species:S:1:pos:R:3:forces:R:3 energy=-4.05402551184553 pbc="F F F"
Ge       0.00000000       0.00000000       0.00000000       0.00000000       0.00000000       2.01414275
Ge       0.00000000       0.00000000       2.76666667       0.00000000       0.00000000      -2.01414275
2
Properties=species:S:1:pos:R:3:forces:R:3 energy=-3.9323610536425817 pbc="F F F"
Ge       0.00000000       0.00000000       0.00000000       0.00000000       0.00000000       2.11307716
Ge       0.00000000       0.00000000       2.82545455       0.00000000       0.00000000      -2.11307716
2
Properties=species:S:1:pos:R:3:forces:R:3 energy=-3.8068103126647923 pbc="F F F"
Ge       0.00000000       0.00000000       0.00000000       0.00000000       0.00000000       2.14916444
Ge       0.00000000       0.00000000       2.88424242       0.00000000       0.00000000      -2.14916444
2
Properties=species:S:1:pos:R:3:forces:R:3 energy=-3.6805855303437722 pbc="F F F"
Ge       0.00000000       0.00000000       0.00000000       0.00000000       0.00000000       2.13851953
Ge       0.00000000       0.00000000       2.94303030       0.00000000       0.00000000      -2.13851953
2
Properties=species:S:1:pos:R:3:forces:R:3 energy=-3.5560262382510253 pbc="F F F"
Ge       0.00000000       0.00000000       0.00000000       0.00000000       0.00000000       2.09431148
Ge       0.00000000       0.00000000       3.00181818       0.00000000       0.00000000      -2.09431148
2
Properties=species:S:1:pos:R:3:forces:R:3 energy=-3.4348059775875557 pbc="F F F"
Ge       0.00000000       0.00000000       0.00000000       0.00000000       0.00000000       2.02655888
Ge       0.00000000       0.00000000       3.06060606       0.00000000       0.00000000      -2.02655888
2
Properties=species:S:1:pos:R:3:forces:R:3 energy=-3.3180432092659315 pbc="F F F"
Ge       0.00000000       0.00000000       0.00000000       0.00000000       0.00000000       1.94397545
Ge       0.00000000       0.00000000       3.11939394       0.00000000       0.00000000      -1.94397545
2
Properties=species:S:1:pos:R:3:forces:R:3 energy=-3.206385947696394 pbc="F F F"
Ge       0.00000000       0.00000000       0.00000000       0.00000000       0.00000000       1.85394228
Ge       0.00000000       0.00000000       3.17818182       0.00000000       0.00000000      -1.85394228
2
Properties=species:S:1:pos:R:3:forces:R:3 energy=-3.1001078721048296 pbc="F F F"
Ge       0.00000000       0.00000000       0.00000000       0.00000000       0.00000000       1.76164734
Ge       0.00000000       0.00000000       3.23696970       0.00000000       0.00000000      -1.76164734
2
Properties=species:S:1:pos:R:3:forces:R:3 energy=-2.9992457262201824 pbc="F F F"
Ge       0.00000000       0.00000000       0.00000000       0.00000000       0.00000000       1.66996694
Ge       0.00000000       0.00000000       3.29575758       0.00000000       0.00000000      -1.66996694
2
Properties=species:S:1:pos:R:3:forces:R:3 energy=-2.9037248631756314 pbc="F F F"
Ge       0.00000000       0.00000000       0.00000000       0.00000000       0.00000000       1.58003414
Ge       0.00000000       0.00000000       3.35454545       0.00000000       0.00000000      -1.58003414
2
Properties=species:S:1:pos:R:3:forces:R:3 energy=-2.813435369096245 pbc="F F F"
Ge       0.00000000       0.00000000       0.00000000       0.00000000       0.00000000       1.49194419
Ge       0.00000000       0.00000000       3.41333333       0.00000000       0.00000000      -1.49194419
2
Properties=species:S:1:pos:R:3:forces:R:3 energy=-2.7282784590478397 pbc="F F F"
Ge       0.00000000       0.00000000       0.00000000       0.00000000       0.00000000       1.40537620
Ge       0.00000000       0.00000000       3.47212121       0.00000000       0.00000000      -1.40537620
2
Properties=species:S:1:pos:R:3:forces:R:3 energy=-2.648173646617753 pbc="F F F"
Ge       0.00000000       0.00000000       0.00000000       0.00000000       0.00000000       1.32005107
Ge       0.00000000       0.00000000       3.53090909       0.00000000       0.00000000      -1.32005107
2
Properties=species:S:1:pos:R:3:forces:R:3 energy=-2.573047091259001 pbc="F F F"
Ge       0.00000000       0.00000000       0.00000000       0.00000000       0.00000000       1.23601723
Ge       0.00000000       0.00000000       3.58969697       0.00000000       0.00000000      -1.23601723
2
Properties=species:S:1:pos:R:3:forces:R:3 energy=-2.5028125159725527 pbc="F F F"
Ge       0.00000000       0.00000000       0.00000000       0.00000000       0.00000000       1.15376532
Ge       0.00000000       0.00000000       3.64848485       0.00000000       0.00000000      -1.15376532
2
Properties=species:S:1:pos:R:3:forces:R:3 energy=-2.4373422642966625 pbc="F F F"
Ge       0.00000000       0.00000000       0.00000000       0.00000000       0.00000000       1.07410371
Ge       0.00000000       0.00000000       3.70727273       0.00000000       0.00000000      -1.07410371
2
Properties=species:S:1:pos:R:3:forces:R:3 energy=-2.3764553373643076 pbc="F F F"
Ge       0.00000000       0.00000000       0.00000000       0.00000000       0.00000000       0.99793208
Ge       0.00000000       0.00000000       3.76606061       0.00000000       0.00000000      -0.99793208
2
Properties=species:S:1:pos:R:3:forces:R:3 energy=-2.3199262018874123 pbc="F F F"
Ge       0.00000000       0.00000000       0.00000000       0.00000000       0.00000000       0.92597169
Ge       0.00000000       0.00000000       3.82484848       0.00000000       0.00000000      -0.92597169
2
Properties=species:S:1:pos:R:3:forces:R:3 energy=-2.26749349043511 pbc="F F F"
Ge       0.00000000       0.00000000       0.00000000       0.00000000       0.00000000       0.85858190
Ge       0.00000000       0.00000000       3.88363636       0.00000000       0.00000000      -0.85858190
2
Properties=species:S:1:pos:R:3:forces:R:3 energy=-2.218888881760039 pbc="F F F"
Ge       0.00000000       0.00000000       0.00000000       0.00000000       0.00000000       0.79573512
Ge       0.00000000       0.00000000       3.94242424       0.00000000       0.00000000      -0.79573512
2
Properties=species:S:1:pos:R:3:forces:R:3 energy=-2.173852159182692 pbc="F F F"
Ge       0.00000000       0.00000000       0.00000000       0.00000000       0.00000000       0.73712462
Ge       0.00000000       0.00000000       4.00121212       0.00000000       0.00000000      -0.73712462
2
Properties=species:S:1:pos:R:3:forces:R:3 energy=-2.1321459576972743 pbc="F F F"
Ge       0.00000000       0.00000000       0.00000000       0.00000000       0.00000000       0.68233788
Ge       0.00000000       0.00000000       4.06000000       0.00000000       0.00000000      -0.68233788
2
Properties=species:S:1:pos:R:3:forces:R:3 energy=-2.0935578843963416 pbc="F F F"
Ge       0.00000000       0.00000000       0.00000000       0.00000000       0.00000000       0.63104415
Ge       0.00000000       0.00000000       4.11878788       0.00000000       0.00000000      -0.63104415
2
Properties=species:S:1:pos:R:3:forces:R:3 energy=-2.0578849484032466 pbc="F F F"
Ge       0.00000000       0.00000000       0.00000000       0.00000000       0.00000000       0.58310145
Ge       0.00000000       0.00000000       4.17757576       0.00000000       0.00000000      -0.58310145
2
Properties=species:S:1:pos:R:3:forces:R:3 energy=-2.0249309846171495 pbc="F F F"
Ge       0.00000000       0.00000000       0.00000000       0.00000000       0.00000000       0.53859144
Ge       0.00000000       0.00000000       4.23636364       0.00000000       0.00000000      -0.53859144
2
Properties=species:S:1:pos:R:3:forces:R:3 energy=-1.994487140235446 pbc="F F F"
Ge       0.00000000       0.00000000       0.00000000       0.00000000       0.00000000       0.49775493
Ge       0.00000000       0.00000000       4.29515152       0.00000000       0.00000000      -0.49775493
2
Properties=species:S:1:pos:R:3:forces:R:3 energy=-1.966329389197668 pbc="F F F"
Ge       0.00000000       0.00000000       0.00000000       0.00000000       0.00000000       0.46090129
Ge       0.00000000       0.00000000       4.35393939       0.00000000       0.00000000      -0.46090129
2
Properties=species:S:1:pos:R:3:forces:R:3 energy=-1.9402136180940814 pbc="F F F"
Ge       0.00000000       0.00000000       0.00000000       0.00000000       0.00000000       0.42829210
Ge       0.00000000       0.00000000       4.41272727       0.00000000       0.00000000      -0.42829210
2
Properties=species:S:1:pos:R:3:forces:R:3 energy=-1.9158859546082787 pbc="F F F"
Ge       0.00000000       0.00000000       0.00000000       0.00000000       0.00000000       0.40008223
Ge       0.00000000       0.00000000       4.47151515       0.00000000       0.00000000      -0.40008223
2
Properties=species:S:1:pos:R:3:forces:R:3 energy=-1.8930867065914265 pbc="F F F"
Ge       0.00000000       0.00000000       0.00000000       0.00000000       0.00000000       0.37628147
Ge       0.00000000       0.00000000       4.53030303       0.00000000       0.00000000      -0.37628147
2
Properties=species:S:1:pos:R:3:forces:R:3 energy=-1.8715608528957048 pbc="F F F"
Ge       0.00000000       0.00000000       0.00000000       0.00000000       0.00000000       0.35675097
Ge       0.00000000       0.00000000       4.58909091       0.00000000       0.00000000      -0.35675097
2
Properties=species:S:1:pos:R:3:forces:R:3 energy=-1.8510637844271387 pbc="F F F"
Ge       0.00000000       0.00000000       0.00000000       0.00000000       0.00000000       0.34120631
Ge       0.00000000       0.00000000       4.64787879       0.00000000       0.00000000      -0.34120631
2
Properties=species:S:1:pos:R:3:forces:R:3 energy=-1.831373513426293 pbc="F F F"
Ge       0.00000000       0.00000000       0.00000000       0.00000000       0.00000000       0.32918829
Ge       0.00000000       0.00000000       4.70666667       0.00000000       0.00000000      -0.32918829
2
Properties=species:S:1:pos:R:3:forces:R:3 energy=-1.812303283894429 pbc="F F F"
Ge       0.00000000       0.00000000       0.00000000       0.00000000       0.00000000       0.32001731
Ge       0.00000000       0.00000000       4.76545455       0.00000000       0.00000000      -0.32001731
2
Properties=species:S:1:pos:R:3:forces:R:3 energy=-1.7937088532795933 pbc="F F F"
Ge       0.00000000       0.00000000       0.00000000       0.00000000       0.00000000       0.31275859
Ge       0.00000000       0.00000000       4.82424242       0.00000000       0.00000000      -0.31275859
2
Properties=species:S:1:pos:R:3:forces:R:3 energy=-1.775517274184463 pbc="F F F"
Ge       0.00000000       0.00000000       0.00000000       0.00000000       0.00000000       0.30620483
Ge       0.00000000       0.00000000       4.88303030       0.00000000       0.00000000      -0.30620483
2
Properties=species:S:1:pos:R:3:forces:R:3 energy=-1.7577204000439135 pbc="F F F"
Ge       0.00000000       0.00000000       0.00000000       0.00000000       0.00000000       0.29898223
Ge       0.00000000       0.00000000       4.94181818       0.00000000       0.00000000      -0.29898223
2
Properties=species:S:1:pos:R:3:forces:R:3 energy=-1.7404027115746363 pbc="F F F"
Ge       0.00000000       0.00000000       0.00000000       0.00000000       0.00000000       0.28976676
Ge       0.00000000       0.00000000       5.00060606       0.00000000       0.00000000      -0.28976676
2
Properties=species:S:1:pos:R:3:forces:R:3 energy=-1.7237051357558268 pbc="F F F"
Ge       0.00000000       0.00000000       0.00000000       0.00000000       0.00000000       0.27777672
Ge       0.00000000       0.00000000       5.05939394       0.00000000       0.00000000      -0.27777672
2
Properties=species:S:1:pos:R:3:forces:R:3 energy=-1.7077878287721777 pbc="F F F"
Ge       0.00000000       0.00000000       0.00000000       0.00000000       0.00000000       0.26356152
Ge       0.00000000       0.00000000       5.11818182       0.00000000       0.00000000      -0.26356152
2
Properties=species:S:1:pos:R:3:forces:R:3 energy=-1.6927118645457977 pbc="F F F"
Ge       0.00000000       0.00000000       0.00000000       0.00000000       0.00000000       0.24971381
Ge       0.00000000       0.00000000       5.17696970       0.00000000       0.00000000      -0.24971381
2
Properties=species:S:1:pos:R:3:forces:R:3 energy=-1.6783463180146272 pbc="F F F"
Ge       0.00000000       0.00000000       0.00000000       0.00000000       0.00000000       0.23995000
Ge       0.00000000       0.00000000       5.23575758       0.00000000       0.00000000      -0.23995000
2
Properties=species:S:1:pos:R:3:forces:R:3 energy=-1.6644005653062186 pbc="F F F"
Ge       0.00000000       0.00000000       0.00000000       0.00000000       0.00000000       0.23499970
Ge       0.00000000       0.00000000       5.29454545       0.00000000       0.00000000      -0.23499970
2
Properties=species:S:1:pos:R:3:forces:R:3 energy=-1.6507321692384642 pbc="F F F"
Ge       0.00000000       0.00000000       0.00000000       0.00000000       0.00000000       0.22910956
Ge       0.00000000       0.00000000       5.35333333       0.00000000       0.00000000      -0.22910956
2
Properties=species:S:1:pos:R:3:forces:R:3 energy=-1.6376344335087933 pbc="F F F"
Ge       0.00000000       0.00000000       0.00000000       0.00000000       0.00000000       0.21478820
Ge       0.00000000       0.00000000       5.41212121       0.00000000       0.00000000      -0.21478820
2
Properties=species:S:1:pos:R:3:forces:R:3 energy=-1.6256492647004206 pbc="F F F"
Ge       0.00000000       0.00000000       0.00000000       0.00000000       0.00000000       0.19206879
Ge       0.00000000       0.00000000       5.47090909       0.00000000       0.00000000      -0.19206879
2
Properties=species:S:1:pos:R:3:forces:R:3 energy=-1.6150411713796466 pbc="F F F"
Ge       0.00000000       0.00000000       0.00000000       0.00000000       0.00000000       0.16982684
Ge       0.00000000       0.00000000       5.52969697       0.00000000       0.00000000      -0.16982684
2
Properties=species:S:1:pos:R:3:forces:R:3 energy=-1.605477085367145 pbc="F F F"
Ge       0.00000000       0.00000000       0.00000000       0.00000000       0.00000000       0.15767421
Ge       0.00000000       0.00000000       5.58848485       0.00000000       0.00000000      -0.15767421
2
Properties=species:S:1:pos:R:3:forces:R:3 energy=-1.5963028191678097 pbc="F F F"
Ge       0.00000000       0.00000000       0.00000000       0.00000000       0.00000000       0.15551920
Ge       0.00000000       0.00000000       5.64727273       0.00000000       0.00000000      -0.15551920
2
Properties=species:S:1:pos:R:3:forces:R:3 energy=-1.5872464451286135 pbc="F F F"
Ge       0.00000000       0.00000000       0.00000000       0.00000000       0.00000000       0.15063430
Ge       0.00000000       0.00000000       5.70606061       0.00000000       0.00000000      -0.15063430
2
Properties=species:S:1:pos:R:3:forces:R:3 energy=-1.5789036249667694 pbc="F F F"
Ge       0.00000000       0.00000000       0.00000000       0.00000000       0.00000000       0.12943006
Ge       0.00000000       0.00000000       5.76484848       0.00000000       0.00000000      -0.12943006
2
Properties=species:S:1:pos:R:3:forces:R:3 energy=-1.5723535103111974 pbc="F F F"
Ge       0.00000000       0.00000000       0.00000000       0.00000000       0.00000000       0.09159090
Ge       0.00000000       0.00000000       5.82363636       0.00000000       0.00000000      -0.09159090
2
Properties=species:S:1:pos:R:3:forces:R:3 energy=-1.5682359752703343 pbc="F F F"
Ge       0.00000000       0.00000000       0.00000000       0.00000000       0.00000000       0.04961954
Ge       0.00000000       0.00000000       5.88242424       0.00000000       0.00000000      -0.04961954
2
Properties=species:S:1:pos:R:3:forces:R:3 energy=-1.5663180649173247 pbc="F F F"
Ge       0.00000000       0.00000000       0.00000000       0.00000000       0.00000000       0.01803098
Ge       0.00000000       0.00000000       5.94121212       0.00000000       0.00000000      -0.01803098
2
Properties=species:S:1:pos:R:3:forces:R:3 energy=-1.5657198945178552 pbc="F F F"
Ge       0.00000000       0.00000000       0.00000000       0.00000000       0.00000000       0.00616144
Ge       0.00000000       0.00000000       6.00000000       0.00000000       0.00000000      -0.00616144
