2
Properties=species:S:1:pos:R:3:forces:R:3 energy=15606.682361583009 pbc="F F F"
Ir       0.00000000       0.00000000       0.00000000       0.00000000       0.00000000 -275193.93750000
Ir       0.00000000       0.00000000       0.18000000       0.00000000       0.00000000  275193.93750000
2
Properties=species:S:1:pos:R:3:forces:R:3 energy=6011.273181895509 pbc="F F F"
Ir       0.00000000       0.00000000       0.00000000       0.00000000       0.00000000  -90495.79687500
Ir       0.00000000       0.00000000       0.23878788       0.00000000       0.00000000   90495.79687500
2
Properties=species:S:1:pos:R:3:forces:R:3 energy=2611.6987190080513 pbc="F F F"
Ir       0.00000000       0.00000000       0.00000000       0.00000000       0.00000000  -34999.35937500
Ir       0.00000000       0.00000000       0.29757576       0.00000000       0.00000000   34999.35937500
2
Properties=species:S:1:pos:R:3:forces:R:3 energy=1234.5578498705943 pbc="F F F"
Ir       0.00000000       0.00000000       0.00000000       0.00000000       0.00000000  -14974.58496094
Ir       0.00000000       0.00000000       0.35636364       0.00000000       0.00000000   14974.58496094
2
Properties=species:S:1:pos:R:3:forces:R:3 energy=625.5307502675548 pbc="F F F"
Ir       0.00000000       0.00000000       0.00000000       0.00000000       0.00000000   -6890.65771484
Ir       0.00000000       0.00000000       0.41515152       0.00000000       0.00000000    6890.65771484
2
Properties=species:S:1:pos:R:3:forces:R:3 energy=337.73704910835113 pbc="F F F"
Ir       0.00000000       0.00000000       0.00000000       0.00000000       0.00000000   -3362.12548828
Ir       0.00000000       0.00000000       0.47393939       0.00000000       0.00000000    3362.12548828
2
Properties=species:S:1:pos:R:3:forces:R:3 energy=194.1299324313071 pbc="F F F"
Ir       0.00000000       0.00000000       0.00000000       0.00000000       0.00000000   -1722.86499023
Ir       0.00000000       0.00000000       0.53272727       0.00000000       0.00000000    1722.86499023
2
Properties=species:S:1:pos:R:3:forces:R:3 energy=119.15864951350443 pbc="F F F"
Ir       0.00000000       0.00000000       0.00000000       0.00000000       0.00000000    -918.89099121
Ir       0.00000000       0.00000000       0.59151515       0.00000000       0.00000000     918.89099121
2
Properties=species:S:1:pos:R:3:forces:R:3 energy=78.58803953047416 pbc="F F F"
Ir       0.00000000       0.00000000       0.00000000       0.00000000       0.00000000    -505.21771240
Ir       0.00000000       0.00000000       0.65030303       0.00000000       0.00000000     505.21771240
2
Properties=species:S:1:pos:R:3:forces:R:3 energy=56.0789988088284 pbc="F F F"
Ir       0.00000000       0.00000000       0.00000000       0.00000000       0.00000000    -282.48745728
Ir       0.00000000       0.00000000       0.70909091       0.00000000       0.00000000     282.48745728
2
Properties=species:S:1:pos:R:3:forces:R:3 energy=43.494915416426245 pbc="F F F"
Ir       0.00000000       0.00000000       0.00000000       0.00000000       0.00000000    -157.23066711
Ir       0.00000000       0.00000000       0.76787879       0.00000000       0.00000000     157.23066711
2
Properties=species:S:1:pos:R:3:forces:R:3 energy=36.556709935018766 pbc="F F F"
Ir       0.00000000       0.00000000       0.00000000       0.00000000       0.00000000     -85.51422119
Ir       0.00000000       0.00000000       0.82666667       0.00000000       0.00000000      85.51422119
2
Properties=species:S:1:pos:R:3:forces:R:3 energy=32.819985423627934 pbc="F F F"
Ir       0.00000000       0.00000000       0.00000000       0.00000000       0.00000000     -45.76300430
Ir       0.00000000       0.00000000       0.88545455       0.00000000       0.00000000      45.76300430
2
Properties=species:S:1:pos:R:3:forces:R:3 energy=30.78355936728309 pbc="F F F"
Ir       0.00000000       0.00000000       0.00000000       0.00000000       0.00000000     -26.20081139
Ir       0.00000000       0.00000000       0.94424242       0.00000000       0.00000000      26.20081139
2
Properties=species:S:1:pos:R:3:forces:R:3 energy=29.47864364752198 pbc="F F F"
Ir       0.00000000       0.00000000       0.00000000       0.00000000       0.00000000     -20.03654289
Ir       0.00000000       0.00000000       1.00303030       0.00000000       0.00000000      20.03654289
2
Properties=species:S:1:pos:R:3:forces:R:3 energy=28.246127301584007 pbc="F F F"
Ir       0.00000000       0.00000000       0.00000000       0.00000000       0.00000000     -23.14860725
Ir       0.00000000       0.00000000       1.06181818       0.00000000       0.00000000      23.14860725
2
Properties=species:S:1:pos:R:3:forces:R:3 energy=26.646641184829814 pbc="F F F"
Ir       0.00000000       0.00000000       0.00000000       0.00000000       0.00000000     -31.85487366
Ir       0.00000000       0.00000000       1.12060606       0.00000000       0.00000000      31.85487366
2
Properties=species:S:1:pos:R:3:forces:R:3 energy=24.478506146718622 pbc="F F F"
Ir       0.00000000       0.00000000       0.00000000       0.00000000       0.00000000     -41.70195389
Ir       0.00000000       0.00000000       1.17939394       0.00000000       0.00000000      41.70195389
2
Properties=species:S:1:pos:R:3:forces:R:3 energy=21.79639833185766 pbc="F F F"
Ir       0.00000000       0.00000000       0.00000000       0.00000000       0.00000000     -49.03041840
Ir       0.00000000       0.00000000       1.23818182       0.00000000       0.00000000      49.03041840
2
Properties=species:S:1:pos:R:3:forces:R:3 energy=18.759955289621285 pbc="F F F"
Ir       0.00000000       0.00000000       0.00000000       0.00000000       0.00000000     -53.97764206
Ir       0.00000000       0.00000000       1.29696970       0.00000000       0.00000000      53.97764206
2
Properties=species:S:1:pos:R:3:forces:R:3 energy=15.489472671319552 pbc="F F F"
Ir       0.00000000       0.00000000       0.00000000       0.00000000       0.00000000     -56.85877991
Ir       0.00000000       0.00000000       1.35575758       0.00000000       0.00000000      56.85877991
2
Properties=species:S:1:pos:R:3:forces:R:3 energy=12.1303458952673 pbc="F F F"
Ir       0.00000000       0.00000000       0.00000000       0.00000000       0.00000000     -56.95584869
Ir       0.00000000       0.00000000       1.41454545       0.00000000       0.00000000      56.95584869
2
Properties=species:S:1:pos:R:3:forces:R:3 energy=8.841764344098802 pbc="F F F"
Ir       0.00000000       0.00000000       0.00000000       0.00000000       0.00000000     -54.55759048
Ir       0.00000000       0.00000000       1.47333333       0.00000000       0.00000000      54.55759048
2
Properties=species:S:1:pos:R:3:forces:R:3 energy=5.7542785670622925 pbc="F F F"
Ir       0.00000000       0.00000000       0.00000000       0.00000000       0.00000000     -50.18378067
Ir       0.00000000       0.00000000       1.53212121       0.00000000       0.00000000      50.18378067
2
Properties=species:S:1:pos:R:3:forces:R:3 energy=2.97225513908071 pbc="F F F"
Ir       0.00000000       0.00000000       0.00000000       0.00000000       0.00000000     -44.24582291
Ir       0.00000000       0.00000000       1.59090909       0.00000000       0.00000000      44.24582291
2
Properties=species:S:1:pos:R:3:forces:R:3 energy=0.5694861422677724 pbc="F F F"
Ir       0.00000000       0.00000000       0.00000000       0.00000000       0.00000000     -37.42784500
Ir       0.00000000       0.00000000       1.64969697       0.00000000       0.00000000      37.42784500
2
Properties=species:S:1:pos:R:3:forces:R:3 energy=-1.4286110551458913 pbc="F F F"
Ir       0.00000000       0.00000000       0.00000000       0.00000000       0.00000000     -30.60617447
Ir       0.00000000       0.00000000       1.70848485       0.00000000       0.00000000      30.60617447
2
Properties=species:S:1:pos:R:3:forces:R:3 energy=-3.0389653643693872 pbc="F F F"
Ir       0.00000000       0.00000000       0.00000000       0.00000000       0.00000000     -24.27788925
Ir       0.00000000       0.00000000       1.76727273       0.00000000       0.00000000      24.27788925
2
Properties=species:S:1:pos:R:3:forces:R:3 energy=-4.295939918160354 pbc="F F F"
Ir       0.00000000       0.00000000       0.00000000       0.00000000       0.00000000     -18.60728455
Ir       0.00000000       0.00000000       1.82606061       0.00000000       0.00000000      18.60728455
2
Properties=species:S:1:pos:R:3:forces:R:3 energy=-5.243040688437936 pbc="F F F"
Ir       0.00000000       0.00000000       0.00000000       0.00000000       0.00000000     -13.76731014
Ir       0.00000000       0.00000000       1.88484848       0.00000000       0.00000000      13.76731014
2
Properties=species:S:1:pos:R:3:forces:R:3 energy=-5.9334568623283515 pbc="F F F"
Ir       0.00000000       0.00000000       0.00000000       0.00000000       0.00000000      -9.87969971
Ir       0.00000000       0.00000000       1.94363636       0.00000000       0.00000000       9.87969971
2
Properties=species:S:1:pos:R:3:forces:R:3 energy=-6.421829502414024 pbc="F F F"
Ir       0.00000000       0.00000000       0.00000000       0.00000000       0.00000000      -6.86393881
Ir       0.00000000       0.00000000       2.00242424       0.00000000       0.00000000       6.86393881
2
Properties=species:S:1:pos:R:3:forces:R:3 energy=-6.753376788840274 pbc="F F F"
Ir       0.00000000       0.00000000       0.00000000       0.00000000       0.00000000      -4.50701761
Ir       0.00000000       0.00000000       2.06121212       0.00000000       0.00000000       4.50701761
2
Properties=species:S:1:pos:R:3:forces:R:3 energy=-6.960845995180856 pbc="F F F"
Ir       0.00000000       0.00000000       0.00000000       0.00000000       0.00000000      -2.61709833
Ir       0.00000000       0.00000000       2.12000000       0.00000000       0.00000000       2.61709833
2
Properties=species:S:1:pos:R:3:forces:R:3 energy=-7.067826262757798 pbc="F F F"
Ir       0.00000000       0.00000000       0.00000000       0.00000000       0.00000000      -1.07270730
Ir       0.00000000       0.00000000       2.17878788       0.00000000       0.00000000       1.07270730
2
Properties=species:S:1:pos:R:3:forces:R:3 energy=-7.092251670841382 pbc="F F F"
Ir       0.00000000       0.00000000       0.00000000       0.00000000       0.00000000       0.20110898
Ir       0.00000000       0.00000000       2.23757576       0.00000000       0.00000000      -0.20110898
2
Properties=species:S:1:pos:R:3:forces:R:3 energy=-7.048669377486239 pbc="F F F"
Ir       0.00000000       0.00000000       0.00000000       0.00000000       0.00000000       1.24496102
Ir       0.00000000       0.00000000       2.29636364       0.00000000       0.00000000      -1.24496102
2
Properties=species:S:1:pos:R:3:forces:R:3 energy=-6.95008041725549 pbc="F F F"
Ir       0.00000000       0.00000000       0.00000000       0.00000000       0.00000000       2.07403135
Ir       0.00000000       0.00000000       2.35515152       0.00000000       0.00000000      -2.07403135
2
Properties=species:S:1:pos:R:3:forces:R:3 energy=-6.808849670990985 pbc="F F F"
Ir       0.00000000       0.00000000       0.00000000       0.00000000       0.00000000       2.69752598
Ir       0.00000000       0.00000000       2.41393939       0.00000000       0.00000000      -2.69752598
2
Properties=species:S:1:pos:R:3:forces:R:3 energy=-6.63660565040031 pbc="F F F"
Ir       0.00000000       0.00000000       0.00000000       0.00000000       0.00000000       3.13303590
Ir       0.00000000       0.00000000       2.47272727       0.00000000       0.00000000      -3.13303590
2
Properties=species:S:1:pos:R:3:forces:R:3 energy=-6.44365033617297 pbc="F F F"
Ir       0.00000000       0.00000000       0.00000000       0.00000000       0.00000000       3.40678477
Ir       0.00000000       0.00000000       2.53151515       0.00000000       0.00000000      -3.40678477
2
Properties=species:S:1:pos:R:3:forces:R:3 energy=-6.238671273950759 pbc="F F F"
Ir       0.00000000       0.00000000       0.00000000       0.00000000       0.00000000       3.54671431
Ir       0.00000000       0.00000000       2.59030303       0.00000000       0.00000000      -3.54671431
2
Properties=species:S:1:pos:R:3:forces:R:3 energy=-6.028747175096896 pbc="F F F"
Ir       0.00000000       0.00000000       0.00000000       0.00000000       0.00000000       3.57923150
Ir       0.00000000       0.00000000       2.64909091       0.00000000       0.00000000      -3.57923150
2
Properties=species:S:1:pos:R:3:forces:R:3 energy=-5.819491925805808 pbc="F F F"
Ir       0.00000000       0.00000000       0.00000000       0.00000000       0.00000000       3.52691722
Ir       0.00000000       0.00000000       2.70787879       0.00000000       0.00000000      -3.52691722
2
Properties=species:S:1:pos:R:3:forces:R:3 energy=-5.615466035330701 pbc="F F F"
Ir       0.00000000       0.00000000       0.00000000       0.00000000       0.00000000       3.40312314
Ir       0.00000000       0.00000000       2.76666667       0.00000000       0.00000000      -3.40312314
2
Properties=species:S:1:pos:R:3:forces:R:3 energy=-5.420503298916721 pbc="F F F"
Ir       0.00000000       0.00000000       0.00000000       0.00000000       0.00000000       3.22195888
Ir       0.00000000       0.00000000       2.82545455       0.00000000       0.00000000      -3.22195888
2
Properties=species:S:1:pos:R:3:forces:R:3 energy=-5.237250642307882 pbc="F F F"
Ir       0.00000000       0.00000000       0.00000000       0.00000000       0.00000000       3.00983238
Ir       0.00000000       0.00000000       2.88424242       0.00000000       0.00000000      -3.00983238
2
Properties=species:S:1:pos:R:3:forces:R:3 energy=-5.06666440922462 pbc="F F F"
Ir       0.00000000       0.00000000       0.00000000       0.00000000       0.00000000       2.79507136
Ir       0.00000000       0.00000000       2.94303030       0.00000000       0.00000000      -2.79507136
2
Properties=species:S:1:pos:R:3:forces:R:3 energy=-4.908294950058163 pbc="F F F"
Ir       0.00000000       0.00000000       0.00000000       0.00000000       0.00000000       2.59633827
Ir       0.00000000       0.00000000       3.00181818       0.00000000       0.00000000      -2.59633827
2
Properties=species:S:1:pos:R:3:forces:R:3 energy=-4.760931515307387 pbc="F F F"
Ir       0.00000000       0.00000000       0.00000000       0.00000000       0.00000000       2.42116332
Ir       0.00000000       0.00000000       3.06060606       0.00000000       0.00000000      -2.42116332
2
Properties=species:S:1:pos:R:3:forces:R:3 energy=-4.623163256969004 pbc="F F F"
Ir       0.00000000       0.00000000       0.00000000       0.00000000       0.00000000       2.26947260
Ir       0.00000000       0.00000000       3.11939394       0.00000000       0.00000000      -2.26947260
2
Properties=species:S:1:pos:R:3:forces:R:3 energy=-4.493709534172364 pbc="F F F"
Ir       0.00000000       0.00000000       0.00000000       0.00000000       0.00000000       2.13748622
Ir       0.00000000       0.00000000       3.17818182       0.00000000       0.00000000      -2.13748622
2
Properties=species:S:1:pos:R:3:forces:R:3 energy=-4.371559900628685 pbc="F F F"
Ir       0.00000000       0.00000000       0.00000000       0.00000000       0.00000000       2.02012062
Ir       0.00000000       0.00000000       3.23696970       0.00000000       0.00000000      -2.02012062
2
Properties=species:S:1:pos:R:3:forces:R:3 energy=-4.256015682514946 pbc="F F F"
Ir       0.00000000       0.00000000       0.00000000       0.00000000       0.00000000       1.91180420
Ir       0.00000000       0.00000000       3.29575758       0.00000000       0.00000000      -1.91180420
2
Properties=species:S:1:pos:R:3:forces:R:3 energy=-4.146716258210715 pbc="F F F"
Ir       0.00000000       0.00000000       0.00000000       0.00000000       0.00000000       1.80662775
Ir       0.00000000       0.00000000       3.35454545       0.00000000       0.00000000      -1.80662775
2
Properties=species:S:1:pos:R:3:forces:R:3 energy=-4.043649936853766 pbc="F F F"
Ir       0.00000000       0.00000000       0.00000000       0.00000000       0.00000000       1.69891751
Ir       0.00000000       0.00000000       3.41333333       0.00000000       0.00000000      -1.69891751
2
Properties=species:S:1:pos:R:3:forces:R:3 energy=-3.9470970419920266 pbc="F F F"
Ir       0.00000000       0.00000000       0.00000000       0.00000000       0.00000000       1.58455980
Ir       0.00000000       0.00000000       3.47212121       0.00000000       0.00000000      -1.58455980
2
Properties=species:S:1:pos:R:3:forces:R:3 energy=-3.857498116794479 pbc="F F F"
Ir       0.00000000       0.00000000       0.00000000       0.00000000       0.00000000       1.46248269
Ir       0.00000000       0.00000000       3.53090909       0.00000000       0.00000000      -1.46248269
2
Properties=species:S:1:pos:R:3:forces:R:3 energy=-3.7752500571591048 pbc="F F F"
Ir       0.00000000       0.00000000       0.00000000       0.00000000       0.00000000       1.33512855
Ir       0.00000000       0.00000000       3.58969697       0.00000000       0.00000000      -1.33512855
2
Properties=species:S:1:pos:R:3:forces:R:3 energy=-3.700524188001641 pbc="F F F"
Ir       0.00000000       0.00000000       0.00000000       0.00000000       0.00000000       1.20752001
Ir       0.00000000       0.00000000       3.64848485       0.00000000       0.00000000      -1.20752001
2
Properties=species:S:1:pos:R:3:forces:R:3 energy=-3.6331688554267783 pbc="F F F"
Ir       0.00000000       0.00000000       0.00000000       0.00000000       0.00000000       1.08532536
Ir       0.00000000       0.00000000       3.70727273       0.00000000       0.00000000      -1.08532536
2
Properties=species:S:1:pos:R:3:forces:R:3 energy=-3.5727201198862577 pbc="F F F"
Ir       0.00000000       0.00000000       0.00000000       0.00000000       0.00000000       0.97307169
Ir       0.00000000       0.00000000       3.76606061       0.00000000       0.00000000      -0.97307169
2
Properties=species:S:1:pos:R:3:forces:R:3 energy=-3.518512287364911 pbc="F F F"
Ir       0.00000000       0.00000000       0.00000000       0.00000000       0.00000000       0.87330979
Ir       0.00000000       0.00000000       3.82484848       0.00000000       0.00000000      -0.87330979
2
Properties=species:S:1:pos:R:3:forces:R:3 energy=-3.4697823010403432 pbc="F F F"
Ir       0.00000000       0.00000000       0.00000000       0.00000000       0.00000000       0.78665912
Ir       0.00000000       0.00000000       3.88363636       0.00000000       0.00000000      -0.78665912
2
Properties=species:S:1:pos:R:3:forces:R:3 energy=-3.425775542111257 pbc="F F F"
Ir       0.00000000       0.00000000       0.00000000       0.00000000       0.00000000       0.71246099
Ir       0.00000000       0.00000000       3.94242424       0.00000000       0.00000000      -0.71246099
2
Properties=species:S:1:pos:R:3:forces:R:3 energy=-3.385796469570886 pbc="F F F"
Ir       0.00000000       0.00000000       0.00000000       0.00000000       0.00000000       0.64939809
Ir       0.00000000       0.00000000       4.00121212       0.00000000       0.00000000      -0.64939809
2
Properties=species:S:1:pos:R:3:forces:R:3 energy=-3.349234729041277 pbc="F F F"
Ir       0.00000000       0.00000000       0.00000000       0.00000000       0.00000000       0.59591687
Ir       0.00000000       0.00000000       4.06000000       0.00000000       0.00000000      -0.59591687
2
Properties=species:S:1:pos:R:3:forces:R:3 energy=-3.315574072463202 pbc="F F F"
Ir       0.00000000       0.00000000       0.00000000       0.00000000       0.00000000       0.55044031
Ir       0.00000000       0.00000000       4.11878788       0.00000000       0.00000000      -0.55044031
2
Properties=species:S:1:pos:R:3:forces:R:3 energy=-3.2843892618224526 pbc="F F F"
Ir       0.00000000       0.00000000       0.00000000       0.00000000       0.00000000       0.51143420
Ir       0.00000000       0.00000000       4.17757576       0.00000000       0.00000000      -0.51143420
2
Properties=species:S:1:pos:R:3:forces:R:3 energy=-3.255343065574895 pbc="F F F"
Ir       0.00000000       0.00000000       0.00000000       0.00000000       0.00000000       0.47744939
Ir       0.00000000       0.00000000       4.23636364       0.00000000       0.00000000      -0.47744939
2
Properties=species:S:1:pos:R:3:forces:R:3 energy=-3.2281800344208356 pbc="F F F"
Ir       0.00000000       0.00000000       0.00000000       0.00000000       0.00000000       0.44715148
Ir       0.00000000       0.00000000       4.29515152       0.00000000       0.00000000      -0.44715148
2
Properties=species:S:1:pos:R:3:forces:R:3 energy=-3.2027208077695213 pbc="F F F"
Ir       0.00000000       0.00000000       0.00000000       0.00000000       0.00000000       0.41934094
Ir       0.00000000       0.00000000       4.35393939       0.00000000       0.00000000      -0.41934094
2
Properties=species:S:1:pos:R:3:forces:R:3 energy=-3.178848480362539 pbc="F F F"
Ir       0.00000000       0.00000000       0.00000000       0.00000000       0.00000000       0.39296573
Ir       0.00000000       0.00000000       4.41272727       0.00000000       0.00000000      -0.39296573
2
Properties=species:S:1:pos:R:3:forces:R:3 energy=-3.1565065230308704 pbc="F F F"
Ir       0.00000000       0.00000000       0.00000000       0.00000000       0.00000000       0.36714122
Ir       0.00000000       0.00000000       4.47151515       0.00000000       0.00000000      -0.36714122
2
Properties=species:S:1:pos:R:3:forces:R:3 energy=-3.1356840744348116 pbc="F F F"
Ir       0.00000000       0.00000000       0.00000000       0.00000000       0.00000000       0.34116521
Ir       0.00000000       0.00000000       4.53030303       0.00000000       0.00000000      -0.34116521
2
Properties=species:S:1:pos:R:3:forces:R:3 energy=-3.116406500187395 pbc="F F F"
Ir       0.00000000       0.00000000       0.00000000       0.00000000       0.00000000       0.31454536
Ir       0.00000000       0.00000000       4.58909091       0.00000000       0.00000000      -0.31454536
2
Properties=species:S:1:pos:R:3:forces:R:3 energy=-3.0987188564412316 pbc="F F F"
Ir       0.00000000       0.00000000       0.00000000       0.00000000       0.00000000       0.28706431
Ir       0.00000000       0.00000000       4.64787879       0.00000000       0.00000000      -0.28706431
2
Properties=species:S:1:pos:R:3:forces:R:3 energy=-3.082669849319446 pbc="F F F"
Ir       0.00000000       0.00000000       0.00000000       0.00000000       0.00000000       0.25881445
Ir       0.00000000       0.00000000       4.70666667       0.00000000       0.00000000      -0.25881445
2
Properties=species:S:1:pos:R:3:forces:R:3 energy=-3.068294751973275 pbc="F F F"
Ir       0.00000000       0.00000000       0.00000000       0.00000000       0.00000000       0.23023728
Ir       0.00000000       0.00000000       4.76545455       0.00000000       0.00000000      -0.23023728
2
Properties=species:S:1:pos:R:3:forces:R:3 energy=-3.055591286291714 pbc="F F F"
Ir       0.00000000       0.00000000       0.00000000       0.00000000       0.00000000       0.20207208
Ir       0.00000000       0.00000000       4.82424242       0.00000000       0.00000000      -0.20207208
2
Properties=species:S:1:pos:R:3:forces:R:3 energy=-3.04451050597471 pbc="F F F"
Ir       0.00000000       0.00000000       0.00000000       0.00000000       0.00000000       0.17523900
Ir       0.00000000       0.00000000       4.88303030       0.00000000       0.00000000      -0.17523900
2
Properties=species:S:1:pos:R:3:forces:R:3 energy=-3.03494405581034 pbc="F F F"
Ir       0.00000000       0.00000000       0.00000000       0.00000000       0.00000000       0.15063396
Ir       0.00000000       0.00000000       4.94181818       0.00000000       0.00000000      -0.15063396
2
Properties=species:S:1:pos:R:3:forces:R:3 energy=-3.0267413346446848 pbc="F F F"
Ir       0.00000000       0.00000000       0.00000000       0.00000000       0.00000000       0.12894857
Ir       0.00000000       0.00000000       5.00060606       0.00000000       0.00000000      -0.12894857
2
Properties=species:S:1:pos:R:3:forces:R:3 energy=-3.0197162027802626 pbc="F F F"
Ir       0.00000000       0.00000000       0.00000000       0.00000000       0.00000000       0.11063643
Ir       0.00000000       0.00000000       5.05939394       0.00000000       0.00000000      -0.11063643
2
Properties=species:S:1:pos:R:3:forces:R:3 energy=-3.0136559595186627 pbc="F F F"
Ir       0.00000000       0.00000000       0.00000000       0.00000000       0.00000000       0.09628456
Ir       0.00000000       0.00000000       5.11818182       0.00000000       0.00000000      -0.09628456
2
Properties=species:S:1:pos:R:3:forces:R:3 energy=-3.008292065192645 pbc="F F F"
Ir       0.00000000       0.00000000       0.00000000       0.00000000       0.00000000       0.08726362
Ir       0.00000000       0.00000000       5.17696970       0.00000000       0.00000000      -0.08726362
2
Properties=species:S:1:pos:R:3:forces:R:3 energy=-3.0032543933093527 pbc="F F F"
Ir       0.00000000       0.00000000       0.00000000       0.00000000       0.00000000       0.08541805
Ir       0.00000000       0.00000000       5.23575758       0.00000000       0.00000000      -0.08541805
2
Properties=species:S:1:pos:R:3:forces:R:3 energy=-2.9981134433101038 pbc="F F F"
Ir       0.00000000       0.00000000       0.00000000       0.00000000       0.00000000       0.09030833
Ir       0.00000000       0.00000000       5.29454545       0.00000000       0.00000000      -0.09030833
2
Properties=species:S:1:pos:R:3:forces:R:3 energy=-2.992606192656885 pbc="F F F"
Ir       0.00000000       0.00000000       0.00000000       0.00000000       0.00000000       0.09667352
Ir       0.00000000       0.00000000       5.35333333       0.00000000       0.00000000      -0.09667352
2
Properties=species:S:1:pos:R:3:forces:R:3 energy=-2.9868442267484423 pbc="F F F"
Ir       0.00000000       0.00000000       0.00000000       0.00000000       0.00000000       0.09827343
Ir       0.00000000       0.00000000       5.41212121       0.00000000       0.00000000      -0.09827343
2
Properties=species:S:1:pos:R:3:forces:R:3 energy=-2.9811586139564827 pbc="F F F"
Ir       0.00000000       0.00000000       0.00000000       0.00000000       0.00000000       0.09461540
Ir       0.00000000       0.00000000       5.47090909       0.00000000       0.00000000      -0.09461540
2
Properties=species:S:1:pos:R:3:forces:R:3 energy=-2.975721325432462 pbc="F F F"
Ir       0.00000000       0.00000000       0.00000000       0.00000000       0.00000000       0.09085988
Ir       0.00000000       0.00000000       5.52969697       0.00000000       0.00000000      -0.09085988
2
Properties=species:S:1:pos:R:3:forces:R:3 energy=-2.970378372196523 pbc="F F F"
Ir       0.00000000       0.00000000       0.00000000       0.00000000       0.00000000       0.09180225
Ir       0.00000000       0.00000000       5.58848485       0.00000000       0.00000000      -0.09180225
2
Properties=species:S:1:pos:R:3:forces:R:3 energy=-2.964871861533659 pbc="F F F"
Ir       0.00000000       0.00000000       0.00000000       0.00000000       0.00000000       0.09530881
Ir       0.00000000       0.00000000       5.64727273       0.00000000       0.00000000      -0.09530881
2
Properties=species:S:1:pos:R:3:forces:R:3 energy=-2.95929964900729 pbc="F F F"
Ir       0.00000000       0.00000000       0.00000000       0.00000000       0.00000000       0.09252365
Ir       0.00000000       0.00000000       5.70606061       0.00000000       0.00000000      -0.09252365
2
Properties=species:S:1:pos:R:3:forces:R:3 energy=-2.954225308028936 pbc="F F F"
Ir       0.00000000       0.00000000       0.00000000       0.00000000       0.00000000       0.07788713
Ir       0.00000000       0.00000000       5.76484848       0.00000000       0.00000000      -0.07788713
2
Properties=species:S:1:pos:R:3:forces:R:3 energy=-2.9503015100746586 pbc="F F F"
Ir       0.00000000       0.00000000       0.00000000       0.00000000       0.00000000       0.05508402
Ir       0.00000000       0.00000000       5.82363636       0.00000000       0.00000000      -0.05508402
2
Properties=species:S:1:pos:R:3:forces:R:3 energy=-2.9477559379996756 pbc="F F F"
Ir       0.00000000       0.00000000       0.00000000       0.00000000       0.00000000       0.03229040
Ir       0.00000000       0.00000000       5.88242424       0.00000000       0.00000000      -0.03229040
2
Properties=species:S:1:pos:R:3:forces:R:3 energy=-2.9463773032894784 pbc="F F F"
Ir       0.00000000       0.00000000       0.00000000       0.00000000       0.00000000       0.01593098
Ir       0.00000000       0.00000000       5.94121212       0.00000000       0.00000000      -0.01593098
2
Properties=species:S:1:pos:R:3:forces:R:3 energy=-2.9456820172776923 pbc="F F F"
Ir       0.00000000       0.00000000       0.00000000       0.00000000       0.00000000       0.00964539
Ir       0.00000000       0.00000000       6.00000000       0.00000000       0.00000000      -0.00964539
