2
Properties=species:S:1:pos:R:3:forces:R:3 energy=2141.3896415221857 pbc="F F F"
K        0.00000000       0.00000000       0.00000000       0.00000000       0.00000000  -31979.73632812
K        0.00000000       0.00000000       0.18000000       0.00000000       0.00000000   31979.73632812
2
Properties=species:S:1:pos:R:3:forces:R:3 energy=962.3716361510918 pbc="F F F"
K        0.00000000       0.00000000       0.00000000       0.00000000       0.00000000  -11998.21289062
K        0.00000000       0.00000000       0.23878788       0.00000000       0.00000000   11998.21289062
2
Properties=species:S:1:pos:R:3:forces:R:3 energy=486.3716056335137 pbc="F F F"
K        0.00000000       0.00000000       0.00000000       0.00000000       0.00000000   -5276.68847656
K        0.00000000       0.00000000       0.29757576       0.00000000       0.00000000    5276.68847656
2
Properties=species:S:1:pos:R:3:forces:R:3 energy=266.4891898636132 pbc="F F F"
K        0.00000000       0.00000000       0.00000000       0.00000000       0.00000000   -2576.61523438
K        0.00000000       0.00000000       0.35636364       0.00000000       0.00000000    2576.61523438
2
Properties=species:S:1:pos:R:3:forces:R:3 energy=155.44263529818355 pbc="F F F"
K        0.00000000       0.00000000       0.00000000       0.00000000       0.00000000   -1350.72937012
K        0.00000000       0.00000000       0.41515152       0.00000000       0.00000000    1350.72937012
2
Properties=species:S:1:pos:R:3:forces:R:3 energy=95.8345115220545 pbc="F F F"
K        0.00000000       0.00000000       0.00000000       0.00000000       0.00000000    -744.10717773
K        0.00000000       0.00000000       0.47393939       0.00000000       0.00000000     744.10717773
2
Properties=species:S:1:pos:R:3:forces:R:3 energy=62.43848491389419 pbc="F F F"
K        0.00000000       0.00000000       0.00000000       0.00000000       0.00000000    -424.50033569
K        0.00000000       0.00000000       0.53272727       0.00000000       0.00000000     424.50033569
2
Properties=species:S:1:pos:R:3:forces:R:3 energy=43.17163540240757 pbc="F F F"
K        0.00000000       0.00000000       0.00000000       0.00000000       0.00000000    -247.64210510
K        0.00000000       0.00000000       0.59151515       0.00000000       0.00000000     247.64210510
2
Properties=species:S:1:pos:R:3:forces:R:3 energy=31.876906179122948 pbc="F F F"
K        0.00000000       0.00000000       0.00000000       0.00000000       0.00000000    -145.57333374
K        0.00000000       0.00000000       0.65030303       0.00000000       0.00000000     145.57333374
2
Properties=species:S:1:pos:R:3:forces:R:3 energy=25.26281813649038 pbc="F F F"
K        0.00000000       0.00000000       0.00000000       0.00000000       0.00000000     -84.48922729
K        0.00000000       0.00000000       0.70909091       0.00000000       0.00000000      84.48922729
2
Properties=species:S:1:pos:R:3:forces:R:3 energy=21.482079328098727 pbc="F F F"
K        0.00000000       0.00000000       0.00000000       0.00000000       0.00000000     -47.20400238
K        0.00000000       0.00000000       0.76787879       0.00000000       0.00000000      47.20400238
2
Properties=species:S:1:pos:R:3:forces:R:3 energy=19.415068483428172 pbc="F F F"
K        0.00000000       0.00000000       0.00000000       0.00000000       0.00000000     -25.26029778
K        0.00000000       0.00000000       0.82666667       0.00000000       0.00000000      25.26029778
2
Properties=species:S:1:pos:R:3:forces:R:3 energy=18.289404776789105 pbc="F F F"
K        0.00000000       0.00000000       0.00000000       0.00000000       0.00000000     -14.71191883
K        0.00000000       0.00000000       0.88545455       0.00000000       0.00000000      14.71191883
2
Properties=species:S:1:pos:R:3:forces:R:3 energy=17.51822946195971 pbc="F F F"
K        0.00000000       0.00000000       0.00000000       0.00000000       0.00000000     -12.62187386
K        0.00000000       0.00000000       0.94424242       0.00000000       0.00000000      12.62187386
2
Properties=species:S:1:pos:R:3:forces:R:3 energy=16.723786429669033 pbc="F F F"
K        0.00000000       0.00000000       0.00000000       0.00000000       0.00000000     -14.69868660
K        0.00000000       0.00000000       1.00303030       0.00000000       0.00000000      14.69868660
2
Properties=species:S:1:pos:R:3:forces:R:3 energy=15.789357390848568 pbc="F F F"
K        0.00000000       0.00000000       0.00000000       0.00000000       0.00000000     -16.92922783
K        0.00000000       0.00000000       1.06181818       0.00000000       0.00000000      16.92922783
2
Properties=species:S:1:pos:R:3:forces:R:3 energy=14.753593824539236 pbc="F F F"
K        0.00000000       0.00000000       0.00000000       0.00000000       0.00000000     -18.18508911
K        0.00000000       0.00000000       1.12060606       0.00000000       0.00000000      18.18508911
2
Properties=species:S:1:pos:R:3:forces:R:3 energy=13.657539018631855 pbc="F F F"
K        0.00000000       0.00000000       0.00000000       0.00000000       0.00000000     -19.10286522
K        0.00000000       0.00000000       1.17939394       0.00000000       0.00000000      19.10286522
2
Properties=species:S:1:pos:R:3:forces:R:3 energy=12.505387251776911 pbc="F F F"
K        0.00000000       0.00000000       0.00000000       0.00000000       0.00000000     -20.10922241
K        0.00000000       0.00000000       1.23818182       0.00000000       0.00000000      20.10922241
2
Properties=species:S:1:pos:R:3:forces:R:3 energy=11.2948897710237 pbc="F F F"
K        0.00000000       0.00000000       0.00000000       0.00000000       0.00000000     -21.01187897
K        0.00000000       0.00000000       1.29696970       0.00000000       0.00000000      21.01187897
2
Properties=species:S:1:pos:R:3:forces:R:3 energy=10.049854119430005 pbc="F F F"
K        0.00000000       0.00000000       0.00000000       0.00000000       0.00000000     -21.15055466
K        0.00000000       0.00000000       1.35575758       0.00000000       0.00000000      21.15055466
2
Properties=species:S:1:pos:R:3:forces:R:3 energy=8.836272676101174 pbc="F F F"
K        0.00000000       0.00000000       0.00000000       0.00000000       0.00000000     -19.88007736
K        0.00000000       0.00000000       1.41454545       0.00000000       0.00000000      19.88007736
2
Properties=species:S:1:pos:R:3:forces:R:3 energy=7.738442641803832 pbc="F F F"
K        0.00000000       0.00000000       0.00000000       0.00000000       0.00000000     -17.31033707
K        0.00000000       0.00000000       1.47333333       0.00000000       0.00000000      17.31033707
2
Properties=species:S:1:pos:R:3:forces:R:3 energy=6.809524712467812 pbc="F F F"
K        0.00000000       0.00000000       0.00000000       0.00000000       0.00000000     -14.30752373
K        0.00000000       0.00000000       1.53212121       0.00000000       0.00000000      14.30752373
2
Properties=species:S:1:pos:R:3:forces:R:3 energy=6.045914984529636 pbc="F F F"
K        0.00000000       0.00000000       0.00000000       0.00000000       0.00000000     -11.81138802
K        0.00000000       0.00000000       1.59090909       0.00000000       0.00000000      11.81138802
2
Properties=species:S:1:pos:R:3:forces:R:3 energy=5.402263421235103 pbc="F F F"
K        0.00000000       0.00000000       0.00000000       0.00000000       0.00000000     -10.23843288
K        0.00000000       0.00000000       1.64969697       0.00000000       0.00000000      10.23843288
2
Properties=species:S:1:pos:R:3:forces:R:3 energy=4.82780216203851 pbc="F F F"
K        0.00000000       0.00000000       0.00000000       0.00000000       0.00000000      -9.38725090
K        0.00000000       0.00000000       1.70848485       0.00000000       0.00000000       9.38725090
2
Properties=species:S:1:pos:R:3:forces:R:3 energy=4.293477566407871 pbc="F F F"
K        0.00000000       0.00000000       0.00000000       0.00000000       0.00000000      -8.80283546
K        0.00000000       0.00000000       1.76727273       0.00000000       0.00000000       8.80283546
2
Properties=species:S:1:pos:R:3:forces:R:3 energy=3.792889338272359 pbc="F F F"
K        0.00000000       0.00000000       0.00000000       0.00000000       0.00000000      -8.22584152
K        0.00000000       0.00000000       1.82606061       0.00000000       0.00000000       8.22584152
2
Properties=species:S:1:pos:R:3:forces:R:3 energy=3.325417649514932 pbc="F F F"
K        0.00000000       0.00000000       0.00000000       0.00000000       0.00000000      -7.69523954
K        0.00000000       0.00000000       1.88484848       0.00000000       0.00000000       7.69523954
2
Properties=species:S:1:pos:R:3:forces:R:3 energy=2.8856824130038485 pbc="F F F"
K        0.00000000       0.00000000       0.00000000       0.00000000       0.00000000      -7.28351641
K        0.00000000       0.00000000       1.94363636       0.00000000       0.00000000       7.28351641
2
Properties=species:S:1:pos:R:3:forces:R:3 energy=2.467631684387104 pbc="F F F"
K        0.00000000       0.00000000       0.00000000       0.00000000       0.00000000      -6.94320917
K        0.00000000       0.00000000       2.00242424       0.00000000       0.00000000       6.94320917
2
Properties=species:S:1:pos:R:3:forces:R:3 energy=2.0696164047164283 pbc="F F F"
K        0.00000000       0.00000000       0.00000000       0.00000000       0.00000000      -6.59017563
K        0.00000000       0.00000000       2.06121212       0.00000000       0.00000000       6.59017563
2
Properties=species:S:1:pos:R:3:forces:R:3 energy=1.6939054538895728 pbc="F F F"
K        0.00000000       0.00000000       0.00000000       0.00000000       0.00000000      -6.18170071
K        0.00000000       0.00000000       2.12000000       0.00000000       0.00000000       6.18170071
2
Properties=species:S:1:pos:R:3:forces:R:3 energy=1.3438192727865261 pbc="F F F"
K        0.00000000       0.00000000       0.00000000       0.00000000       0.00000000      -5.72189283
K        0.00000000       0.00000000       2.17878788       0.00000000       0.00000000       5.72189283
2
Properties=species:S:1:pos:R:3:forces:R:3 energy=1.0215795534333094 pbc="F F F"
K        0.00000000       0.00000000       0.00000000       0.00000000       0.00000000      -5.24038219
K        0.00000000       0.00000000       2.23757576       0.00000000       0.00000000       5.24038219
2
Properties=species:S:1:pos:R:3:forces:R:3 energy=0.7274215000939805 pbc="F F F"
K        0.00000000       0.00000000       0.00000000       0.00000000       0.00000000      -4.77162933
K        0.00000000       0.00000000       2.29636364       0.00000000       0.00000000       4.77162933
2
Properties=species:S:1:pos:R:3:forces:R:3 energy=0.45979809438827945 pbc="F F F"
K        0.00000000       0.00000000       0.00000000       0.00000000       0.00000000      -4.34066820
K        0.00000000       0.00000000       2.35515152       0.00000000       0.00000000       4.34066820
2
Properties=species:S:1:pos:R:3:forces:R:3 energy=0.2161381392443256 pbc="F F F"
K        0.00000000       0.00000000       0.00000000       0.00000000       0.00000000      -3.95653629
K        0.00000000       0.00000000       2.41393939       0.00000000       0.00000000       3.95653629
2
Properties=species:S:1:pos:R:3:forces:R:3 energy=-0.006215509139705536 pbc="F F F"
K        0.00000000       0.00000000       0.00000000       0.00000000       0.00000000      -3.61408854
K        0.00000000       0.00000000       2.47272727       0.00000000       0.00000000       3.61408854
2
Properties=species:S:1:pos:R:3:forces:R:3 energy=-0.20937065281681116 pbc="F F F"
K        0.00000000       0.00000000       0.00000000       0.00000000       0.00000000      -3.30117917
K        0.00000000       0.00000000       2.53151515       0.00000000       0.00000000       3.30117917
2
Properties=species:S:1:pos:R:3:forces:R:3 energy=-0.3946940556340083 pbc="F F F"
K        0.00000000       0.00000000       0.00000000       0.00000000       0.00000000      -3.00571632
K        0.00000000       0.00000000       2.59030303       0.00000000       0.00000000       3.00571632
2
Properties=species:S:1:pos:R:3:forces:R:3 energy=-0.5629494254011427 pbc="F F F"
K        0.00000000       0.00000000       0.00000000       0.00000000       0.00000000      -2.71959829
K        0.00000000       0.00000000       2.64909091       0.00000000       0.00000000       2.71959829
2
Properties=species:S:1:pos:R:3:forces:R:3 energy=-0.7145713610060338 pbc="F F F"
K        0.00000000       0.00000000       0.00000000       0.00000000       0.00000000      -2.43964982
K        0.00000000       0.00000000       2.70787879       0.00000000       0.00000000       2.43964982
2
Properties=species:S:1:pos:R:3:forces:R:3 energy=-0.8499277478998863 pbc="F F F"
K        0.00000000       0.00000000       0.00000000       0.00000000       0.00000000      -2.16664886
K        0.00000000       0.00000000       2.76666667       0.00000000       0.00000000       2.16664886
2
Properties=species:S:1:pos:R:3:forces:R:3 energy=-0.9695159860913581 pbc="F F F"
K        0.00000000       0.00000000       0.00000000       0.00000000       0.00000000      -1.90387118
K        0.00000000       0.00000000       2.82545455       0.00000000       0.00000000       1.90387118
2
Properties=species:S:1:pos:R:3:forces:R:3 energy=-1.074064888746548 pbc="F F F"
K        0.00000000       0.00000000       0.00000000       0.00000000       0.00000000      -1.65582097
K        0.00000000       0.00000000       2.88424242       0.00000000       0.00000000       1.65582097
2
Properties=species:S:1:pos:R:3:forces:R:3 energy=-1.1645822035139688 pbc="F F F"
K        0.00000000       0.00000000       0.00000000       0.00000000       0.00000000      -1.42725122
K        0.00000000       0.00000000       2.94303030       0.00000000       0.00000000       1.42725122
2
Properties=species:S:1:pos:R:3:forces:R:3 energy=-1.2423353628081317 pbc="F F F"
K        0.00000000       0.00000000       0.00000000       0.00000000       0.00000000      -1.22208679
K        0.00000000       0.00000000       3.00181818       0.00000000       0.00000000       1.22208679
2
Properties=species:S:1:pos:R:3:forces:R:3 energy=-1.308770819718231 pbc="F F F"
K        0.00000000       0.00000000       0.00000000       0.00000000       0.00000000      -1.04235911
K        0.00000000       0.00000000       3.06060606       0.00000000       0.00000000       1.04235911
2
Properties=species:S:1:pos:R:3:forces:R:3 energy=-1.3653801834795765 pbc="F F F"
K        0.00000000       0.00000000       0.00000000       0.00000000       0.00000000      -0.88748580
K        0.00000000       0.00000000       3.11939394       0.00000000       0.00000000       0.88748580
2
Properties=species:S:1:pos:R:3:forces:R:3 energy=-1.4135446755253527 pbc="F F F"
K        0.00000000       0.00000000       0.00000000       0.00000000       0.00000000      -0.75433499
K        0.00000000       0.00000000       3.17818182       0.00000000       0.00000000       0.75433499
2
Properties=species:S:1:pos:R:3:forces:R:3 energy=-1.454402763993662 pbc="F F F"
K        0.00000000       0.00000000       0.00000000       0.00000000       0.00000000      -0.63808107
K        0.00000000       0.00000000       3.23696970       0.00000000       0.00000000       0.63808107
2
Properties=species:S:1:pos:R:3:forces:R:3 energy=-1.4887969262763368 pbc="F F F"
K        0.00000000       0.00000000       0.00000000       0.00000000       0.00000000      -0.53360301
K        0.00000000       0.00000000       3.29575758       0.00000000       0.00000000       0.53360301
2
Properties=species:S:1:pos:R:3:forces:R:3 energy=-1.5172956536362638 pbc="F F F"
K        0.00000000       0.00000000       0.00000000       0.00000000       0.00000000      -0.43705812
K        0.00000000       0.00000000       3.35454545       0.00000000       0.00000000       0.43705812
2
Properties=species:S:1:pos:R:3:forces:R:3 energy=-1.5403091202322445 pbc="F F F"
K        0.00000000       0.00000000       0.00000000       0.00000000       0.00000000      -0.34693676
K        0.00000000       0.00000000       3.41333333       0.00000000       0.00000000       0.34693676
2
Properties=species:S:1:pos:R:3:forces:R:3 energy=-1.558231032670093 pbc="F F F"
K        0.00000000       0.00000000       0.00000000       0.00000000       0.00000000      -0.26419780
K        0.00000000       0.00000000       3.47212121       0.00000000       0.00000000       0.26419780
2
Properties=species:S:1:pos:R:3:forces:R:3 energy=-1.5715654603512044 pbc="F F F"
K        0.00000000       0.00000000       0.00000000       0.00000000       0.00000000      -0.19134861
K        0.00000000       0.00000000       3.53090909       0.00000000       0.00000000       0.19134861
2
Properties=species:S:1:pos:R:3:forces:R:3 energy=-1.5809728450906297 pbc="F F F"
K        0.00000000       0.00000000       0.00000000       0.00000000       0.00000000      -0.13090679
K        0.00000000       0.00000000       3.58969697       0.00000000       0.00000000       0.13090679
2
Properties=species:S:1:pos:R:3:forces:R:3 energy=-1.587223884129081 pbc="F F F"
K        0.00000000       0.00000000       0.00000000       0.00000000       0.00000000      -0.08399637
K        0.00000000       0.00000000       3.64848485       0.00000000       0.00000000       0.08399637
2
Properties=species:S:1:pos:R:3:forces:R:3 energy=-1.591097646540137 pbc="F F F"
K        0.00000000       0.00000000       0.00000000       0.00000000       0.00000000      -0.04971921
K        0.00000000       0.00000000       3.70727273       0.00000000       0.00000000       0.04971921
2
Properties=species:S:1:pos:R:3:forces:R:3 energy=-1.5932674669334688 pbc="F F F"
K        0.00000000       0.00000000       0.00000000       0.00000000       0.00000000      -0.02551317
K        0.00000000       0.00000000       3.76606061       0.00000000       0.00000000       0.02551317
2
Properties=species:S:1:pos:R:3:forces:R:3 energy=-1.5942305017722986 pbc="F F F"
K        0.00000000       0.00000000       0.00000000       0.00000000       0.00000000      -0.00811117
K        0.00000000       0.00000000       3.82484848       0.00000000       0.00000000       0.00811117
2
Properties=species:S:1:pos:R:3:forces:R:3 energy=-1.5942940990047705 pbc="F F F"
K        0.00000000       0.00000000       0.00000000       0.00000000       0.00000000       0.00553728
K        0.00000000       0.00000000       3.88363636       0.00000000       0.00000000      -0.00553728
2
Properties=species:S:1:pos:R:3:forces:R:3 energy=-1.5936069249519556 pbc="F F F"
K        0.00000000       0.00000000       0.00000000       0.00000000       0.00000000       0.01774860
K        0.00000000       0.00000000       3.94242424       0.00000000       0.00000000      -0.01774860
2
Properties=species:S:1:pos:R:3:forces:R:3 energy=-1.5922052968040104 pbc="F F F"
K        0.00000000       0.00000000       0.00000000       0.00000000       0.00000000       0.03004322
K        0.00000000       0.00000000       4.00121212       0.00000000       0.00000000      -0.03004322
2
Properties=species:S:1:pos:R:3:forces:R:3 energy=-1.5900561065723726 pbc="F F F"
K        0.00000000       0.00000000       0.00000000       0.00000000       0.00000000       0.04326388
K        0.00000000       0.00000000       4.06000000       0.00000000       0.00000000      -0.04326388
2
Properties=species:S:1:pos:R:3:forces:R:3 energy=-1.5870952111854741 pbc="F F F"
K        0.00000000       0.00000000       0.00000000       0.00000000       0.00000000       0.05768081
K        0.00000000       0.00000000       4.11878788       0.00000000       0.00000000      -0.05768081
2
Properties=species:S:1:pos:R:3:forces:R:3 energy=-1.5832563613894708 pbc="F F F"
K        0.00000000       0.00000000       0.00000000       0.00000000       0.00000000       0.07297713
K        0.00000000       0.00000000       4.17757576       0.00000000       0.00000000      -0.07297713
2
Properties=species:S:1:pos:R:3:forces:R:3 energy=-1.5785158819871226 pbc="F F F"
K        0.00000000       0.00000000       0.00000000       0.00000000       0.00000000       0.08815061
K        0.00000000       0.00000000       4.23636364       0.00000000       0.00000000      -0.08815061
2
Properties=species:S:1:pos:R:3:forces:R:3 energy=-1.5729289641340007 pbc="F F F"
K        0.00000000       0.00000000       0.00000000       0.00000000       0.00000000       0.10139049
K        0.00000000       0.00000000       4.29515152       0.00000000       0.00000000      -0.10139049
2
Properties=species:S:1:pos:R:3:forces:R:3 energy=-1.5666855777319397 pbc="F F F"
K        0.00000000       0.00000000       0.00000000       0.00000000       0.00000000       0.10998832
K        0.00000000       0.00000000       4.35393939       0.00000000       0.00000000      -0.10998832
2
Properties=species:S:1:pos:R:3:forces:R:3 energy=-1.5601573264139843 pbc="F F F"
K        0.00000000       0.00000000       0.00000000       0.00000000       0.00000000       0.11042665
K        0.00000000       0.00000000       4.41272727       0.00000000       0.00000000      -0.11042665
2
Properties=species:S:1:pos:R:3:forces:R:3 energy=-1.5539351407244693 pbc="F F F"
K        0.00000000       0.00000000       0.00000000       0.00000000       0.00000000       0.09903148
K        0.00000000       0.00000000       4.47151515       0.00000000       0.00000000      -0.09903148
2
Properties=species:S:1:pos:R:3:forces:R:3 energy=-1.548784504236867 pbc="F F F"
K        0.00000000       0.00000000       0.00000000       0.00000000       0.00000000       0.07399441
K        0.00000000       0.00000000       4.53030303       0.00000000       0.00000000      -0.07399441
2
Properties=species:S:1:pos:R:3:forces:R:3 energy=-1.545431704855854 pbc="F F F"
K        0.00000000       0.00000000       0.00000000       0.00000000       0.00000000       0.03927843
K        0.00000000       0.00000000       4.58909091       0.00000000       0.00000000      -0.03927843
2
Properties=species:S:1:pos:R:3:forces:R:3 energy=-1.5441002674433546 pbc="F F F"
K        0.00000000       0.00000000       0.00000000       0.00000000       0.00000000       0.00822879
K        0.00000000       0.00000000       4.64787879       0.00000000       0.00000000      -0.00822879
2
Properties=species:S:1:pos:R:3:forces:R:3 energy=-1.543996687033274 pbc="F F F"
K        0.00000000       0.00000000       0.00000000       0.00000000       0.00000000       0.00083727
K        0.00000000       0.00000000       4.70666667       0.00000000       0.00000000      -0.00083727
2
Properties=species:S:1:pos:R:3:forces:R:3 energy=-1.543228160477473 pbc="F F F"
K        0.00000000       0.00000000       0.00000000       0.00000000       0.00000000       0.03235853
K        0.00000000       0.00000000       4.76545455       0.00000000       0.00000000      -0.03235853
2
Properties=species:S:1:pos:R:3:forces:R:3 energy=-1.5394153311944627 pbc="F F F"
K        0.00000000       0.00000000       0.00000000       0.00000000       0.00000000       0.10306287
K        0.00000000       0.00000000       4.82424242       0.00000000       0.00000000      -0.10306287
2
Properties=species:S:1:pos:R:3:forces:R:3 energy=-1.5306029818994258 pbc="F F F"
K        0.00000000       0.00000000       0.00000000       0.00000000       0.00000000       0.19960076
K        0.00000000       0.00000000       4.88303030       0.00000000       0.00000000      -0.19960076
2
Properties=species:S:1:pos:R:3:forces:R:3 energy=-1.5157925837743813 pbc="F F F"
K        0.00000000       0.00000000       0.00000000       0.00000000       0.00000000       0.30408460
K        0.00000000       0.00000000       4.94181818       0.00000000       0.00000000      -0.30408460
2
Properties=species:S:1:pos:R:3:forces:R:3 energy=-1.494996435577852 pbc="F F F"
K        0.00000000       0.00000000       0.00000000       0.00000000       0.00000000       0.40115771
K        0.00000000       0.00000000       5.00060606       0.00000000       0.00000000      -0.40115771
2
Properties=species:S:1:pos:R:3:forces:R:3 energy=-1.4689482758680974 pbc="F F F"
K        0.00000000       0.00000000       0.00000000       0.00000000       0.00000000       0.48213845
K        0.00000000       0.00000000       5.05939394       0.00000000       0.00000000      -0.48213845
2
Properties=species:S:1:pos:R:3:forces:R:3 energy=-1.4385707250190156 pbc="F F F"
K        0.00000000       0.00000000       0.00000000       0.00000000       0.00000000       0.55035043
K        0.00000000       0.00000000       5.11818182       0.00000000       0.00000000      -0.55035043
2
Properties=species:S:1:pos:R:3:forces:R:3 energy=-1.404117548424398 pbc="F F F"
K        0.00000000       0.00000000       0.00000000       0.00000000       0.00000000       0.62526035
K        0.00000000       0.00000000       5.17696970       0.00000000       0.00000000      -0.62526035
2
Properties=species:S:1:pos:R:3:forces:R:3 energy=-1.3644280263505744 pbc="F F F"
K        0.00000000       0.00000000       0.00000000       0.00000000       0.00000000       0.73147607
K        0.00000000       0.00000000       5.23575758       0.00000000       0.00000000      -0.73147607
2
Properties=species:S:1:pos:R:3:forces:R:3 energy=-1.317509506375407 pbc="F F F"
K        0.00000000       0.00000000       0.00000000       0.00000000       0.00000000       0.86695462
K        0.00000000       0.00000000       5.29454545       0.00000000       0.00000000      -0.86695462
2
Properties=species:S:1:pos:R:3:forces:R:3 energy=-1.2628072986074543 pbc="F F F"
K        0.00000000       0.00000000       0.00000000       0.00000000       0.00000000       0.98612535
K        0.00000000       0.00000000       5.35333333       0.00000000       0.00000000      -0.98612535
2
Properties=species:S:1:pos:R:3:forces:R:3 energy=-1.2028582925725841 pbc="F F F"
K        0.00000000       0.00000000       0.00000000       0.00000000       0.00000000       1.04126704
K        0.00000000       0.00000000       5.41212121       0.00000000       0.00000000      -1.04126704
2
Properties=species:S:1:pos:R:3:forces:R:3 energy=-1.1413846844272288 pbc="F F F"
K        0.00000000       0.00000000       0.00000000       0.00000000       0.00000000       1.04790938
K        0.00000000       0.00000000       5.47090909       0.00000000       0.00000000      -1.04790938
2
Properties=species:S:1:pos:R:3:forces:R:3 energy=-1.0788510461627667 pbc="F F F"
K        0.00000000       0.00000000       0.00000000       0.00000000       0.00000000       1.09560525
K        0.00000000       0.00000000       5.52969697       0.00000000       0.00000000      -1.09560525
2
Properties=species:S:1:pos:R:3:forces:R:3 energy=-1.0098713152189354 pbc="F F F"
K        0.00000000       0.00000000       0.00000000       0.00000000       0.00000000       1.27686882
K        0.00000000       0.00000000       5.58848485       0.00000000       0.00000000      -1.27686882
2
Properties=species:S:1:pos:R:3:forces:R:3 energy=-0.9264311437585623 pbc="F F F"
K        0.00000000       0.00000000       0.00000000       0.00000000       0.00000000       1.56887639
K        0.00000000       0.00000000       5.64727273       0.00000000       0.00000000      -1.56887639
2
Properties=species:S:1:pos:R:3:forces:R:3 energy=-0.8269192073958311 pbc="F F F"
K        0.00000000       0.00000000       0.00000000       0.00000000       0.00000000       1.78421009
K        0.00000000       0.00000000       5.70606061       0.00000000       0.00000000      -1.78421009
2
Properties=species:S:1:pos:R:3:forces:R:3 energy=-0.7224093909802359 pbc="F F F"
K        0.00000000       0.00000000       0.00000000       0.00000000       0.00000000       1.70391154
K        0.00000000       0.00000000       5.76484848       0.00000000       0.00000000      -1.70391154
2
Properties=species:S:1:pos:R:3:forces:R:3 energy=-0.6334005596795438 pbc="F F F"
K        0.00000000       0.00000000       0.00000000       0.00000000       0.00000000       1.28225291
K        0.00000000       0.00000000       5.82363636       0.00000000       0.00000000      -1.28225291
2
Properties=species:S:1:pos:R:3:forces:R:3 energy=-0.5749450259303306 pbc="F F F"
K        0.00000000       0.00000000       0.00000000       0.00000000       0.00000000       0.70791930
K        0.00000000       0.00000000       5.88242424       0.00000000       0.00000000      -0.70791930
2
Properties=species:S:1:pos:R:3:forces:R:3 energy=-0.5479746615868568 pbc="F F F"
K        0.00000000       0.00000000       0.00000000       0.00000000       0.00000000       0.24208827
K        0.00000000       0.00000000       5.94121212       0.00000000       0.00000000      -0.24208827
2
Properties=species:S:1:pos:R:3:forces:R:3 energy=-0.5406347146628909 pbc="F F F"
K        0.00000000       0.00000000       0.00000000       0.00000000       0.00000000       0.06572454
K        0.00000000       0.00000000       6.00000000       0.00000000       0.00000000      -0.06572454
