2
Properties=species:S:1:pos:R:3:forces:R:3 energy=2141.3896415221857 pbc="F F F"
K        0.00000000       0.00000000       0.00000000       0.00000000       0.00000000  -31979.73632812
K        0.00000000       0.00000000       0.18000000       0.00000000       0.00000000   31979.73632812
2
Properties=species:S:1:pos:R:3:forces:R:3 energy=962.3716361510918 pbc="F F F"
K        0.00000000       0.00000000       0.00000000       0.00000000       0.00000000  -11998.21289062
K        0.00000000       0.00000000       0.23878788       0.00000000       0.00000000   11998.21289062
2
Properties=species:S:1:pos:R:3:forces:R:3 energy=486.3716056335137 pbc="F F F"
K        0.00000000       0.00000000       0.00000000       0.00000000       0.00000000   -5276.68798828
K        0.00000000       0.00000000       0.29757576       0.00000000       0.00000000    5276.68798828
2
Properties=species:S:1:pos:R:3:forces:R:3 energy=266.4891593460351 pbc="F F F"
K        0.00000000       0.00000000       0.00000000       0.00000000       0.00000000   -2576.61547852
K        0.00000000       0.00000000       0.35636364       0.00000000       0.00000000    2576.61547852
2
Properties=species:S:1:pos:R:3:forces:R:3 energy=155.44262003939448 pbc="F F F"
K        0.00000000       0.00000000       0.00000000       0.00000000       0.00000000   -1350.72937012
K        0.00000000       0.00000000       0.41515152       0.00000000       0.00000000    1350.72937012
2
Properties=species:S:1:pos:R:3:forces:R:3 energy=95.8345115220545 pbc="F F F"
K        0.00000000       0.00000000       0.00000000       0.00000000       0.00000000    -744.10717773
K        0.00000000       0.00000000       0.47393939       0.00000000       0.00000000     744.10717773
2
Properties=species:S:1:pos:R:3:forces:R:3 energy=62.43847728449966 pbc="F F F"
K        0.00000000       0.00000000       0.00000000       0.00000000       0.00000000    -424.50033569
K        0.00000000       0.00000000       0.53272727       0.00000000       0.00000000     424.50033569
2
Properties=species:S:1:pos:R:3:forces:R:3 energy=43.1716315877103 pbc="F F F"
K        0.00000000       0.00000000       0.00000000       0.00000000       0.00000000    -247.64210510
K        0.00000000       0.00000000       0.59151515       0.00000000       0.00000000     247.64210510
2
Properties=species:S:1:pos:R:3:forces:R:3 energy=31.87691380851748 pbc="F F F"
K        0.00000000       0.00000000       0.00000000       0.00000000       0.00000000    -145.57336426
K        0.00000000       0.00000000       0.65030303       0.00000000       0.00000000     145.57336426
2
Properties=species:S:1:pos:R:3:forces:R:3 energy=25.26281813649038 pbc="F F F"
K        0.00000000       0.00000000       0.00000000       0.00000000       0.00000000     -84.48922729
K        0.00000000       0.00000000       0.70909091       0.00000000       0.00000000      84.48922729
2
Properties=species:S:1:pos:R:3:forces:R:3 energy=21.482075513401462 pbc="F F F"
K        0.00000000       0.00000000       0.00000000       0.00000000       0.00000000     -47.20397949
K        0.00000000       0.00000000       0.76787879       0.00000000       0.00000000      47.20397949
2
Properties=species:S:1:pos:R:3:forces:R:3 energy=19.415055131987742 pbc="F F F"
K        0.00000000       0.00000000       0.00000000       0.00000000       0.00000000     -25.26032829
K        0.00000000       0.00000000       0.82666667       0.00000000       0.00000000      25.26032829
2
Properties=species:S:1:pos:R:3:forces:R:3 energy=18.289416220880902 pbc="F F F"
K        0.00000000       0.00000000       0.00000000       0.00000000       0.00000000     -14.71196270
K        0.00000000       0.00000000       0.88545455       0.00000000       0.00000000      14.71196270
2
Properties=species:S:1:pos:R:3:forces:R:3 energy=17.518221832565178 pbc="F F F"
K        0.00000000       0.00000000       0.00000000       0.00000000       0.00000000     -12.62192917
K        0.00000000       0.00000000       0.94424242       0.00000000       0.00000000      12.62192917
2
Properties=species:S:1:pos:R:3:forces:R:3 energy=16.723778800274502 pbc="F F F"
K        0.00000000       0.00000000       0.00000000       0.00000000       0.00000000     -14.69867134
K        0.00000000       0.00000000       1.00303030       0.00000000       0.00000000      14.69867134
2
Properties=species:S:1:pos:R:3:forces:R:3 energy=15.789366927591733 pbc="F F F"
K        0.00000000       0.00000000       0.00000000       0.00000000       0.00000000     -16.92923355
K        0.00000000       0.00000000       1.06181818       0.00000000       0.00000000      16.92923355
2
Properties=species:S:1:pos:R:3:forces:R:3 energy=14.753581426773122 pbc="F F F"
K        0.00000000       0.00000000       0.00000000       0.00000000       0.00000000     -18.18507767
K        0.00000000       0.00000000       1.12060606       0.00000000       0.00000000      18.18507767
2
Properties=species:S:1:pos:R:3:forces:R:3 energy=13.657531389237324 pbc="F F F"
K        0.00000000       0.00000000       0.00000000       0.00000000       0.00000000     -19.10285187
K        0.00000000       0.00000000       1.17939394       0.00000000       0.00000000      19.10285187
2
Properties=species:S:1:pos:R:3:forces:R:3 energy=12.505392020148493 pbc="F F F"
K        0.00000000       0.00000000       0.00000000       0.00000000       0.00000000     -20.10924339
K        0.00000000       0.00000000       1.23818182       0.00000000       0.00000000      20.10924339
2
Properties=species:S:1:pos:R:3:forces:R:3 energy=11.294877373257586 pbc="F F F"
K        0.00000000       0.00000000       0.00000000       0.00000000       0.00000000     -21.01186371
K        0.00000000       0.00000000       1.29696970       0.00000000       0.00000000      21.01186371
2
Properties=species:S:1:pos:R:3:forces:R:3 energy=10.04984744370979 pbc="F F F"
K        0.00000000       0.00000000       0.00000000       0.00000000       0.00000000     -21.15054512
K        0.00000000       0.00000000       1.35575758       0.00000000       0.00000000      21.15054512
2
Properties=species:S:1:pos:R:3:forces:R:3 energy=8.836282212844338 pbc="F F F"
K        0.00000000       0.00000000       0.00000000       0.00000000       0.00000000     -19.88011360
K        0.00000000       0.00000000       1.41454545       0.00000000       0.00000000      19.88011360
2
Properties=species:S:1:pos:R:3:forces:R:3 energy=7.7384407344551995 pbc="F F F"
K        0.00000000       0.00000000       0.00000000       0.00000000       0.00000000     -17.31029510
K        0.00000000       0.00000000       1.47333333       0.00000000       0.00000000      17.31029510
2
Properties=species:S:1:pos:R:3:forces:R:3 energy=6.809528527165078 pbc="F F F"
K        0.00000000       0.00000000       0.00000000       0.00000000       0.00000000     -14.30753040
K        0.00000000       0.00000000       1.53212121       0.00000000       0.00000000      14.30753040
2
Properties=species:S:1:pos:R:3:forces:R:3 energy=6.045909262483738 pbc="F F F"
K        0.00000000       0.00000000       0.00000000       0.00000000       0.00000000     -11.81138039
K        0.00000000       0.00000000       1.59090909       0.00000000       0.00000000      11.81138039
2
Properties=species:S:1:pos:R:3:forces:R:3 energy=5.402260560212154 pbc="F F F"
K        0.00000000       0.00000000       0.00000000       0.00000000       0.00000000     -10.23842335
K        0.00000000       0.00000000       1.64969697       0.00000000       0.00000000      10.23842335
2
Properties=species:S:1:pos:R:3:forces:R:3 energy=4.827803115712826 pbc="F F F"
K        0.00000000       0.00000000       0.00000000       0.00000000       0.00000000      -9.38724613
K        0.00000000       0.00000000       1.70848485       0.00000000       0.00000000       9.38724613
2
Properties=species:S:1:pos:R:3:forces:R:3 energy=4.293478520082187 pbc="F F F"
K        0.00000000       0.00000000       0.00000000       0.00000000       0.00000000      -8.80283642
K        0.00000000       0.00000000       1.76727273       0.00000000       0.00000000       8.80283642
2
Properties=species:S:1:pos:R:3:forces:R:3 energy=3.792891245620992 pbc="F F F"
K        0.00000000       0.00000000       0.00000000       0.00000000       0.00000000      -8.22583675
K        0.00000000       0.00000000       1.82606061       0.00000000       0.00000000       8.22583675
2
Properties=species:S:1:pos:R:3:forces:R:3 energy=3.325415265329141 pbc="F F F"
K        0.00000000       0.00000000       0.00000000       0.00000000       0.00000000      -7.69524431
K        0.00000000       0.00000000       1.88484848       0.00000000       0.00000000       7.69524431
2
Properties=species:S:1:pos:R:3:forces:R:3 energy=2.885685750863956 pbc="F F F"
K        0.00000000       0.00000000       0.00000000       0.00000000       0.00000000      -7.28351545
K        0.00000000       0.00000000       1.94363636       0.00000000       0.00000000       7.28351545
2
Properties=species:S:1:pos:R:3:forces:R:3 energy=2.46763263806142 pbc="F F F"
K        0.00000000       0.00000000       0.00000000       0.00000000       0.00000000      -6.94320297
K        0.00000000       0.00000000       2.00242424       0.00000000       0.00000000       6.94320297
2
Properties=species:S:1:pos:R:3:forces:R:3 energy=2.0696164047164283 pbc="F F F"
K        0.00000000       0.00000000       0.00000000       0.00000000       0.00000000      -6.59017420
K        0.00000000       0.00000000       2.06121212       0.00000000       0.00000000       6.59017420
2
Properties=species:S:1:pos:R:3:forces:R:3 energy=1.6939085533311011 pbc="F F F"
K        0.00000000       0.00000000       0.00000000       0.00000000       0.00000000      -6.18170786
K        0.00000000       0.00000000       2.12000000       0.00000000       0.00000000       6.18170786
2
Properties=species:S:1:pos:R:3:forces:R:3 energy=1.3438226106466336 pbc="F F F"
K        0.00000000       0.00000000       0.00000000       0.00000000       0.00000000      -5.72189522
K        0.00000000       0.00000000       2.17878788       0.00000000       0.00000000       5.72189522
2
Properties=species:S:1:pos:R:3:forces:R:3 energy=1.021579911061178 pbc="F F F"
K        0.00000000       0.00000000       0.00000000       0.00000000       0.00000000      -5.24038410
K        0.00000000       0.00000000       2.23757576       0.00000000       0.00000000       5.24038410
2
Properties=species:S:1:pos:R:3:forces:R:3 energy=0.7274211424661119 pbc="F F F"
K        0.00000000       0.00000000       0.00000000       0.00000000       0.00000000      -4.77162981
K        0.00000000       0.00000000       2.29636364       0.00000000       0.00000000       4.77162981
2
Properties=species:S:1:pos:R:3:forces:R:3 energy=0.45979839241150333 pbc="F F F"
K        0.00000000       0.00000000       0.00000000       0.00000000       0.00000000      -4.34067249
K        0.00000000       0.00000000       2.35515152       0.00000000       0.00000000       4.34067249
2
Properties=species:S:1:pos:R:3:forces:R:3 energy=0.21613849687219425 pbc="F F F"
K        0.00000000       0.00000000       0.00000000       0.00000000       0.00000000      -3.95653605
K        0.00000000       0.00000000       2.41393939       0.00000000       0.00000000       3.95653605
2
Properties=species:S:1:pos:R:3:forces:R:3 energy=-0.006215777360607026 pbc="F F F"
K        0.00000000       0.00000000       0.00000000       0.00000000       0.00000000      -3.61408615
K        0.00000000       0.00000000       2.47272727       0.00000000       0.00000000       3.61408615
2
Properties=species:S:1:pos:R:3:forces:R:3 energy=-0.20936996736339625 pbc="F F F"
K        0.00000000       0.00000000       0.00000000       0.00000000       0.00000000      -3.30117989
K        0.00000000       0.00000000       2.53151515       0.00000000       0.00000000       3.30117989
2
Properties=species:S:1:pos:R:3:forces:R:3 energy=-0.39469292314575755 pbc="F F F"
K        0.00000000       0.00000000       0.00000000       0.00000000       0.00000000      -3.00571585
K        0.00000000       0.00000000       2.59030303       0.00000000       0.00000000       3.00571585
2
Properties=species:S:1:pos:R:3:forces:R:3 energy=-0.5629488905432508 pbc="F F F"
K        0.00000000       0.00000000       0.00000000       0.00000000       0.00000000      -2.71960187
K        0.00000000       0.00000000       2.64909091       0.00000000       0.00000000       2.71960187
2
Properties=species:S:1:pos:R:3:forces:R:3 energy=-0.7145711821920995 pbc="F F F"
K        0.00000000       0.00000000       0.00000000       0.00000000       0.00000000      -2.43964863
K        0.00000000       0.00000000       2.70787879       0.00000000       0.00000000       2.43964863
2
Properties=species:S:1:pos:R:3:forces:R:3 energy=-0.849927569085952 pbc="F F F"
K        0.00000000       0.00000000       0.00000000       0.00000000       0.00000000      -2.16664863
K        0.00000000       0.00000000       2.76666667       0.00000000       0.00000000       2.16664863
2
Properties=species:S:1:pos:R:3:forces:R:3 energy=-0.9695155688588447 pbc="F F F"
K        0.00000000       0.00000000       0.00000000       0.00000000       0.00000000      -1.90387011
K        0.00000000       0.00000000       2.82545455       0.00000000       0.00000000       1.90387011
2
Properties=species:S:1:pos:R:3:forces:R:3 energy=-1.0740653655837062 pbc="F F F"
K        0.00000000       0.00000000       0.00000000       0.00000000       0.00000000      -1.65582216
K        0.00000000       0.00000000       2.88424242       0.00000000       0.00000000       1.65582216
2
Properties=species:S:1:pos:R:3:forces:R:3 energy=-1.164582680351127 pbc="F F F"
K        0.00000000       0.00000000       0.00000000       0.00000000       0.00000000      -1.42725086
K        0.00000000       0.00000000       2.94303030       0.00000000       0.00000000       1.42725086
2
Properties=species:S:1:pos:R:3:forces:R:3 energy=-1.242335005180263 pbc="F F F"
K        0.00000000       0.00000000       0.00000000       0.00000000       0.00000000      -1.22208822
K        0.00000000       0.00000000       3.00181818       0.00000000       0.00000000       1.22208822
2
Properties=species:S:1:pos:R:3:forces:R:3 energy=-1.308770819718231 pbc="F F F"
K        0.00000000       0.00000000       0.00000000       0.00000000       0.00000000      -1.04235864
K        0.00000000       0.00000000       3.06060606       0.00000000       0.00000000       1.04235864
2
Properties=species:S:1:pos:R:3:forces:R:3 energy=-1.3653797066424183 pbc="F F F"
K        0.00000000       0.00000000       0.00000000       0.00000000       0.00000000      -0.88748604
K        0.00000000       0.00000000       3.11939394       0.00000000       0.00000000       0.88748604
2
Properties=species:S:1:pos:R:3:forces:R:3 energy=-1.4135442018560167 pbc="F F F"
K        0.00000000       0.00000000       0.00000000       0.00000000       0.00000000      -0.75433570
K        0.00000000       0.00000000       3.17818182       0.00000000       0.00000000       0.75433570
2
Properties=species:S:1:pos:R:3:forces:R:3 energy=-1.4544027750810395 pbc="F F F"
K        0.00000000       0.00000000       0.00000000       0.00000000       0.00000000      -0.63807905
K        0.00000000       0.00000000       3.23696970       0.00000000       0.00000000       0.63807905
2
Properties=species:S:1:pos:R:3:forces:R:3 energy=-1.4887968070670472 pbc="F F F"
K        0.00000000       0.00000000       0.00000000       0.00000000       0.00000000      -0.53360265
K        0.00000000       0.00000000       3.29575758       0.00000000       0.00000000       0.53360265
2
Properties=species:S:1:pos:R:3:forces:R:3 energy=-1.5172955344269743 pbc="F F F"
K        0.00000000       0.00000000       0.00000000       0.00000000       0.00000000      -0.43705836
K        0.00000000       0.00000000       3.35454545       0.00000000       0.00000000       0.43705836
2
Properties=species:S:1:pos:R:3:forces:R:3 energy=-1.5403082857672177 pbc="F F F"
K        0.00000000       0.00000000       0.00000000       0.00000000       0.00000000      -0.34693673
K        0.00000000       0.00000000       3.41333333       0.00000000       0.00000000       0.34693673
2
Properties=species:S:1:pos:R:3:forces:R:3 energy=-1.5582303174143557 pbc="F F F"
K        0.00000000       0.00000000       0.00000000       0.00000000       0.00000000      -0.26419738
K        0.00000000       0.00000000       3.47212121       0.00000000       0.00000000       0.26419738
2
Properties=species:S:1:pos:R:3:forces:R:3 energy=-1.571565579560494 pbc="F F F"
K        0.00000000       0.00000000       0.00000000       0.00000000       0.00000000      -0.19134897
K        0.00000000       0.00000000       3.53090909       0.00000000       0.00000000       0.19134897
2
Properties=species:S:1:pos:R:3:forces:R:3 energy=-1.5809727258813402 pbc="F F F"
K        0.00000000       0.00000000       0.00000000       0.00000000       0.00000000      -0.13090754
K        0.00000000       0.00000000       3.58969697       0.00000000       0.00000000       0.13090754
2
Properties=species:S:1:pos:R:3:forces:R:3 energy=-1.5872232880826334 pbc="F F F"
K        0.00000000       0.00000000       0.00000000       0.00000000       0.00000000      -0.08399666
K        0.00000000       0.00000000       3.64848485       0.00000000       0.00000000       0.08399666
2
Properties=species:S:1:pos:R:3:forces:R:3 energy=-1.5910974081215579 pbc="F F F"
K        0.00000000       0.00000000       0.00000000       0.00000000       0.00000000      -0.04971917
K        0.00000000       0.00000000       3.70727273       0.00000000       0.00000000       0.04971917
2
Properties=species:S:1:pos:R:3:forces:R:3 energy=-1.593266867719199 pbc="F F F"
K        0.00000000       0.00000000       0.00000000       0.00000000       0.00000000      -0.02551380
K        0.00000000       0.00000000       3.76606061       0.00000000       0.00000000       0.02551380
2
Properties=species:S:1:pos:R:3:forces:R:3 energy=-1.5942305017722986 pbc="F F F"
K        0.00000000       0.00000000       0.00000000       0.00000000       0.00000000      -0.00811129
K        0.00000000       0.00000000       3.82484848       0.00000000       0.00000000       0.00811129
2
Properties=species:S:1:pos:R:3:forces:R:3 energy=-1.5942938605861914 pbc="F F F"
K        0.00000000       0.00000000       0.00000000       0.00000000       0.00000000       0.00553681
K        0.00000000       0.00000000       3.88363636       0.00000000       0.00000000      -0.00553681
2
Properties=species:S:1:pos:R:3:forces:R:3 energy=-1.593606567324087 pbc="F F F"
K        0.00000000       0.00000000       0.00000000       0.00000000       0.00000000       0.01774846
K        0.00000000       0.00000000       3.94242424       0.00000000       0.00000000      -0.01774846
2
Properties=species:S:1:pos:R:3:forces:R:3 energy=-1.5922050583854312 pbc="F F F"
K        0.00000000       0.00000000       0.00000000       0.00000000       0.00000000       0.03004215
K        0.00000000       0.00000000       4.00121212       0.00000000       0.00000000      -0.03004215
2
Properties=species:S:1:pos:R:3:forces:R:3 energy=-1.590055987363083 pbc="F F F"
K        0.00000000       0.00000000       0.00000000       0.00000000       0.00000000       0.04326338
K        0.00000000       0.00000000       4.06000000       0.00000000       0.00000000      -0.04326338
2
Properties=species:S:1:pos:R:3:forces:R:3 energy=-1.5870946151390264 pbc="F F F"
K        0.00000000       0.00000000       0.00000000       0.00000000       0.00000000       0.05768023
K        0.00000000       0.00000000       4.11878788       0.00000000       0.00000000      -0.05768023
2
Properties=species:S:1:pos:R:3:forces:R:3 energy=-1.583256367725115 pbc="F F F"
K        0.00000000       0.00000000       0.00000000       0.00000000       0.00000000       0.07297675
K        0.00000000       0.00000000       4.17757576       0.00000000       0.00000000      -0.07297675
2
Properties=species:S:1:pos:R:3:forces:R:3 energy=-1.5785160091159676 pbc="F F F"
K        0.00000000       0.00000000       0.00000000       0.00000000       0.00000000       0.08815056
K        0.00000000       0.00000000       4.23636364       0.00000000       0.00000000      -0.08815056
2
Properties=species:S:1:pos:R:3:forces:R:3 energy=-1.5729293217618694 pbc="F F F"
K        0.00000000       0.00000000       0.00000000       0.00000000       0.00000000       0.10139076
K        0.00000000       0.00000000       4.29515152       0.00000000       0.00000000      -0.10139076
2
Properties=species:S:1:pos:R:3:forces:R:3 energy=-1.5666854585226502 pbc="F F F"
K        0.00000000       0.00000000       0.00000000       0.00000000       0.00000000       0.10998827
K        0.00000000       0.00000000       4.35393939       0.00000000       0.00000000      -0.10998827
2
Properties=species:S:1:pos:R:3:forces:R:3 energy=-1.560157361260028 pbc="F F F"
K        0.00000000       0.00000000       0.00000000       0.00000000       0.00000000       0.11042593
K        0.00000000       0.00000000       4.41272727       0.00000000       0.00000000      -0.11042593
2
Properties=species:S:1:pos:R:3:forces:R:3 energy=-1.5539349023058902 pbc="F F F"
K        0.00000000       0.00000000       0.00000000       0.00000000       0.00000000       0.09903075
K        0.00000000       0.00000000       4.47151515       0.00000000       0.00000000      -0.09903075
2
Properties=species:S:1:pos:R:3:forces:R:3 energy=-1.5487841466089984 pbc="F F F"
K        0.00000000       0.00000000       0.00000000       0.00000000       0.00000000       0.07399370
K        0.00000000       0.00000000       4.53030303       0.00000000       0.00000000      -0.07399370
2
Properties=species:S:1:pos:R:3:forces:R:3 energy=-1.545431451766116 pbc="F F F"
K        0.00000000       0.00000000       0.00000000       0.00000000       0.00000000       0.03927863
K        0.00000000       0.00000000       4.58909091       0.00000000       0.00000000      -0.03927863
2
Properties=species:S:1:pos:R:3:forces:R:3 energy=-1.544100148234065 pbc="F F F"
K        0.00000000       0.00000000       0.00000000       0.00000000       0.00000000       0.00822851
K        0.00000000       0.00000000       4.64787879       0.00000000       0.00000000      -0.00822851
2
Properties=species:S:1:pos:R:3:forces:R:3 energy=-1.5439966806976297 pbc="F F F"
K        0.00000000       0.00000000       0.00000000       0.00000000       0.00000000       0.00083673
K        0.00000000       0.00000000       4.70666667       0.00000000       0.00000000      -0.00083673
2
Properties=species:S:1:pos:R:3:forces:R:3 energy=-1.5432280412681834 pbc="F F F"
K        0.00000000       0.00000000       0.00000000       0.00000000       0.00000000       0.03235915
K        0.00000000       0.00000000       4.76545455       0.00000000       0.00000000      -0.03235915
2
Properties=species:S:1:pos:R:3:forces:R:3 energy=-1.5394143775201463 pbc="F F F"
K        0.00000000       0.00000000       0.00000000       0.00000000       0.00000000       0.10306454
K        0.00000000       0.00000000       4.82424242       0.00000000       0.00000000      -0.10306454
2
Properties=species:S:1:pos:R:3:forces:R:3 energy=-1.5306027434808467 pbc="F F F"
K        0.00000000       0.00000000       0.00000000       0.00000000       0.00000000       0.19959968
K        0.00000000       0.00000000       4.88303030       0.00000000       0.00000000      -0.19959968
2
Properties=species:S:1:pos:R:3:forces:R:3 energy=-1.5157925837743813 pbc="F F F"
K        0.00000000       0.00000000       0.00000000       0.00000000       0.00000000       0.30408442
K        0.00000000       0.00000000       4.94181818       0.00000000       0.00000000      -0.30408442
2
Properties=species:S:1:pos:R:3:forces:R:3 energy=-1.4949981045079057 pbc="F F F"
K        0.00000000       0.00000000       0.00000000       0.00000000       0.00000000       0.40114757
K        0.00000000       0.00000000       5.00060606       0.00000000       0.00000000      -0.40114757
2
Properties=species:S:1:pos:R:3:forces:R:3 energy=-1.4689485142866765 pbc="F F F"
K        0.00000000       0.00000000       0.00000000       0.00000000       0.00000000       0.48213243
K        0.00000000       0.00000000       5.05939394       0.00000000       0.00000000      -0.48213243
2
Properties=species:S:1:pos:R:3:forces:R:3 energy=-1.4385733222808086 pbc="F F F"
K        0.00000000       0.00000000       0.00000000       0.00000000       0.00000000       0.55034322
K        0.00000000       0.00000000       5.11818182       0.00000000       0.00000000      -0.55034322
2
Properties=species:S:1:pos:R:3:forces:R:3 energy=-1.4041176929762647 pbc="F F F"
K        0.00000000       0.00000000       0.00000000       0.00000000       0.00000000       0.62525672
K        0.00000000       0.00000000       5.17696970       0.00000000       0.00000000      -0.62525672
2
Properties=species:S:1:pos:R:3:forces:R:3 energy=-1.3644280263505744 pbc="F F F"
K        0.00000000       0.00000000       0.00000000       0.00000000       0.00000000       0.73146981
K        0.00000000       0.00000000       5.23575758       0.00000000       0.00000000      -0.73146981
2
Properties=species:S:1:pos:R:3:forces:R:3 energy=-1.3175067645617473 pbc="F F F"
K        0.00000000       0.00000000       0.00000000       0.00000000       0.00000000       0.86697072
K        0.00000000       0.00000000       5.29454545       0.00000000       0.00000000      -0.86697072
2
Properties=species:S:1:pos:R:3:forces:R:3 energy=-1.2628072479223 pbc="F F F"
K        0.00000000       0.00000000       0.00000000       0.00000000       0.00000000       0.98612595
K        0.00000000       0.00000000       5.35333333       0.00000000       0.00000000      -0.98612595
2
Properties=species:S:1:pos:R:3:forces:R:3 energy=-1.2028667564321422 pbc="F F F"
K        0.00000000       0.00000000       0.00000000       0.00000000       0.00000000       1.04125738
K        0.00000000       0.00000000       5.41212121       0.00000000       0.00000000      -1.04125738
2
Properties=species:S:1:pos:R:3:forces:R:3 energy=-1.1413848036365184 pbc="F F F"
K        0.00000000       0.00000000       0.00000000       0.00000000       0.00000000       1.04791617
K        0.00000000       0.00000000       5.47090909       0.00000000       0.00000000      -1.04791617
2
Properties=species:S:1:pos:R:3:forces:R:3 energy=-1.078851055082257 pbc="F F F"
K        0.00000000       0.00000000       0.00000000       0.00000000       0.00000000       1.09562731
K        0.00000000       0.00000000       5.52969697       0.00000000       0.00000000      -1.09562731
2
Properties=species:S:1:pos:R:3:forces:R:3 energy=-1.0098711490762895 pbc="F F F"
K        0.00000000       0.00000000       0.00000000       0.00000000       0.00000000       1.27683556
K        0.00000000       0.00000000       5.58848485       0.00000000       0.00000000      -1.27683556
2
Properties=species:S:1:pos:R:3:forces:R:3 energy=-0.9264913913831416 pbc="F F F"
K        0.00000000       0.00000000       0.00000000       0.00000000       0.00000000       1.56846833
K        0.00000000       0.00000000       5.64727273       0.00000000       0.00000000      -1.56846833
2
Properties=species:S:1:pos:R:3:forces:R:3 energy=-0.826919182053254 pbc="F F F"
K        0.00000000       0.00000000       0.00000000       0.00000000       0.00000000       1.78423142
K        0.00000000       0.00000000       5.70606061       0.00000000       0.00000000      -1.78423142
2
Properties=species:S:1:pos:R:3:forces:R:3 energy=-0.7224093313755912 pbc="F F F"
K        0.00000000       0.00000000       0.00000000       0.00000000       0.00000000       1.70376682
K        0.00000000       0.00000000       5.76484848       0.00000000       0.00000000      -1.70376682
2
Properties=species:S:1:pos:R:3:forces:R:3 energy=-0.6333141862136199 pbc="F F F"
K        0.00000000       0.00000000       0.00000000       0.00000000       0.00000000       1.28263927
K        0.00000000       0.00000000       5.82363636       0.00000000       0.00000000      -1.28263927
2
Properties=species:S:1:pos:R:3:forces:R:3 energy=-0.5749449517784981 pbc="F F F"
K        0.00000000       0.00000000       0.00000000       0.00000000       0.00000000       0.70751148
K        0.00000000       0.00000000       5.88242424       0.00000000       0.00000000      -0.70751148
2
Properties=species:S:1:pos:R:3:forces:R:3 energy=-0.5479746615868568 pbc="F F F"
K        0.00000000       0.00000000       0.00000000       0.00000000       0.00000000       0.24228218
K        0.00000000       0.00000000       5.94121212       0.00000000       0.00000000      -0.24228218
2
Properties=species:S:1:pos:R:3:forces:R:3 energy=-0.5406347146628909 pbc="F F F"
K        0.00000000       0.00000000       0.00000000       0.00000000       0.00000000       0.06572454
K        0.00000000       0.00000000       6.00000000       0.00000000       0.00000000      -0.06572454
