2
Properties=species:S:1:pos:R:3:forces:R:3 energy=121.25608835992853 pbc="F F F"
Li       0.00000000       0.00000000       0.00000000       0.00000000       0.00000000   -1432.57202148
Li       0.00000000       0.00000000       0.18000000       0.00000000       0.00000000    1432.57202148
2
Properties=species:S:1:pos:R:3:forces:R:3 energy=64.7595978814129 pbc="F F F"
Li       0.00000000       0.00000000       0.00000000       0.00000000       0.00000000    -625.73590088
Li       0.00000000       0.00000000       0.23878788       0.00000000       0.00000000     625.73590088
2
Properties=species:S:1:pos:R:3:forces:R:3 energy=38.50307093439141 pbc="F F F"
Li       0.00000000       0.00000000       0.00000000       0.00000000       0.00000000    -311.56042480
Li       0.00000000       0.00000000       0.29757576       0.00000000       0.00000000     311.56042480
2
Properties=species:S:1:pos:R:3:forces:R:3 energy=24.867357358704815 pbc="F F F"
Li       0.00000000       0.00000000       0.00000000       0.00000000       0.00000000    -169.53529358
Li       0.00000000       0.00000000       0.35636364       0.00000000       0.00000000     169.53529358
2
Properties=species:S:1:pos:R:3:forces:R:3 energy=17.216957201713385 pbc="F F F"
Li       0.00000000       0.00000000       0.00000000       0.00000000       0.00000000     -98.33311462
Li       0.00000000       0.00000000       0.41515152       0.00000000       0.00000000      98.33311462
2
Properties=species:S:1:pos:R:3:forces:R:3 energy=12.681613085792609 pbc="F F F"
Li       0.00000000       0.00000000       0.00000000       0.00000000       0.00000000     -59.62958527
Li       0.00000000       0.00000000       0.47393939       0.00000000       0.00000000      59.62958527
2
Properties=species:S:1:pos:R:3:forces:R:3 energy=9.894699228282672 pbc="F F F"
Li       0.00000000       0.00000000       0.00000000       0.00000000       0.00000000     -37.07343292
Li       0.00000000       0.00000000       0.53272727       0.00000000       0.00000000      37.07343292
2
Properties=species:S:1:pos:R:3:forces:R:3 energy=8.157851376122807 pbc="F F F"
Li       0.00000000       0.00000000       0.00000000       0.00000000       0.00000000     -23.05321312
Li       0.00000000       0.00000000       0.59151515       0.00000000       0.00000000      23.05321312
2
Properties=species:S:1:pos:R:3:forces:R:3 energy=7.0889289007884795 pbc="F F F"
Li       0.00000000       0.00000000       0.00000000       0.00000000       0.00000000     -13.95571041
Li       0.00000000       0.00000000       0.65030303       0.00000000       0.00000000      13.95571041
2
Properties=species:S:1:pos:R:3:forces:R:3 energy=6.454306396628027 pbc="F F F"
Li       0.00000000       0.00000000       0.00000000       0.00000000       0.00000000      -8.08321476
Li       0.00000000       0.00000000       0.70909091       0.00000000       0.00000000       8.08321476
2
Properties=species:S:1:pos:R:3:forces:R:3 energy=6.091313737646871 pbc="F F F"
Li       0.00000000       0.00000000       0.00000000       0.00000000       0.00000000      -4.64184475
Li       0.00000000       0.00000000       0.76787879       0.00000000       0.00000000       4.64184475
2
Properties=species:S:1:pos:R:3:forces:R:3 energy=5.865622095937124 pbc="F F F"
Li       0.00000000       0.00000000       0.00000000       0.00000000       0.00000000      -3.38659549
Li       0.00000000       0.00000000       0.82666667       0.00000000       0.00000000       3.38659549
2
Properties=species:S:1:pos:R:3:forces:R:3 energy=5.656111037624861 pbc="F F F"
Li       0.00000000       0.00000000       0.00000000       0.00000000       0.00000000      -4.00456381
Li       0.00000000       0.00000000       0.88545455       0.00000000       0.00000000       4.00456381
2
Properties=species:S:1:pos:R:3:forces:R:3 energy=5.371998416189668 pbc="F F F"
Li       0.00000000       0.00000000       0.00000000       0.00000000       0.00000000      -5.77908564
Li       0.00000000       0.00000000       0.94424242       0.00000000       0.00000000       5.77908564
2
Properties=species:S:1:pos:R:3:forces:R:3 energy=4.9717927548258825 pbc="F F F"
Li       0.00000000       0.00000000       0.00000000       0.00000000       0.00000000      -7.80241060
Li       0.00000000       0.00000000       1.00303030       0.00000000       0.00000000       7.80241060
2
Properties=species:S:1:pos:R:3:forces:R:3 energy=4.466564333508747 pbc="F F F"
Li       0.00000000       0.00000000       0.00000000       0.00000000       0.00000000      -9.22651005
Li       0.00000000       0.00000000       1.06181818       0.00000000       0.00000000       9.22651005
2
Properties=species:S:1:pos:R:3:forces:R:3 energy=3.908834183791653 pbc="F F F"
Li       0.00000000       0.00000000       0.00000000       0.00000000       0.00000000      -9.56624222
Li       0.00000000       0.00000000       1.12060606       0.00000000       0.00000000       9.56624222
2
Properties=species:S:1:pos:R:3:forces:R:3 energy=3.358126174069009 pbc="F F F"
Li       0.00000000       0.00000000       0.00000000       0.00000000       0.00000000      -9.08085346
Li       0.00000000       0.00000000       1.17939394       0.00000000       0.00000000       9.08085346
2
Properties=species:S:1:pos:R:3:forces:R:3 energy=2.8471327953490877 pbc="F F F"
Li       0.00000000       0.00000000       0.00000000       0.00000000       0.00000000      -8.27716255
Li       0.00000000       0.00000000       1.23818182       0.00000000       0.00000000       8.27716255
2
Properties=species:S:1:pos:R:3:forces:R:3 energy=2.3864658835255645 pbc="F F F"
Li       0.00000000       0.00000000       0.00000000       0.00000000       0.00000000      -7.39226818
Li       0.00000000       0.00000000       1.29696970       0.00000000       0.00000000       7.39226818
2
Properties=species:S:1:pos:R:3:forces:R:3 energy=1.9772139001915023 pbc="F F F"
Li       0.00000000       0.00000000       0.00000000       0.00000000       0.00000000      -6.54594517
Li       0.00000000       0.00000000       1.35575758       0.00000000       0.00000000       6.54594517
2
Properties=species:S:1:pos:R:3:forces:R:3 energy=1.614290275244701 pbc="F F F"
Li       0.00000000       0.00000000       0.00000000       0.00000000       0.00000000      -5.82627487
Li       0.00000000       0.00000000       1.41454545       0.00000000       0.00000000       5.82627487
2
Properties=species:S:1:pos:R:3:forces:R:3 energy=1.2892343531067139 pbc="F F F"
Li       0.00000000       0.00000000       0.00000000       0.00000000       0.00000000      -5.25539970
Li       0.00000000       0.00000000       1.47333333       0.00000000       0.00000000       5.25539970
2
Properties=species:S:1:pos:R:3:forces:R:3 energy=0.9939943787335427 pbc="F F F"
Li       0.00000000       0.00000000       0.00000000       0.00000000       0.00000000      -4.80641651
Li       0.00000000       0.00000000       1.53212121       0.00000000       0.00000000       4.80641651
2
Properties=species:S:1:pos:R:3:forces:R:3 energy=0.7223561756014576 pbc="F F F"
Li       0.00000000       0.00000000       0.00000000       0.00000000       0.00000000      -4.44730234
Li       0.00000000       0.00000000       1.59090909       0.00000000       0.00000000       4.44730234
2
Properties=species:S:1:pos:R:3:forces:R:3 energy=0.469951590559623 pbc="F F F"
Li       0.00000000       0.00000000       0.00000000       0.00000000       0.00000000      -4.14687395
Li       0.00000000       0.00000000       1.64969697       0.00000000       0.00000000       4.14687395
2
Properties=species:S:1:pos:R:3:forces:R:3 energy=0.23421714246182257 pbc="F F F"
Li       0.00000000       0.00000000       0.00000000       0.00000000       0.00000000      -3.87566137
Li       0.00000000       0.00000000       1.70848485       0.00000000       0.00000000       3.87566137
2
Properties=species:S:1:pos:R:3:forces:R:3 energy=0.01413998717042703 pbc="F F F"
Li       0.00000000       0.00000000       0.00000000       0.00000000       0.00000000      -3.61121702
Li       0.00000000       0.00000000       1.76727273       0.00000000       0.00000000       3.61121702
2
Properties=species:S:1:pos:R:3:forces:R:3 energy=-0.1902364481191065 pbc="F F F"
Li       0.00000000       0.00000000       0.00000000       0.00000000       0.00000000      -3.33990908
Li       0.00000000       0.00000000       1.82606061       0.00000000       0.00000000       3.33990908
2
Properties=species:S:1:pos:R:3:forces:R:3 energy=-0.378275029891836 pbc="F F F"
Li       0.00000000       0.00000000       0.00000000       0.00000000       0.00000000      -3.05463028
Li       0.00000000       0.00000000       1.88484848       0.00000000       0.00000000       3.05463028
2
Properties=species:S:1:pos:R:3:forces:R:3 energy=-0.5490716554288703 pbc="F F F"
Li       0.00000000       0.00000000       0.00000000       0.00000000       0.00000000      -2.75351167
Li       0.00000000       0.00000000       1.94363636       0.00000000       0.00000000       2.75351167
2
Properties=species:S:1:pos:R:3:forces:R:3 energy=-0.7018033065029678 pbc="F F F"
Li       0.00000000       0.00000000       0.00000000       0.00000000       0.00000000      -2.44150949
Li       0.00000000       0.00000000       2.00242424       0.00000000       0.00000000       2.44150949
2
Properties=species:S:1:pos:R:3:forces:R:3 energy=-0.8361409339207182 pbc="F F F"
Li       0.00000000       0.00000000       0.00000000       0.00000000       0.00000000      -2.12990975
Li       0.00000000       0.00000000       2.06121212       0.00000000       0.00000000       2.12990975
2
Properties=species:S:1:pos:R:3:forces:R:3 energy=-0.9524866347835332 pbc="F F F"
Li       0.00000000       0.00000000       0.00000000       0.00000000       0.00000000      -1.83130717
Li       0.00000000       0.00000000       2.12000000       0.00000000       0.00000000       1.83130717
2
Properties=species:S:1:pos:R:3:forces:R:3 energy=-1.0518742401517056 pbc="F F F"
Li       0.00000000       0.00000000       0.00000000       0.00000000       0.00000000      -1.55371809
Li       0.00000000       0.00000000       2.17878788       0.00000000       0.00000000       1.55371809
2
Properties=species:S:1:pos:R:3:forces:R:3 energy=-1.1356112352652161 pbc="F F F"
Li       0.00000000       0.00000000       0.00000000       0.00000000       0.00000000      -1.29871142
Li       0.00000000       0.00000000       2.23757576       0.00000000       0.00000000       1.29871142
2
Properties=species:S:1:pos:R:3:forces:R:3 energy=-1.2049695165594565 pbc="F F F"
Li       0.00000000       0.00000000       0.00000000       0.00000000       0.00000000      -1.06404591
Li       0.00000000       0.00000000       2.29636364       0.00000000       0.00000000       1.06404591
2
Properties=species:S:1:pos:R:3:forces:R:3 energy=-1.2610717532861246 pbc="F F F"
Li       0.00000000       0.00000000       0.00000000       0.00000000       0.00000000      -0.84754705
Li       0.00000000       0.00000000       2.35515152       0.00000000       0.00000000       0.84754705
2
Properties=species:S:1:pos:R:3:forces:R:3 energy=-1.3049742652319836 pbc="F F F"
Li       0.00000000       0.00000000       0.00000000       0.00000000       0.00000000      -0.64918488
Li       0.00000000       0.00000000       2.41393939       0.00000000       0.00000000       0.64918488
2
Properties=species:S:1:pos:R:3:forces:R:3 energy=-1.3377923222736732 pbc="F F F"
Li       0.00000000       0.00000000       0.00000000       0.00000000       0.00000000      -0.47082734
Li       0.00000000       0.00000000       2.47272727       0.00000000       0.00000000       0.47082734
2
Properties=species:S:1:pos:R:3:forces:R:3 energy=-1.3607702614548725 pbc="F F F"
Li       0.00000000       0.00000000       0.00000000       0.00000000       0.00000000      -0.31476960
Li       0.00000000       0.00000000       2.53151515       0.00000000       0.00000000       0.31476960
2
Properties=species:S:1:pos:R:3:forces:R:3 energy=-1.3752645772024217 pbc="F F F"
Li       0.00000000       0.00000000       0.00000000       0.00000000       0.00000000      -0.18225156
Li       0.00000000       0.00000000       2.59030303       0.00000000       0.00000000       0.18225156
2
Properties=species:S:1:pos:R:3:forces:R:3 energy=-1.3826480424839245 pbc="F F F"
Li       0.00000000       0.00000000       0.00000000       0.00000000       0.00000000      -0.07259028
Li       0.00000000       0.00000000       2.64909091       0.00000000       0.00000000       0.07259028
2
Properties=species:S:1:pos:R:3:forces:R:3 energy=-1.384200409937193 pbc="F F F"
Li       0.00000000       0.00000000       0.00000000       0.00000000       0.00000000       0.01663334
Li       0.00000000       0.00000000       2.70787879       0.00000000       0.00000000      -0.01663334
2
Properties=species:S:1:pos:R:3:forces:R:3 energy=-1.3810251871967842 pbc="F F F"
Li       0.00000000       0.00000000       0.00000000       0.00000000       0.00000000       0.08883728
Li       0.00000000       0.00000000       2.76666667       0.00000000       0.00000000      -0.08883728
2
Properties=species:S:1:pos:R:3:forces:R:3 energy=-1.3740268188219462 pbc="F F F"
Li       0.00000000       0.00000000       0.00000000       0.00000000       0.00000000       0.14713486
Li       0.00000000       0.00000000       2.82545455       0.00000000       0.00000000      -0.14713486
2
Properties=species:S:1:pos:R:3:forces:R:3 energy=-1.363971536654477 pbc="F F F"
Li       0.00000000       0.00000000       0.00000000       0.00000000       0.00000000       0.19278160
Li       0.00000000       0.00000000       2.88424242       0.00000000       0.00000000      -0.19278160
2
Properties=species:S:1:pos:R:3:forces:R:3 energy=-1.3516511572690992 pbc="F F F"
Li       0.00000000       0.00000000       0.00000000       0.00000000       0.00000000       0.22339983
Li       0.00000000       0.00000000       2.94303030       0.00000000       0.00000000      -0.22339983
2
Properties=species:S:1:pos:R:3:forces:R:3 energy=-1.338150844400604 pbc="F F F"
Li       0.00000000       0.00000000       0.00000000       0.00000000       0.00000000       0.23106304
Li       0.00000000       0.00000000       3.00181818       0.00000000       0.00000000      -0.23106304
2
Properties=species:S:1:pos:R:3:forces:R:3 energy=-1.3251928124669838 pbc="F F F"
Li       0.00000000       0.00000000       0.00000000       0.00000000       0.00000000       0.20265216
Li       0.00000000       0.00000000       3.06060606       0.00000000       0.00000000      -0.20265216
2
Properties=species:S:1:pos:R:3:forces:R:3 energy=-1.315174221889253 pbc="F F F"
Li       0.00000000       0.00000000       0.00000000       0.00000000       0.00000000       0.13218811
Li       0.00000000       0.00000000       3.11939394       0.00000000       0.00000000      -0.13218811
2
Properties=species:S:1:pos:R:3:forces:R:3 energy=-1.309886408947206 pbc="F F F"
Li       0.00000000       0.00000000       0.00000000       0.00000000       0.00000000       0.05143511
Li       0.00000000       0.00000000       3.17818182       0.00000000       0.00000000      -0.05143511
2
Properties=species:S:1:pos:R:3:forces:R:3 energy=-1.3079540304032342 pbc="F F F"
Li       0.00000000       0.00000000       0.00000000       0.00000000       0.00000000       0.02886245
Li       0.00000000       0.00000000       3.23696970       0.00000000       0.00000000      -0.02886245
2
Properties=species:S:1:pos:R:3:forces:R:3 energy=-1.3047675198285416 pbc="F F F"
Li       0.00000000       0.00000000       0.00000000       0.00000000       0.00000000       0.09136322
Li       0.00000000       0.00000000       3.29575758       0.00000000       0.00000000      -0.09136322
2
Properties=species:S:1:pos:R:3:forces:R:3 energy=-1.2964251649435559 pbc="F F F"
Li       0.00000000       0.00000000       0.00000000       0.00000000       0.00000000       0.19408196
Li       0.00000000       0.00000000       3.35454545       0.00000000       0.00000000      -0.19408196
2
Properties=species:S:1:pos:R:3:forces:R:3 energy=-1.2821796485078512 pbc="F F F"
Li       0.00000000       0.00000000       0.00000000       0.00000000       0.00000000       0.28630269
Li       0.00000000       0.00000000       3.41333333       0.00000000       0.00000000      -0.28630269
2
Properties=species:S:1:pos:R:3:forces:R:3 energy=-1.2633466488780571 pbc="F F F"
Li       0.00000000       0.00000000       0.00000000       0.00000000       0.00000000       0.34942013
Li       0.00000000       0.00000000       3.47212121       0.00000000       0.00000000      -0.34942013
2
Properties=species:S:1:pos:R:3:forces:R:3 energy=-1.2416198988317424 pbc="F F F"
Li       0.00000000       0.00000000       0.00000000       0.00000000       0.00000000       0.38596141
Li       0.00000000       0.00000000       3.53090909       0.00000000       0.00000000      -0.38596141
2
Properties=species:S:1:pos:R:3:forces:R:3 energy=-1.218329776583533 pbc="F F F"
Li       0.00000000       0.00000000       0.00000000       0.00000000       0.00000000       0.40392783
Li       0.00000000       0.00000000       3.58969697       0.00000000       0.00000000      -0.40392783
2
Properties=species:S:1:pos:R:3:forces:R:3 energy=-1.1943540369221939 pbc="F F F"
Li       0.00000000       0.00000000       0.00000000       0.00000000       0.00000000       0.41026512
Li       0.00000000       0.00000000       3.64848485       0.00000000       0.00000000      -0.41026512
2
Properties=species:S:1:pos:R:3:forces:R:3 energy=-1.1702273370267327 pbc="F F F"
Li       0.00000000       0.00000000       0.00000000       0.00000000       0.00000000       0.40967518
Li       0.00000000       0.00000000       3.70727273       0.00000000       0.00000000      -0.40967518
2
Properties=species:S:1:pos:R:3:forces:R:3 energy=-1.14626432388897 pbc="F F F"
Li       0.00000000       0.00000000       0.00000000       0.00000000       0.00000000       0.40504566
Li       0.00000000       0.00000000       3.76606061       0.00000000       0.00000000      -0.40504566
2
Properties=species:S:1:pos:R:3:forces:R:3 energy=-1.1226490065495651 pbc="F F F"
Li       0.00000000       0.00000000       0.00000000       0.00000000       0.00000000       0.39806893
Li       0.00000000       0.00000000       3.82484848       0.00000000       0.00000000      -0.39806893
2
Properties=species:S:1:pos:R:3:forces:R:3 energy=-1.0994880865828163 pbc="F F F"
Li       0.00000000       0.00000000       0.00000000       0.00000000       0.00000000       0.38970184
Li       0.00000000       0.00000000       3.88363636       0.00000000       0.00000000      -0.38970184
2
Properties=species:S:1:pos:R:3:forces:R:3 energy=-1.0768465220907182 pbc="F F F"
Li       0.00000000       0.00000000       0.00000000       0.00000000       0.00000000       0.38046151
Li       0.00000000       0.00000000       3.94242424       0.00000000       0.00000000      -0.38046151
2
Properties=species:S:1:pos:R:3:forces:R:3 energy=-1.054767326982844 pbc="F F F"
Li       0.00000000       0.00000000       0.00000000       0.00000000       0.00000000       0.37059632
Li       0.00000000       0.00000000       4.00121212       0.00000000       0.00000000      -0.37059632
2
Properties=species:S:1:pos:R:3:forces:R:3 energy=-1.0332841321186539 pbc="F F F"
Li       0.00000000       0.00000000       0.00000000       0.00000000       0.00000000       0.36018616
Li       0.00000000       0.00000000       4.06000000       0.00000000       0.00000000      -0.36018616
2
Properties=species:S:1:pos:R:3:forces:R:3 energy=-1.012429075416121 pbc="F F F"
Li       0.00000000       0.00000000       0.00000000       0.00000000       0.00000000       0.34922221
Li       0.00000000       0.00000000       4.11878788       0.00000000       0.00000000      -0.34922221
2
Properties=species:S:1:pos:R:3:forces:R:3 energy=-0.9922356218855114 pbc="F F F"
Li       0.00000000       0.00000000       0.00000000       0.00000000       0.00000000       0.33766514
Li       0.00000000       0.00000000       4.17757576       0.00000000       0.00000000      -0.33766514
2
Properties=species:S:1:pos:R:3:forces:R:3 energy=-0.9727394829698751 pbc="F F F"
Li       0.00000000       0.00000000       0.00000000       0.00000000       0.00000000       0.32550722
Li       0.00000000       0.00000000       4.23636364       0.00000000       0.00000000      -0.32550722
2
Properties=species:S:1:pos:R:3:forces:R:3 energy=-0.953973895530946 pbc="F F F"
Li       0.00000000       0.00000000       0.00000000       0.00000000       0.00000000       0.31282377
Li       0.00000000       0.00000000       4.29515152       0.00000000       0.00000000      -0.31282377
2
Properties=species:S:1:pos:R:3:forces:R:3 energy=-0.9359655541502313 pbc="F F F"
Li       0.00000000       0.00000000       0.00000000       0.00000000       0.00000000       0.29981542
Li       0.00000000       0.00000000       4.35393939       0.00000000       0.00000000      -0.29981542
2
Properties=species:S:1:pos:R:3:forces:R:3 energy=-0.9187232177223683 pbc="F F F"
Li       0.00000000       0.00000000       0.00000000       0.00000000       0.00000000       0.28681323
Li       0.00000000       0.00000000       4.41272727       0.00000000       0.00000000      -0.28681323
2
Properties=species:S:1:pos:R:3:forces:R:3 energy=-0.9022340834112939 pbc="F F F"
Li       0.00000000       0.00000000       0.00000000       0.00000000       0.00000000       0.27427423
Li       0.00000000       0.00000000       4.47151515       0.00000000       0.00000000      -0.27427423
2
Properties=species:S:1:pos:R:3:forces:R:3 energy=-0.8864555954713331 pbc="F F F"
Li       0.00000000       0.00000000       0.00000000       0.00000000       0.00000000       0.26273024
Li       0.00000000       0.00000000       4.53030303       0.00000000       0.00000000      -0.26273024
2
Properties=species:S:1:pos:R:3:forces:R:3 energy=-0.8713134261928737 pbc="F F F"
Li       0.00000000       0.00000000       0.00000000       0.00000000       0.00000000       0.25271684
Li       0.00000000       0.00000000       4.58909091       0.00000000       0.00000000      -0.25271684
2
Properties=species:S:1:pos:R:3:forces:R:3 energy=-0.8567035568972395 pbc="F F F"
Li       0.00000000       0.00000000       0.00000000       0.00000000       0.00000000       0.24468568
Li       0.00000000       0.00000000       4.64787879       0.00000000       0.00000000      -0.24468568
2
Properties=species:S:1:pos:R:3:forces:R:3 energy=-0.842500017621023 pbc="F F F"
Li       0.00000000       0.00000000       0.00000000       0.00000000       0.00000000       0.23889154
Li       0.00000000       0.00000000       4.70666667       0.00000000       0.00000000      -0.23889154
2
Properties=species:S:1:pos:R:3:forces:R:3 energy=-0.8285724512314171 pbc="F F F"
Li       0.00000000       0.00000000       0.00000000       0.00000000       0.00000000       0.23528492
Li       0.00000000       0.00000000       4.76545455       0.00000000       0.00000000      -0.23528492
2
Properties=species:S:1:pos:R:3:forces:R:3 energy=-0.8148017842801004 pbc="F F F"
Li       0.00000000       0.00000000       0.00000000       0.00000000       0.00000000       0.23339953
Li       0.00000000       0.00000000       4.82424242       0.00000000       0.00000000      -0.23339953
2
Properties=species:S:1:pos:R:3:forces:R:3 energy=-0.8011156218268484 pbc="F F F"
Li       0.00000000       0.00000000       0.00000000       0.00000000       0.00000000       0.23227355
Li       0.00000000       0.00000000       4.88303030       0.00000000       0.00000000      -0.23227355
2
Properties=species:S:1:pos:R:3:forces:R:3 energy=-0.7875055186993362 pbc="F F F"
Li       0.00000000       0.00000000       0.00000000       0.00000000       0.00000000       0.23047112
Li       0.00000000       0.00000000       4.94181818       0.00000000       0.00000000      -0.23047112
2
Properties=species:S:1:pos:R:3:forces:R:3 energy=-0.7740636450212235 pbc="F F F"
Li       0.00000000       0.00000000       0.00000000       0.00000000       0.00000000       0.22631556
Li       0.00000000       0.00000000       5.00060606       0.00000000       0.00000000      -0.22631556
2
Properties=species:S:1:pos:R:3:forces:R:3 energy=-0.7609671263657238 pbc="F F F"
Li       0.00000000       0.00000000       0.00000000       0.00000000       0.00000000       0.21857643
Li       0.00000000       0.00000000       5.05939394       0.00000000       0.00000000      -0.21857643
2
Properties=species:S:1:pos:R:3:forces:R:3 energy=-0.7484258643488484 pbc="F F F"
Li       0.00000000       0.00000000       0.00000000       0.00000000       0.00000000       0.20780355
Li       0.00000000       0.00000000       5.11818182       0.00000000       0.00000000      -0.20780355
2
Properties=species:S:1:pos:R:3:forces:R:3 energy=-0.7365241452495176 pbc="F F F"
Li       0.00000000       0.00000000       0.00000000       0.00000000       0.00000000       0.19768417
Li       0.00000000       0.00000000       5.17696970       0.00000000       0.00000000      -0.19768417
2
Properties=species:S:1:pos:R:3:forces:R:3 energy=-0.725056469562974 pbc="F F F"
Li       0.00000000       0.00000000       0.00000000       0.00000000       0.00000000       0.19390753
Li       0.00000000       0.00000000       5.23575758       0.00000000       0.00000000      -0.19390753
2
Properties=species:S:1:pos:R:3:forces:R:3 energy=-0.713564496793101 pbc="F F F"
Li       0.00000000       0.00000000       0.00000000       0.00000000       0.00000000       0.19795842
Li       0.00000000       0.00000000       5.29454545       0.00000000       0.00000000      -0.19795842
2
Properties=species:S:1:pos:R:3:forces:R:3 energy=-0.7017890474006977 pbc="F F F"
Li       0.00000000       0.00000000       0.00000000       0.00000000       0.00000000       0.20145127
Li       0.00000000       0.00000000       5.35333333       0.00000000       0.00000000      -0.20145127
2
Properties=species:S:1:pos:R:3:forces:R:3 energy=-0.6901208325432941 pbc="F F F"
Li       0.00000000       0.00000000       0.00000000       0.00000000       0.00000000       0.19306445
Li       0.00000000       0.00000000       5.41212121       0.00000000       0.00000000      -0.19306445
2
Properties=species:S:1:pos:R:3:forces:R:3 energy=-0.6793310111544733 pbc="F F F"
Li       0.00000000       0.00000000       0.00000000       0.00000000       0.00000000       0.17284848
Li       0.00000000       0.00000000       5.47090909       0.00000000       0.00000000      -0.17284848
2
Properties=species:S:1:pos:R:3:forces:R:3 energy=-0.6697652677903243 pbc="F F F"
Li       0.00000000       0.00000000       0.00000000       0.00000000       0.00000000       0.15426761
Li       0.00000000       0.00000000       5.52969697       0.00000000       0.00000000      -0.15426761
2
Properties=species:S:1:pos:R:3:forces:R:3 energy=-0.6608698840115216 pbc="F F F"
Li       0.00000000       0.00000000       0.00000000       0.00000000       0.00000000       0.15160953
Li       0.00000000       0.00000000       5.58848485       0.00000000       0.00000000      -0.15160953
2
Properties=species:S:1:pos:R:3:forces:R:3 energy=-0.6516352977267856 pbc="F F F"
Li       0.00000000       0.00000000       0.00000000       0.00000000       0.00000000       0.16399443
Li       0.00000000       0.00000000       5.64727273       0.00000000       0.00000000      -0.16399443
2
Properties=species:S:1:pos:R:3:forces:R:3 energy=-0.6416756034983866 pbc="F F F"
Li       0.00000000       0.00000000       0.00000000       0.00000000       0.00000000       0.17197131
Li       0.00000000       0.00000000       5.70606061       0.00000000       0.00000000      -0.17197131
2
Properties=species:S:1:pos:R:3:forces:R:3 energy=-0.6318762726331373 pbc="F F F"
Li       0.00000000       0.00000000       0.00000000       0.00000000       0.00000000       0.15618409
Li       0.00000000       0.00000000       5.76484848       0.00000000       0.00000000      -0.15618409
2
Properties=species:S:1:pos:R:3:forces:R:3 energy=-0.6237793982117588 pbc="F F F"
Li       0.00000000       0.00000000       0.00000000       0.00000000       0.00000000       0.11653780
Li       0.00000000       0.00000000       5.82363636       0.00000000       0.00000000      -0.11653780
2
Properties=species:S:1:pos:R:3:forces:R:3 energy=-0.6183431204424805 pbc="F F F"
Li       0.00000000       0.00000000       0.00000000       0.00000000       0.00000000       0.06941511
Li       0.00000000       0.00000000       5.88242424       0.00000000       0.00000000      -0.06941511
2
Properties=species:S:1:pos:R:3:forces:R:3 energy=-0.6154088577553238 pbc="F F F"
Li       0.00000000       0.00000000       0.00000000       0.00000000       0.00000000       0.03308244
Li       0.00000000       0.00000000       5.94121212       0.00000000       0.00000000      -0.03308244
2
Properties=species:S:1:pos:R:3:forces:R:3 energy=-0.6140097802617062 pbc="F F F"
Li       0.00000000       0.00000000       0.00000000       0.00000000       0.00000000       0.01887134
Li       0.00000000       0.00000000       6.00000000       0.00000000       0.00000000      -0.01887134
