2
Properties=species:S:1:pos:R:3:forces:R:3 energy=13991.375342720694 pbc="F F F"
Lu       0.00000000       0.00000000       0.00000000       0.00000000       0.00000000 -244138.45312500
Lu       0.00000000       0.00000000       0.18000000       0.00000000       0.00000000  244138.45312500
2
Properties=species:S:1:pos:R:3:forces:R:3 energy=5448.109229439443 pbc="F F F"
Lu       0.00000000       0.00000000       0.00000000       0.00000000       0.00000000  -80997.43750000
Lu       0.00000000       0.00000000       0.23878788       0.00000000       0.00000000   80997.43750000
2
Properties=species:S:1:pos:R:3:forces:R:3 energy=2393.4256356894434 pbc="F F F"
Lu       0.00000000       0.00000000       0.00000000       0.00000000       0.00000000  -31620.11328125
Lu       0.00000000       0.00000000       0.29757576       0.00000000       0.00000000   31620.11328125
2
Properties=species:S:1:pos:R:3:forces:R:3 energy=1144.1813730004665 pbc="F F F"
Lu       0.00000000       0.00000000       0.00000000       0.00000000       0.00000000  -13656.24218750
Lu       0.00000000       0.00000000       0.35636364       0.00000000       0.00000000   13656.24218750
2
Properties=species:S:1:pos:R:3:forces:R:3 energy=586.6094125512477 pbc="F F F"
Lu       0.00000000       0.00000000       0.00000000       0.00000000       0.00000000   -6339.32373047
Lu       0.00000000       0.00000000       0.41515152       0.00000000       0.00000000    6339.32373047
2
Properties=species:S:1:pos:R:3:forces:R:3 energy=320.8873056303253 pbc="F F F"
Lu       0.00000000       0.00000000       0.00000000       0.00000000       0.00000000   -3118.19140625
Lu       0.00000000       0.00000000       0.47393939       0.00000000       0.00000000    3118.19140625
2
Properties=species:S:1:pos:R:3:forces:R:3 energy=187.2283548373325 pbc="F F F"
Lu       0.00000000       0.00000000       0.00000000       0.00000000       0.00000000   -1610.71887207
Lu       0.00000000       0.00000000       0.53272727       0.00000000       0.00000000    1610.71887207
2
Properties=species:S:1:pos:R:3:forces:R:3 energy=116.86383765709665 pbc="F F F"
Lu       0.00000000       0.00000000       0.00000000       0.00000000       0.00000000    -866.78662109
Lu       0.00000000       0.00000000       0.59151515       0.00000000       0.00000000     866.78662109
2
Properties=species:S:1:pos:R:3:forces:R:3 energy=78.41316174342633 pbc="F F F"
Lu       0.00000000       0.00000000       0.00000000       0.00000000       0.00000000    -481.86361694
Lu       0.00000000       0.00000000       0.65030303       0.00000000       0.00000000     481.86361694
2
Properties=species:S:1:pos:R:3:forces:R:3 energy=56.784102975227796 pbc="F F F"
Lu       0.00000000       0.00000000       0.00000000       0.00000000       0.00000000    -274.62017822
Lu       0.00000000       0.00000000       0.70909091       0.00000000       0.00000000     274.62017822
2
Properties=species:S:1:pos:R:3:forces:R:3 energy=44.34505432217955 pbc="F F F"
Lu       0.00000000       0.00000000       0.00000000       0.00000000       0.00000000    -159.47381592
Lu       0.00000000       0.00000000       0.76787879       0.00000000       0.00000000     159.47381592
2
Properties=species:S:1:pos:R:3:forces:R:3 energy=37.09194933600337 pbc="F F F"
Lu       0.00000000       0.00000000       0.00000000       0.00000000       0.00000000     -93.01850128
Lu       0.00000000       0.00000000       0.82666667       0.00000000       0.00000000      93.01850128
2
Properties=species:S:1:pos:R:3:forces:R:3 energy=32.91264355282006 pbc="F F F"
Lu       0.00000000       0.00000000       0.00000000       0.00000000       0.00000000     -52.27674866
Lu       0.00000000       0.00000000       0.88545455       0.00000000       0.00000000      52.27674866
2
Properties=species:S:1:pos:R:3:forces:R:3 energy=30.65277909415159 pbc="F F F"
Lu       0.00000000       0.00000000       0.00000000       0.00000000       0.00000000     -26.67122650
Lu       0.00000000       0.00000000       0.94424242       0.00000000       0.00000000      26.67122650
2
Properties=species:S:1:pos:R:3:forces:R:3 energy=29.56731509178585 pbc="F F F"
Lu       0.00000000       0.00000000       0.00000000       0.00000000       0.00000000     -11.78645611
Lu       0.00000000       0.00000000       1.00303030       0.00000000       0.00000000      11.78645611
2
Properties=species:S:1:pos:R:3:forces:R:3 energy=29.112558041256236 pbc="F F F"
Lu       0.00000000       0.00000000       0.00000000       0.00000000       0.00000000      -4.80999231
Lu       0.00000000       0.00000000       1.06181818       0.00000000       0.00000000       4.80999231
2
Properties=species:S:1:pos:R:3:forces:R:3 energy=28.88702637116558 pbc="F F F"
Lu       0.00000000       0.00000000       0.00000000       0.00000000       0.00000000      -3.70587635
Lu       0.00000000       0.00000000       1.12060606       0.00000000       0.00000000       3.70587635
2
Properties=species:S:1:pos:R:3:forces:R:3 energy=28.5918862661462 pbc="F F F"
Lu       0.00000000       0.00000000       0.00000000       0.00000000       0.00000000      -6.93935108
Lu       0.00000000       0.00000000       1.17939394       0.00000000       0.00000000       6.93935108
2
Properties=species:S:1:pos:R:3:forces:R:3 energy=28.01346897898365 pbc="F F F"
Lu       0.00000000       0.00000000       0.00000000       0.00000000       0.00000000     -13.11960030
Lu       0.00000000       0.00000000       1.23818182       0.00000000       0.00000000      13.11960030
2
Properties=species:S:1:pos:R:3:forces:R:3 energy=27.016789615612876 pbc="F F F"
Lu       0.00000000       0.00000000       0.00000000       0.00000000       0.00000000     -20.96431923
Lu       0.00000000       0.00000000       1.29696970       0.00000000       0.00000000      20.96431923
2
Properties=species:S:1:pos:R:3:forces:R:3 energy=25.538789398912204 pbc="F F F"
Lu       0.00000000       0.00000000       0.00000000       0.00000000       0.00000000     -29.31361008
Lu       0.00000000       0.00000000       1.35575758       0.00000000       0.00000000      29.31361008
2
Properties=species:S:1:pos:R:3:forces:R:3 energy=23.579724027640026 pbc="F F F"
Lu       0.00000000       0.00000000       0.00000000       0.00000000       0.00000000     -37.18433762
Lu       0.00000000       0.00000000       1.41454545       0.00000000       0.00000000      37.18433762
2
Properties=species:S:1:pos:R:3:forces:R:3 energy=21.192806735344774 pbc="F F F"
Lu       0.00000000       0.00000000       0.00000000       0.00000000       0.00000000     -43.72360229
Lu       0.00000000       0.00000000       1.47333333       0.00000000       0.00000000      43.72360229
2
Properties=species:S:1:pos:R:3:forces:R:3 energy=18.483952724655055 pbc="F F F"
Lu       0.00000000       0.00000000       0.00000000       0.00000000       0.00000000     -47.95611572
Lu       0.00000000       0.00000000       1.53212121       0.00000000       0.00000000      47.95611572
2
Properties=species:S:1:pos:R:3:forces:R:3 energy=15.620009389301531 pbc="F F F"
Lu       0.00000000       0.00000000       0.00000000       0.00000000       0.00000000     -48.86699295
Lu       0.00000000       0.00000000       1.59090909       0.00000000       0.00000000      48.86699295
2
Properties=species:S:1:pos:R:3:forces:R:3 energy=12.807838389982631 pbc="F F F"
Lu       0.00000000       0.00000000       0.00000000       0.00000000       0.00000000     -46.28966522
Lu       0.00000000       0.00000000       1.64969697       0.00000000       0.00000000      46.28966522
2
Properties=species:S:1:pos:R:3:forces:R:3 energy=10.222177859736826 pbc="F F F"
Lu       0.00000000       0.00000000       0.00000000       0.00000000       0.00000000     -41.43938446
Lu       0.00000000       0.00000000       1.70848485       0.00000000       0.00000000      41.43938446
2
Properties=species:S:1:pos:R:3:forces:R:3 energy=7.9496817423945725 pbc="F F F"
Lu       0.00000000       0.00000000       0.00000000       0.00000000       0.00000000     -35.83751678
Lu       0.00000000       0.00000000       1.76727273       0.00000000       0.00000000      35.83751678
2
Properties=species:S:1:pos:R:3:forces:R:3 energy=6.0070391150815965 pbc="F F F"
Lu       0.00000000       0.00000000       0.00000000       0.00000000       0.00000000     -30.29776573
Lu       0.00000000       0.00000000       1.82606061       0.00000000       0.00000000      30.29776573
2
Properties=species:S:1:pos:R:3:forces:R:3 energy=4.379489781341001 pbc="F F F"
Lu       0.00000000       0.00000000       0.00000000       0.00000000       0.00000000     -25.15938950
Lu       0.00000000       0.00000000       1.88484848       0.00000000       0.00000000      25.15938950
2
Properties=species:S:1:pos:R:3:forces:R:3 energy=3.036849061076559 pbc="F F F"
Lu       0.00000000       0.00000000       0.00000000       0.00000000       0.00000000     -20.63246727
Lu       0.00000000       0.00000000       1.94363636       0.00000000       0.00000000      20.63246727
2
Properties=species:S:1:pos:R:3:forces:R:3 energy=1.939613766391235 pbc="F F F"
Lu       0.00000000       0.00000000       0.00000000       0.00000000       0.00000000     -16.81550598
Lu       0.00000000       0.00000000       2.00242424       0.00000000       0.00000000      16.81550598
2
Properties=species:S:1:pos:R:3:forces:R:3 energy=1.0463536912224043 pbc="F F F"
Lu       0.00000000       0.00000000       0.00000000       0.00000000       0.00000000     -13.68019676
Lu       0.00000000       0.00000000       2.06121212       0.00000000       0.00000000      13.68019676
2
Properties=species:S:1:pos:R:3:forces:R:3 energy=0.3197329422491516 pbc="F F F"
Lu       0.00000000       0.00000000       0.00000000       0.00000000       0.00000000     -11.12767982
Lu       0.00000000       0.00000000       2.12000000       0.00000000       0.00000000      11.12767982
2
Properties=species:S:1:pos:R:3:forces:R:3 energy=-0.2712850424191634 pbc="F F F"
Lu       0.00000000       0.00000000       0.00000000       0.00000000       0.00000000      -9.04947567
Lu       0.00000000       0.00000000       2.17878788       0.00000000       0.00000000       9.04947567
2
Properties=species:S:1:pos:R:3:forces:R:3 energy=-0.7515608513909136 pbc="F F F"
Lu       0.00000000       0.00000000       0.00000000       0.00000000       0.00000000      -7.34332705
Lu       0.00000000       0.00000000       2.23757576       0.00000000       0.00000000       7.34332705
2
Properties=species:S:1:pos:R:3:forces:R:3 energy=-1.1400100959171313 pbc="F F F"
Lu       0.00000000       0.00000000       0.00000000       0.00000000       0.00000000      -5.90944338
Lu       0.00000000       0.00000000       2.29636364       0.00000000       0.00000000       5.90944338
2
Properties=species:S:1:pos:R:3:forces:R:3 energy=-1.4499942438829465 pbc="F F F"
Lu       0.00000000       0.00000000       0.00000000       0.00000000       0.00000000      -4.66192532
Lu       0.00000000       0.00000000       2.35515152       0.00000000       0.00000000       4.66192532
2
Properties=species:S:1:pos:R:3:forces:R:3 energy=-1.6907376561727294 pbc="F F F"
Lu       0.00000000       0.00000000       0.00000000       0.00000000       0.00000000      -3.54857540
Lu       0.00000000       0.00000000       2.41393939       0.00000000       0.00000000       3.54857540
2
Properties=species:S:1:pos:R:3:forces:R:3 energy=-1.8696581479956904 pbc="F F F"
Lu       0.00000000       0.00000000       0.00000000       0.00000000       0.00000000      -2.56083250
Lu       0.00000000       0.00000000       2.47272727       0.00000000       0.00000000       2.56083250
2
Properties=species:S:1:pos:R:3:forces:R:3 energy=-1.9948118306144966 pbc="F F F"
Lu       0.00000000       0.00000000       0.00000000       0.00000000       0.00000000      -1.72563446
Lu       0.00000000       0.00000000       2.53151515       0.00000000       0.00000000       1.72563446
2
Properties=species:S:1:pos:R:3:forces:R:3 energy=-2.076275776713214 pbc="F F F"
Lu       0.00000000       0.00000000       0.00000000       0.00000000       0.00000000      -1.07972479
Lu       0.00000000       0.00000000       2.59030303       0.00000000       0.00000000       1.07972479
2
Properties=species:S:1:pos:R:3:forces:R:3 energy=-2.12578388436698 pbc="F F F"
Lu       0.00000000       0.00000000       0.00000000       0.00000000       0.00000000      -0.63772845
Lu       0.00000000       0.00000000       2.64909091       0.00000000       0.00000000       0.63772845
2
Properties=species:S:1:pos:R:3:forces:R:3 energy=-2.1547959578160323 pbc="F F F"
Lu       0.00000000       0.00000000       0.00000000       0.00000000       0.00000000      -0.37521955
Lu       0.00000000       0.00000000       2.70787879       0.00000000       0.00000000       0.37521955
2
Properties=species:S:1:pos:R:3:forces:R:3 energy=-2.172343425709085 pbc="F F F"
Lu       0.00000000       0.00000000       0.00000000       0.00000000       0.00000000      -0.23716721
Lu       0.00000000       0.00000000       2.76666667       0.00000000       0.00000000       0.23716721
2
Properties=species:S:1:pos:R:3:forces:R:3 energy=-2.1838945878760914 pbc="F F F"
Lu       0.00000000       0.00000000       0.00000000       0.00000000       0.00000000      -0.16157514
Lu       0.00000000       0.00000000       2.82545455       0.00000000       0.00000000       0.16157514
2
Properties=species:S:1:pos:R:3:forces:R:3 energy=-2.1916011453067306 pbc="F F F"
Lu       0.00000000       0.00000000       0.00000000       0.00000000       0.00000000      -0.10000406
Lu       0.00000000       0.00000000       2.88424242       0.00000000       0.00000000       0.10000406
2
Properties=species:S:1:pos:R:3:forces:R:3 energy=-2.1953839606955365 pbc="F F F"
Lu       0.00000000       0.00000000       0.00000000       0.00000000       0.00000000      -0.02534788
Lu       0.00000000       0.00000000       2.94303030       0.00000000       0.00000000       0.02534788
2
Properties=species:S:1:pos:R:3:forces:R:3 energy=-2.194149016201992 pbc="F F F"
Lu       0.00000000       0.00000000       0.00000000       0.00000000       0.00000000       0.07096408
Lu       0.00000000       0.00000000       3.00181818       0.00000000       0.00000000      -0.07096408
2
Properties=species:S:1:pos:R:3:forces:R:3 energy=-2.186682983325721 pbc="F F F"
Lu       0.00000000       0.00000000       0.00000000       0.00000000       0.00000000       0.18530744
Lu       0.00000000       0.00000000       3.06060606       0.00000000       0.00000000      -0.18530744
2
Properties=species:S:1:pos:R:3:forces:R:3 energy=-2.1722162432133425 pbc="F F F"
Lu       0.00000000       0.00000000       0.00000000       0.00000000       0.00000000       0.30695340
Lu       0.00000000       0.00000000       3.11939394       0.00000000       0.00000000      -0.30695340
2
Properties=species:S:1:pos:R:3:forces:R:3 energy=-2.1507324633439358 pbc="F F F"
Lu       0.00000000       0.00000000       0.00000000       0.00000000       0.00000000       0.42142591
Lu       0.00000000       0.00000000       3.17818182       0.00000000       0.00000000      -0.42142591
2
Properties=species:S:1:pos:R:3:forces:R:3 energy=-2.1231019922281633 pbc="F F F"
Lu       0.00000000       0.00000000       0.00000000       0.00000000       0.00000000       0.51379126
Lu       0.00000000       0.00000000       3.23696970       0.00000000       0.00000000      -0.51379126
2
Properties=species:S:1:pos:R:3:forces:R:3 energy=-2.0909814781787555 pbc="F F F"
Lu       0.00000000       0.00000000       0.00000000       0.00000000       0.00000000       0.57280034
Lu       0.00000000       0.00000000       3.29575758       0.00000000       0.00000000      -0.57280034
2
Properties=species:S:1:pos:R:3:forces:R:3 energy=-2.056488466635972 pbc="F F F"
Lu       0.00000000       0.00000000       0.00000000       0.00000000       0.00000000       0.59464824
Lu       0.00000000       0.00000000       3.35454545       0.00000000       0.00000000      -0.59464824
2
Properties=species:S:1:pos:R:3:forces:R:3 energy=-2.021704862294285 pbc="F F F"
Lu       0.00000000       0.00000000       0.00000000       0.00000000       0.00000000       0.58411199
Lu       0.00000000       0.00000000       3.41333333       0.00000000       0.00000000      -0.58411199
2
Properties=species:S:1:pos:R:3:forces:R:3 energy=-1.9882354332508454 pbc="F F F"
Lu       0.00000000       0.00000000       0.00000000       0.00000000       0.00000000       0.55196202
Lu       0.00000000       0.00000000       3.47212121       0.00000000       0.00000000      -0.55196202
2
Properties=species:S:1:pos:R:3:forces:R:3 energy=-1.9569886438066342 pbc="F F F"
Lu       0.00000000       0.00000000       0.00000000       0.00000000       0.00000000       0.51047438
Lu       0.00000000       0.00000000       3.53090909       0.00000000       0.00000000      -0.51047438
2
Properties=species:S:1:pos:R:3:forces:R:3 energy=-1.9281913892370681 pbc="F F F"
Lu       0.00000000       0.00000000       0.00000000       0.00000000       0.00000000       0.47016644
Lu       0.00000000       0.00000000       3.58969697       0.00000000       0.00000000      -0.47016644
2
Properties=species:S:1:pos:R:3:forces:R:3 energy=-1.9015285201779761 pbc="F F F"
Lu       0.00000000       0.00000000       0.00000000       0.00000000       0.00000000       0.43897057
Lu       0.00000000       0.00000000       3.64848485       0.00000000       0.00000000      -0.43897057
2
Properties=species:S:1:pos:R:3:forces:R:3 energy=-1.8762877757791168 pbc="F F F"
Lu       0.00000000       0.00000000       0.00000000       0.00000000       0.00000000       0.42256358
Lu       0.00000000       0.00000000       3.70727273       0.00000000       0.00000000      -0.42256358
2
Properties=species:S:1:pos:R:3:forces:R:3 energy=-1.8514843574117583 pbc="F F F"
Lu       0.00000000       0.00000000       0.00000000       0.00000000       0.00000000       0.42447823
Lu       0.00000000       0.00000000       3.76606061       0.00000000       0.00000000      -0.42447823
2
Properties=species:S:1:pos:R:3:forces:R:3 energy=-1.8259961448492028 pbc="F F F"
Lu       0.00000000       0.00000000       0.00000000       0.00000000       0.00000000       0.44588983
Lu       0.00000000       0.00000000       3.82484848       0.00000000       0.00000000      -0.44588983
2
Properties=species:S:1:pos:R:3:forces:R:3 energy=-1.7986971219720624 pbc="F F F"
Lu       0.00000000       0.00000000       0.00000000       0.00000000       0.00000000       0.48569298
Lu       0.00000000       0.00000000       3.88363636       0.00000000       0.00000000      -0.48569298
2
Properties=species:S:1:pos:R:3:forces:R:3 energy=-1.7685856281248369 pbc="F F F"
Lu       0.00000000       0.00000000       0.00000000       0.00000000       0.00000000       0.54098785
Lu       0.00000000       0.00000000       3.94242424       0.00000000       0.00000000      -0.54098785
2
Properties=species:S:1:pos:R:3:forces:R:3 energy=-1.7348680557084646 pbc="F F F"
Lu       0.00000000       0.00000000       0.00000000       0.00000000       0.00000000       0.60760731
Lu       0.00000000       0.00000000       4.00121212       0.00000000       0.00000000      -0.60760731
2
Properties=species:S:1:pos:R:3:forces:R:3 energy=-1.697024121018151 pbc="F F F"
Lu       0.00000000       0.00000000       0.00000000       0.00000000       0.00000000       0.68040323
Lu       0.00000000       0.00000000       4.06000000       0.00000000       0.00000000      -0.68040323
2
Properties=species:S:1:pos:R:3:forces:R:3 energy=-1.6548650637192468 pbc="F F F"
Lu       0.00000000       0.00000000       0.00000000       0.00000000       0.00000000       0.75339162
Lu       0.00000000       0.00000000       4.11878788       0.00000000       0.00000000      -0.75339162
2
Properties=species:S:1:pos:R:3:forces:R:3 energy=-1.608568111003216 pbc="F F F"
Lu       0.00000000       0.00000000       0.00000000       0.00000000       0.00000000       0.82000965
Lu       0.00000000       0.00000000       4.17757576       0.00000000       0.00000000      -0.82000965
2
Properties=species:S:1:pos:R:3:forces:R:3 energy=-1.5587069899980692 pbc="F F F"
Lu       0.00000000       0.00000000       0.00000000       0.00000000       0.00000000       0.87357956
Lu       0.00000000       0.00000000       4.23636364       0.00000000       0.00000000      -0.87357956
2
Properties=species:S:1:pos:R:3:forces:R:3 energy=-1.5062317813984294 pbc="F F F"
Lu       0.00000000       0.00000000       0.00000000       0.00000000       0.00000000       0.90799564
Lu       0.00000000       0.00000000       4.29515152       0.00000000       0.00000000      -0.90799564
2
Properties=species:S:1:pos:R:3:forces:R:3 energy=-1.4524187893754292 pbc="F F F"
Lu       0.00000000       0.00000000       0.00000000       0.00000000       0.00000000       0.91852683
Lu       0.00000000       0.00000000       4.35393939       0.00000000       0.00000000      -0.91852683
2
Properties=species:S:1:pos:R:3:forces:R:3 energy=-1.3987570479974152 pbc="F F F"
Lu       0.00000000       0.00000000       0.00000000       0.00000000       0.00000000       0.90259415
Lu       0.00000000       0.00000000       4.41272727       0.00000000       0.00000000      -0.90259415
2
Properties=species:S:1:pos:R:3:forces:R:3 energy=-1.3468107612134022 pbc="F F F"
Lu       0.00000000       0.00000000       0.00000000       0.00000000       0.00000000       0.86045223
Lu       0.00000000       0.00000000       4.47151515       0.00000000       0.00000000      -0.86045223
2
Properties=species:S:1:pos:R:3:forces:R:3 energy=-1.2980353934295654 pbc="F F F"
Lu       0.00000000       0.00000000       0.00000000       0.00000000       0.00000000       0.79557014
Lu       0.00000000       0.00000000       4.53030303       0.00000000       0.00000000      -0.79557014
2
Properties=species:S:1:pos:R:3:forces:R:3 energy=-1.253588949700546 pbc="F F F"
Lu       0.00000000       0.00000000       0.00000000       0.00000000       0.00000000       0.71455669
Lu       0.00000000       0.00000000       4.58909091       0.00000000       0.00000000      -0.71455669
2
Properties=species:S:1:pos:R:3:forces:R:3 energy=-1.2141622026941965 pbc="F F F"
Lu       0.00000000       0.00000000       0.00000000       0.00000000       0.00000000       0.62642694
Lu       0.00000000       0.00000000       4.64787879       0.00000000       0.00000000      -0.62642694
2
Properties=species:S:1:pos:R:3:forces:R:3 energy=-1.179878769964362 pbc="F F F"
Lu       0.00000000       0.00000000       0.00000000       0.00000000       0.00000000       0.54118282
Lu       0.00000000       0.00000000       4.70666667       0.00000000       0.00000000      -0.54118282
2
Properties=species:S:1:pos:R:3:forces:R:3 energy=-1.1502948882035873 pbc="F F F"
Lu       0.00000000       0.00000000       0.00000000       0.00000000       0.00000000       0.46793935
Lu       0.00000000       0.00000000       4.76545455       0.00000000       0.00000000      -0.46793935
2
Properties=species:S:1:pos:R:3:forces:R:3 energy=-1.1244996429130543 pbc="F F F"
Lu       0.00000000       0.00000000       0.00000000       0.00000000       0.00000000       0.41291633
Lu       0.00000000       0.00000000       4.82424242       0.00000000       0.00000000      -0.41291633
2
Properties=species:S:1:pos:R:3:forces:R:3 energy=-1.1013503877425097 pbc="F F F"
Lu       0.00000000       0.00000000       0.00000000       0.00000000       0.00000000       0.37795267
Lu       0.00000000       0.00000000       4.88303030       0.00000000       0.00000000      -0.37795267
2
Properties=species:S:1:pos:R:3:forces:R:3 energy=-1.079726169600611 pbc="F F F"
Lu       0.00000000       0.00000000       0.00000000       0.00000000       0.00000000       0.36003134
Lu       0.00000000       0.00000000       4.94181818       0.00000000       0.00000000      -0.36003134
2
Properties=species:S:1:pos:R:3:forces:R:3 energy=-1.0588121810267273 pbc="F F F"
Lu       0.00000000       0.00000000       0.00000000       0.00000000       0.00000000       0.35262862
Lu       0.00000000       0.00000000       5.00060606       0.00000000       0.00000000      -0.35262862
2
Properties=species:S:1:pos:R:3:forces:R:3 energy=-1.0381863809949312 pbc="F F F"
Lu       0.00000000       0.00000000       0.00000000       0.00000000       0.00000000       0.34941906
Lu       0.00000000       0.00000000       5.05939394       0.00000000       0.00000000      -0.34941906
2
Properties=species:S:1:pos:R:3:forces:R:3 energy=-1.017661484416595 pbc="F F F"
Lu       0.00000000       0.00000000       0.00000000       0.00000000       0.00000000       0.35000646
Lu       0.00000000       0.00000000       5.11818182       0.00000000       0.00000000      -0.35000646
2
Properties=species:S:1:pos:R:3:forces:R:3 energy=-0.9967866546387791 pbc="F F F"
Lu       0.00000000       0.00000000       0.00000000       0.00000000       0.00000000       0.36340699
Lu       0.00000000       0.00000000       5.17696970       0.00000000       0.00000000      -0.36340699
2
Properties=species:S:1:pos:R:3:forces:R:3 energy=-0.9744625760642968 pbc="F F F"
Lu       0.00000000       0.00000000       0.00000000       0.00000000       0.00000000       0.40022254
Lu       0.00000000       0.00000000       5.23575758       0.00000000       0.00000000      -0.40022254
2
Properties=species:S:1:pos:R:3:forces:R:3 energy=-0.9494076767633963 pbc="F F F"
Lu       0.00000000       0.00000000       0.00000000       0.00000000       0.00000000       0.45250410
Lu       0.00000000       0.00000000       5.29454545       0.00000000       0.00000000      -0.45250410
2
Properties=species:S:1:pos:R:3:forces:R:3 energy=-0.9215950588270502 pbc="F F F"
Lu       0.00000000       0.00000000       0.00000000       0.00000000       0.00000000       0.48781344
Lu       0.00000000       0.00000000       5.35333333       0.00000000       0.00000000      -0.48781344
2
Properties=species:S:1:pos:R:3:forces:R:3 energy=-0.8929153541179051 pbc="F F F"
Lu       0.00000000       0.00000000       0.00000000       0.00000000       0.00000000       0.48072693
Lu       0.00000000       0.00000000       5.41212121       0.00000000       0.00000000      -0.48072693
2
Properties=species:S:1:pos:R:3:forces:R:3 energy=-0.8656389105958371 pbc="F F F"
Lu       0.00000000       0.00000000       0.00000000       0.00000000       0.00000000       0.44592214
Lu       0.00000000       0.00000000       5.47090909       0.00000000       0.00000000      -0.44592214
2
Properties=species:S:1:pos:R:3:forces:R:3 energy=-0.8401111666403975 pbc="F F F"
Lu       0.00000000       0.00000000       0.00000000       0.00000000       0.00000000       0.42969659
Lu       0.00000000       0.00000000       5.52969697       0.00000000       0.00000000      -0.42969659
2
Properties=species:S:1:pos:R:3:forces:R:3 energy=-0.8140141705088493 pbc="F F F"
Lu       0.00000000       0.00000000       0.00000000       0.00000000       0.00000000       0.46764514
Lu       0.00000000       0.00000000       5.58848485       0.00000000       0.00000000      -0.46764514
2
Properties=species:S:1:pos:R:3:forces:R:3 energy=-0.7844646759195737 pbc="F F F"
Lu       0.00000000       0.00000000       0.00000000       0.00000000       0.00000000       0.53821069
Lu       0.00000000       0.00000000       5.64727273       0.00000000       0.00000000      -0.53821069
2
Properties=species:S:1:pos:R:3:forces:R:3 energy=-0.7515725672715836 pbc="F F F"
Lu       0.00000000       0.00000000       0.00000000       0.00000000       0.00000000       0.56690073
Lu       0.00000000       0.00000000       5.70606061       0.00000000       0.00000000      -0.56690073
2
Properties=species:S:1:pos:R:3:forces:R:3 energy=-0.7196813172495222 pbc="F F F"
Lu       0.00000000       0.00000000       0.00000000       0.00000000       0.00000000       0.49926999
Lu       0.00000000       0.00000000       5.76484848       0.00000000       0.00000000      -0.49926999
2
Properties=species:S:1:pos:R:3:forces:R:3 energy=-0.6944112103045351 pbc="F F F"
Lu       0.00000000       0.00000000       0.00000000       0.00000000       0.00000000       0.35258144
Lu       0.00000000       0.00000000       5.82363636       0.00000000       0.00000000      -0.35258144
2
Properties=species:S:1:pos:R:3:forces:R:3 energy=-0.6786184515133908 pbc="F F F"
Lu       0.00000000       0.00000000       0.00000000       0.00000000       0.00000000       0.18943773
Lu       0.00000000       0.00000000       5.88242424       0.00000000       0.00000000      -0.18943773
2
Properties=species:S:1:pos:R:3:forces:R:3 energy=-0.6713237209875955 pbc="F F F"
Lu       0.00000000       0.00000000       0.00000000       0.00000000       0.00000000       0.06821674
Lu       0.00000000       0.00000000       5.94121212       0.00000000       0.00000000      -0.06821674
2
Properties=species:S:1:pos:R:3:forces:R:3 energy=-0.6690739320982 pbc="F F F"
Lu       0.00000000       0.00000000       0.00000000       0.00000000       0.00000000       0.02315903
Lu       0.00000000       0.00000000       6.00000000       0.00000000       0.00000000      -0.02315903
