2
Properties=species:S:1:pos:R:3:forces:R:3 energy=3552.068206524692 pbc="F F F"
Na       0.00000000       0.00000000       0.00000000       0.00000000       0.00000000  -72176.84375000
Na       0.00000000       0.00000000       0.10000000       0.00000000       0.00000000   72176.84375000
2
Properties=species:S:1:pos:R:3:forces:R:3 energy=1257.5848080871917 pbc="F F F"
Na       0.00000000       0.00000000       0.00000000       0.00000000       0.00000000  -19096.68750000
Na       0.00000000       0.00000000       0.15959596       0.00000000       0.00000000   19096.68750000
2
Properties=species:S:1:pos:R:3:forces:R:3 energy=555.9067075012543 pbc="F F F"
Na       0.00000000       0.00000000       0.00000000       0.00000000       0.00000000   -6915.07324219
Na       0.00000000       0.00000000       0.21919192       0.00000000       0.00000000    6915.07324219
2
Properties=species:S:1:pos:R:3:forces:R:3 energy=280.02581760867616 pbc="F F F"
Na       0.00000000       0.00000000       0.00000000       0.00000000       0.00000000   -2993.91967773
Na       0.00000000       0.00000000       0.27878788       0.00000000       0.00000000    2993.91967773
2
Properties=species:S:1:pos:R:3:forces:R:3 energy=153.76480076297304 pbc="F F F"
Na       0.00000000       0.00000000       0.00000000       0.00000000       0.00000000   -1459.97595215
Na       0.00000000       0.00000000       0.33838384       0.00000000       0.00000000    1459.97595215
2
Properties=species:S:1:pos:R:3:forces:R:3 energy=89.73189518435976 pbc="F F F"
Na       0.00000000       0.00000000       0.00000000       0.00000000       0.00000000    -773.51538086
Na       0.00000000       0.00000000       0.39797980       0.00000000       0.00000000     773.51538086
2
Properties=species:S:1:pos:R:3:forces:R:3 energy=54.83579609695141 pbc="F F F"
Na       0.00000000       0.00000000       0.00000000       0.00000000       0.00000000    -434.79885864
Na       0.00000000       0.00000000       0.45757576       0.00000000       0.00000000     434.79885864
2
Properties=species:S:1:pos:R:3:forces:R:3 energy=34.80938313941987 pbc="F F F"
Na       0.00000000       0.00000000       0.00000000       0.00000000       0.00000000    -255.22824097
Na       0.00000000       0.00000000       0.51717172       0.00000000       0.00000000     255.22824097
2
Properties=species:S:1:pos:R:3:forces:R:3 energy=22.86824392773193 pbc="F F F"
Na       0.00000000       0.00000000       0.00000000       0.00000000       0.00000000    -154.79257202
Na       0.00000000       0.00000000       0.57676768       0.00000000       0.00000000     154.79257202
2
Properties=species:S:1:pos:R:3:forces:R:3 energy=15.538559687647627 pbc="F F F"
Na       0.00000000       0.00000000       0.00000000       0.00000000       0.00000000     -96.24688721
Na       0.00000000       0.00000000       0.63636364       0.00000000       0.00000000      96.24688721
2
Properties=species:S:1:pos:R:3:forces:R:3 energy=10.940022269505755 pbc="F F F"
Na       0.00000000       0.00000000       0.00000000       0.00000000       0.00000000     -60.94898987
Na       0.00000000       0.00000000       0.69595960       0.00000000       0.00000000      60.94898987
2
Properties=species:S:1:pos:R:3:forces:R:3 energy=8.010521734021282 pbc="F F F"
Na       0.00000000       0.00000000       0.00000000       0.00000000       0.00000000     -39.05119705
Na       0.00000000       0.00000000       0.75555556       0.00000000       0.00000000      39.05119705
2
Properties=species:S:1:pos:R:3:forces:R:3 energy=6.128052143294473 pbc="F F F"
Na       0.00000000       0.00000000       0.00000000       0.00000000       0.00000000     -25.14999390
Na       0.00000000       0.00000000       0.81515152       0.00000000       0.00000000      25.14999390
2
Properties=species:S:1:pos:R:3:forces:R:3 energy=4.915737149443443 pbc="F F F"
Na       0.00000000       0.00000000       0.00000000       0.00000000       0.00000000     -16.17741013
Na       0.00000000       0.00000000       0.87474747       0.00000000       0.00000000      16.17741013
2
Properties=species:S:1:pos:R:3:forces:R:3 energy=4.138217574828864 pbc="F F F"
Na       0.00000000       0.00000000       0.00000000       0.00000000       0.00000000     -10.33027363
Na       0.00000000       0.00000000       0.93434343       0.00000000       0.00000000      10.33027363
2
Properties=species:S:1:pos:R:3:forces:R:3 energy=3.643831796092919 pbc="F F F"
Na       0.00000000       0.00000000       0.00000000       0.00000000       0.00000000      -6.54214239
Na       0.00000000       0.00000000       0.99393939       0.00000000       0.00000000       6.54214239
2
Properties=species:S:1:pos:R:3:forces:R:3 energy=3.3301890581791898 pbc="F F F"
Na       0.00000000       0.00000000       0.00000000       0.00000000       0.00000000      -4.18352938
Na       0.00000000       0.00000000       1.05353535       0.00000000       0.00000000       4.18352938
2
Properties=species:S:1:pos:R:3:forces:R:3 energy=3.1249786955670684 pbc="F F F"
Na       0.00000000       0.00000000       0.00000000       0.00000000       0.00000000      -2.84507012
Na       0.00000000       0.00000000       1.11313131       0.00000000       0.00000000       2.84507012
2
Properties=species:S:1:pos:R:3:forces:R:3 energy=2.977067333022155 pbc="F F F"
Na       0.00000000       0.00000000       0.00000000       0.00000000       0.00000000      -2.21406221
Na       0.00000000       0.00000000       1.17272727       0.00000000       0.00000000       2.21406221
2
Properties=species:S:1:pos:R:3:forces:R:3 energy=2.851938662937247 pbc="F F F"
Na       0.00000000       0.00000000       0.00000000       0.00000000       0.00000000      -2.04555011
Na       0.00000000       0.00000000       1.23232323       0.00000000       0.00000000       2.04555011
2
Properties=species:S:1:pos:R:3:forces:R:3 energy=2.7276772796156386 pbc="F F F"
Na       0.00000000       0.00000000       0.00000000       0.00000000       0.00000000      -2.15904403
Na       0.00000000       0.00000000       1.29191919       0.00000000       0.00000000       2.15904403
2
Properties=species:S:1:pos:R:3:forces:R:3 energy=2.5918000947709516 pbc="F F F"
Na       0.00000000       0.00000000       0.00000000       0.00000000       0.00000000      -2.41417432
Na       0.00000000       0.00000000       1.35151515       0.00000000       0.00000000       2.41417432
2
Properties=species:S:1:pos:R:3:forces:R:3 energy=2.4393518578368276 pbc="F F F"
Na       0.00000000       0.00000000       0.00000000       0.00000000       0.00000000      -2.70030713
Na       0.00000000       0.00000000       1.41111111       0.00000000       0.00000000       2.70030713
2
Properties=species:S:1:pos:R:3:forces:R:3 energy=2.2703419178230053 pbc="F F F"
Na       0.00000000       0.00000000       0.00000000       0.00000000       0.00000000      -2.96936131
Na       0.00000000       0.00000000       1.47070707       0.00000000       0.00000000       2.96936131
2
Properties=species:S:1:pos:R:3:forces:R:3 energy=2.0854126266506503 pbc="F F F"
Na       0.00000000       0.00000000       0.00000000       0.00000000       0.00000000      -3.23763275
Na       0.00000000       0.00000000       1.53030303       0.00000000       0.00000000       3.23763275
2
Properties=species:S:1:pos:R:3:forces:R:3 energy=1.8847788612320648 pbc="F F F"
Na       0.00000000       0.00000000       0.00000000       0.00000000       0.00000000      -3.48717284
Na       0.00000000       0.00000000       1.58989899       0.00000000       0.00000000       3.48717284
2
Properties=species:S:1:pos:R:3:forces:R:3 energy=1.6713708571804053 pbc="F F F"
Na       0.00000000       0.00000000       0.00000000       0.00000000       0.00000000      -3.65793800
Na       0.00000000       0.00000000       1.64949495       0.00000000       0.00000000       3.65793800
2
Properties=species:S:1:pos:R:3:forces:R:3 energy=1.4507421824059714 pbc="F F F"
Na       0.00000000       0.00000000       0.00000000       0.00000000       0.00000000      -3.73190069
Na       0.00000000       0.00000000       1.70909091       0.00000000       0.00000000       3.73190069
2
Properties=species:S:1:pos:R:3:forces:R:3 energy=1.2278651450749465 pbc="F F F"
Na       0.00000000       0.00000000       0.00000000       0.00000000       0.00000000      -3.74019146
Na       0.00000000       0.00000000       1.76868687       0.00000000       0.00000000       3.74019146
2
Properties=species:S:1:pos:R:3:forces:R:3 energy=1.005517785383774 pbc="F F F"
Na       0.00000000       0.00000000       0.00000000       0.00000000       0.00000000      -3.71852279
Na       0.00000000       0.00000000       1.82828283       0.00000000       0.00000000       3.71852279
2
Properties=species:S:1:pos:R:3:forces:R:3 energy=0.7849862487736365 pbc="F F F"
Na       0.00000000       0.00000000       0.00000000       0.00000000       0.00000000      -3.67887521
Na       0.00000000       0.00000000       1.88787879       0.00000000       0.00000000       3.67887521
2
Properties=species:S:1:pos:R:3:forces:R:3 energy=0.5675851859611184 pbc="F F F"
Na       0.00000000       0.00000000       0.00000000       0.00000000       0.00000000      -3.61076617
Na       0.00000000       0.00000000       1.94747475       0.00000000       0.00000000       3.61076617
2
Properties=species:S:1:pos:R:3:forces:R:3 energy=0.35555757604196936 pbc="F F F"
Na       0.00000000       0.00000000       0.00000000       0.00000000       0.00000000      -3.49542785
Na       0.00000000       0.00000000       2.00707071       0.00000000       0.00000000       3.49542785
2
Properties=species:S:1:pos:R:3:forces:R:3 energy=0.15216294136537153 pbc="F F F"
Na       0.00000000       0.00000000       0.00000000       0.00000000       0.00000000      -3.32003427
Na       0.00000000       0.00000000       2.06666667       0.00000000       0.00000000       3.32003427
2
Properties=species:S:1:pos:R:3:forces:R:3 energy=-0.03899079073166993 pbc="F F F"
Na       0.00000000       0.00000000       0.00000000       0.00000000       0.00000000      -3.08606863
Na       0.00000000       0.00000000       2.12626263       0.00000000       0.00000000       3.08606863
2
Properties=species:S:1:pos:R:3:forces:R:3 energy=-0.21478808846655048 pbc="F F F"
Na       0.00000000       0.00000000       0.00000000       0.00000000       0.00000000      -2.80772948
Na       0.00000000       0.00000000       2.18585859       0.00000000       0.00000000       2.80772948
2
Properties=species:S:1:pos:R:3:forces:R:3 energy=-0.3731509594001938 pbc="F F F"
Na       0.00000000       0.00000000       0.00000000       0.00000000       0.00000000      -2.50415063
Na       0.00000000       0.00000000       2.24545455       0.00000000       0.00000000       2.50415063
2
Properties=species:S:1:pos:R:3:forces:R:3 energy=-0.5131101548128685 pbc="F F F"
Na       0.00000000       0.00000000       0.00000000       0.00000000       0.00000000      -2.19273782
Na       0.00000000       0.00000000       2.30505051       0.00000000       0.00000000       2.19273782
2
Properties=species:S:1:pos:R:3:forces:R:3 energy=-0.6346133289871561 pbc="F F F"
Na       0.00000000       0.00000000       0.00000000       0.00000000       0.00000000      -1.88658559
Na       0.00000000       0.00000000       2.36464646       0.00000000       0.00000000       1.88658559
2
Properties=species:S:1:pos:R:3:forces:R:3 energy=-0.7382650047336402 pbc="F F F"
Na       0.00000000       0.00000000       0.00000000       0.00000000       0.00000000      -1.59486032
Na       0.00000000       0.00000000       2.42424242       0.00000000       0.00000000       1.59486032
2
Properties=species:S:1:pos:R:3:forces:R:3 energy=-0.8251256087034787 pbc="F F F"
Na       0.00000000       0.00000000       0.00000000       0.00000000       0.00000000      -1.32409036
Na       0.00000000       0.00000000       2.48383838       0.00000000       0.00000000       1.32409036
2
Properties=species:S:1:pos:R:3:forces:R:3 energy=-0.8965934341848809 pbc="F F F"
Na       0.00000000       0.00000000       0.00000000       0.00000000       0.00000000      -1.07884395
Na       0.00000000       0.00000000       2.54343434       0.00000000       0.00000000       1.07884395
2
Properties=species:S:1:pos:R:3:forces:R:3 energy=-0.9542771378484421 pbc="F F F"
Na       0.00000000       0.00000000       0.00000000       0.00000000       0.00000000      -0.86179745
Na       0.00000000       0.00000000       2.60303030       0.00000000       0.00000000       0.86179745
2
Properties=species:S:1:pos:R:3:forces:R:3 energy=-0.9998877462182536 pbc="F F F"
Na       0.00000000       0.00000000       0.00000000       0.00000000       0.00000000      -0.67356801
Na       0.00000000       0.00000000       2.66262626       0.00000000       0.00000000       0.67356801
2
Properties=species:S:1:pos:R:3:forces:R:3 energy=-1.0351107341847887 pbc="F F F"
Na       0.00000000       0.00000000       0.00000000       0.00000000       0.00000000      -0.51295453
Na       0.00000000       0.00000000       2.72222222       0.00000000       0.00000000       0.51295453
2
Properties=species:S:1:pos:R:3:forces:R:3 energy=-1.061529917377121 pbc="F F F"
Na       0.00000000       0.00000000       0.00000000       0.00000000       0.00000000      -0.37767670
Na       0.00000000       0.00000000       2.78181818       0.00000000       0.00000000       0.37767670
2
Properties=species:S:1:pos:R:3:forces:R:3 energy=-1.0805806490135703 pbc="F F F"
Na       0.00000000       0.00000000       0.00000000       0.00000000       0.00000000      -0.26527506
Na       0.00000000       0.00000000       2.84141414       0.00000000       0.00000000       0.26527506
2
Properties=species:S:1:pos:R:3:forces:R:3 energy=-1.0935599835376155 pbc="F F F"
Na       0.00000000       0.00000000       0.00000000       0.00000000       0.00000000      -0.17353426
Na       0.00000000       0.00000000       2.90101010       0.00000000       0.00000000       0.17353426
2
Properties=species:S:1:pos:R:3:forces:R:3 energy=-1.1016299205313669 pbc="F F F"
Na       0.00000000       0.00000000       0.00000000       0.00000000       0.00000000      -0.10014906
Na       0.00000000       0.00000000       2.96060606       0.00000000       0.00000000       0.10014906
2
Properties=species:S:1:pos:R:3:forces:R:3 energy=-1.1058010036069188 pbc="F F F"
Na       0.00000000       0.00000000       0.00000000       0.00000000       0.00000000      -0.04209293
Na       0.00000000       0.00000000       3.02020202       0.00000000       0.00000000       0.04209293
2
Properties=species:S:1:pos:R:3:forces:R:3 energy=-1.1068724921903377 pbc="F F F"
Na       0.00000000       0.00000000       0.00000000       0.00000000       0.00000000       0.00463367
Na       0.00000000       0.00000000       3.07979798       0.00000000       0.00000000      -0.00463367
2
Properties=species:S:1:pos:R:3:forces:R:3 energy=-1.1053859859565394 pbc="F F F"
Na       0.00000000       0.00000000       0.00000000       0.00000000       0.00000000       0.04444320
Na       0.00000000       0.00000000       3.13939394       0.00000000       0.00000000      -0.04444320
2
Properties=species:S:1:pos:R:3:forces:R:3 energy=-1.101638913846542 pbc="F F F"
Na       0.00000000       0.00000000       0.00000000       0.00000000       0.00000000       0.08098156
Na       0.00000000       0.00000000       3.19898990       0.00000000       0.00000000      -0.08098156
2
Properties=species:S:1:pos:R:3:forces:R:3 energy=-1.095762737746317 pbc="F F F"
Na       0.00000000       0.00000000       0.00000000       0.00000000       0.00000000       0.11596461
Na       0.00000000       0.00000000       3.25858586       0.00000000       0.00000000      -0.11596461
2
Properties=species:S:1:pos:R:3:forces:R:3 energy=-1.0878606216350977 pbc="F F F"
Na       0.00000000       0.00000000       0.00000000       0.00000000       0.00000000       0.14868870
Na       0.00000000       0.00000000       3.31818182       0.00000000       0.00000000      -0.14868870
2
Properties=species:S:1:pos:R:3:forces:R:3 energy=-1.0781395924212671 pbc="F F F"
Na       0.00000000       0.00000000       0.00000000       0.00000000       0.00000000       0.17638059
Na       0.00000000       0.00000000       3.37777778       0.00000000       0.00000000      -0.17638059
2
Properties=species:S:1:pos:R:3:forces:R:3 energy=-1.0670169701171706 pbc="F F F"
Na       0.00000000       0.00000000       0.00000000       0.00000000       0.00000000       0.19499731
Na       0.00000000       0.00000000       3.43737374       0.00000000       0.00000000      -0.19499731
2
Properties=species:S:1:pos:R:3:forces:R:3 energy=-1.055170003950214 pbc="F F F"
Na       0.00000000       0.00000000       0.00000000       0.00000000       0.00000000       0.19989550
Na       0.00000000       0.00000000       3.49696970       0.00000000       0.00000000      -0.19989550
2
Properties=species:S:1:pos:R:3:forces:R:3 energy=-1.0435529161175943 pbc="F F F"
Na       0.00000000       0.00000000       0.00000000       0.00000000       0.00000000       0.18664388
Na       0.00000000       0.00000000       3.55656566       0.00000000       0.00000000      -0.18664388
2
Properties=species:S:1:pos:R:3:forces:R:3 energy=-1.0333192623304097 pbc="F F F"
Na       0.00000000       0.00000000       0.00000000       0.00000000       0.00000000       0.15380627
Na       0.00000000       0.00000000       3.61616162       0.00000000       0.00000000      -0.15380627
2
Properties=species:S:1:pos:R:3:forces:R:3 energy=-1.0254569472720556 pbc="F F F"
Na       0.00000000       0.00000000       0.00000000       0.00000000       0.00000000       0.10961749
Na       0.00000000       0.00000000       3.67575758       0.00000000       0.00000000      -0.10961749
2
Properties=species:S:1:pos:R:3:forces:R:3 energy=-1.0200450971215789 pbc="F F F"
Na       0.00000000       0.00000000       0.00000000       0.00000000       0.00000000       0.07598405
Na       0.00000000       0.00000000       3.73535354       0.00000000       0.00000000      -0.07598405
2
Properties=species:S:1:pos:R:3:forces:R:3 energy=-1.0157356283640093 pbc="F F F"
Na       0.00000000       0.00000000       0.00000000       0.00000000       0.00000000       0.07495980
Na       0.00000000       0.00000000       3.79494949       0.00000000       0.00000000      -0.07495980
2
Properties=species:S:1:pos:R:3:forces:R:3 energy=-1.0104309407000507 pbc="F F F"
Na       0.00000000       0.00000000       0.00000000       0.00000000       0.00000000       0.10743877
Na       0.00000000       0.00000000       3.85454545       0.00000000       0.00000000      -0.10743877
2
Properties=species:S:1:pos:R:3:forces:R:3 energy=-1.0026227797239005 pbc="F F F"
Na       0.00000000       0.00000000       0.00000000       0.00000000       0.00000000       0.15546224
Na       0.00000000       0.00000000       3.91414141       0.00000000       0.00000000      -0.15546224
2
Properties=species:S:1:pos:R:3:forces:R:3 energy=-0.9919496515539646 pbc="F F F"
Na       0.00000000       0.00000000       0.00000000       0.00000000       0.00000000       0.20139343
Na       0.00000000       0.00000000       3.97373737       0.00000000       0.00000000      -0.20139343
2
Properties=species:S:1:pos:R:3:forces:R:3 energy=-0.9788243320480143 pbc="F F F"
Na       0.00000000       0.00000000       0.00000000       0.00000000       0.00000000       0.23719074
Na       0.00000000       0.00000000       4.03333333       0.00000000       0.00000000      -0.23719074
2
Properties=species:S:1:pos:R:3:forces:R:3 energy=-0.9638986021980824 pbc="F F F"
Na       0.00000000       0.00000000       0.00000000       0.00000000       0.00000000       0.26199636
Na       0.00000000       0.00000000       4.09292929       0.00000000       0.00000000      -0.26199636
2
Properties=species:S:1:pos:R:3:forces:R:3 energy=-0.9477773136782811 pbc="F F F"
Na       0.00000000       0.00000000       0.00000000       0.00000000       0.00000000       0.27768746
Na       0.00000000       0.00000000       4.15252525       0.00000000       0.00000000      -0.27768746
2
Properties=species:S:1:pos:R:3:forces:R:3 energy=-0.930938121790723 pbc="F F F"
Na       0.00000000       0.00000000       0.00000000       0.00000000       0.00000000       0.28642178
Na       0.00000000       0.00000000       4.21212121       0.00000000       0.00000000      -0.28642178
2
Properties=species:S:1:pos:R:3:forces:R:3 energy=-0.9137432665797544 pbc="F F F"
Na       0.00000000       0.00000000       0.00000000       0.00000000       0.00000000       0.28985247
Na       0.00000000       0.00000000       4.27171717       0.00000000       0.00000000      -0.28985247
2
Properties=species:S:1:pos:R:3:forces:R:3 energy=-0.8964731259800209 pbc="F F F"
Na       0.00000000       0.00000000       0.00000000       0.00000000       0.00000000       0.28910404
Na       0.00000000       0.00000000       4.33131313       0.00000000       0.00000000      -0.28910404
2
Properties=species:S:1:pos:R:3:forces:R:3 energy=-0.8793512221412876 pbc="F F F"
Na       0.00000000       0.00000000       0.00000000       0.00000000       0.00000000       0.28499117
Na       0.00000000       0.00000000       4.39090909       0.00000000       0.00000000      -0.28499117
2
Properties=species:S:1:pos:R:3:forces:R:3 energy=-0.8625561366809774 pbc="F F F"
Na       0.00000000       0.00000000       0.00000000       0.00000000       0.00000000       0.27826846
Na       0.00000000       0.00000000       4.45050505       0.00000000       0.00000000      -0.27826846
2
Properties=species:S:1:pos:R:3:forces:R:3 energy=-0.8462179159206832 pbc="F F F"
Na       0.00000000       0.00000000       0.00000000       0.00000000       0.00000000       0.26983896
Na       0.00000000       0.00000000       4.51010101       0.00000000       0.00000000      -0.26983896
2
Properties=species:S:1:pos:R:3:forces:R:3 energy=-0.830404743437759 pbc="F F F"
Na       0.00000000       0.00000000       0.00000000       0.00000000       0.00000000       0.26085091
Na       0.00000000       0.00000000       4.56969697       0.00000000       0.00000000      -0.26085091
2
Properties=species:S:1:pos:R:3:forces:R:3 energy=-0.8151107996856296 pbc="F F F"
Na       0.00000000       0.00000000       0.00000000       0.00000000       0.00000000       0.25264975
Na       0.00000000       0.00000000       4.62929293       0.00000000       0.00000000      -0.25264975
2
Properties=species:S:1:pos:R:3:forces:R:3 energy=-0.8002484888238866 pbc="F F F"
Na       0.00000000       0.00000000       0.00000000       0.00000000       0.00000000       0.24658750
Na       0.00000000       0.00000000       4.68888889       0.00000000       0.00000000      -0.24658750
2
Properties=species:S:1:pos:R:3:forces:R:3 energy=-0.7856560255315723 pbc="F F F"
Na       0.00000000       0.00000000       0.00000000       0.00000000       0.00000000       0.24369374
Na       0.00000000       0.00000000       4.74848485       0.00000000       0.00000000      -0.24369374
2
Properties=species:S:1:pos:R:3:forces:R:3 energy=-0.771131553214801 pbc="F F F"
Na       0.00000000       0.00000000       0.00000000       0.00000000       0.00000000       0.24431272
Na       0.00000000       0.00000000       4.80808081       0.00000000       0.00000000      -0.24431272
2
Properties=species:S:1:pos:R:3:forces:R:3 energy=-0.7564781494415462 pbc="F F F"
Na       0.00000000       0.00000000       0.00000000       0.00000000       0.00000000       0.24780364
Na       0.00000000       0.00000000       4.86767677       0.00000000       0.00000000      -0.24780364
2
Properties=species:S:1:pos:R:3:forces:R:3 energy=-0.7415722126440829 pbc="F F F"
Na       0.00000000       0.00000000       0.00000000       0.00000000       0.00000000       0.25241941
Na       0.00000000       0.00000000       4.92727273       0.00000000       0.00000000      -0.25241941
2
Properties=species:S:1:pos:R:3:forces:R:3 energy=-0.726419982081486 pbc="F F F"
Na       0.00000000       0.00000000       0.00000000       0.00000000       0.00000000       0.25561744
Na       0.00000000       0.00000000       4.98686869       0.00000000       0.00000000      -0.25561744
2
Properties=species:S:1:pos:R:3:forces:R:3 energy=-0.7111817549164472 pbc="F F F"
Na       0.00000000       0.00000000       0.00000000       0.00000000       0.00000000       0.25509411
Na       0.00000000       0.00000000       5.04646465       0.00000000       0.00000000      -0.25509411
2
Properties=species:S:1:pos:R:3:forces:R:3 energy=-0.6960915391541185 pbc="F F F"
Na       0.00000000       0.00000000       0.00000000       0.00000000       0.00000000       0.25092524
Na       0.00000000       0.00000000       5.10606061       0.00000000       0.00000000      -0.25092524
2
Properties=species:S:1:pos:R:3:forces:R:3 energy=-0.6812547679010906 pbc="F F F"
Na       0.00000000       0.00000000       0.00000000       0.00000000       0.00000000       0.24772482
Na       0.00000000       0.00000000       5.16565657       0.00000000       0.00000000      -0.24772482
2
Properties=species:S:1:pos:R:3:forces:R:3 energy=-0.666388770654599 pbc="F F F"
Na       0.00000000       0.00000000       0.00000000       0.00000000       0.00000000       0.25313783
Na       0.00000000       0.00000000       5.22525253       0.00000000       0.00000000      -0.25313783
2
Properties=species:S:1:pos:R:3:forces:R:3 energy=-0.6508670569697449 pbc="F F F"
Na       0.00000000       0.00000000       0.00000000       0.00000000       0.00000000       0.26892194
Na       0.00000000       0.00000000       5.28484848       0.00000000       0.00000000      -0.26892194
2
Properties=species:S:1:pos:R:3:forces:R:3 energy=-0.6343662575223503 pbc="F F F"
Na       0.00000000       0.00000000       0.00000000       0.00000000       0.00000000       0.28294632
Na       0.00000000       0.00000000       5.34444444       0.00000000       0.00000000      -0.28294632
2
Properties=species:S:1:pos:R:3:forces:R:3 energy=-0.617513888381443 pbc="F F F"
Na       0.00000000       0.00000000       0.00000000       0.00000000       0.00000000       0.27885005
Na       0.00000000       0.00000000       5.40404040       0.00000000       0.00000000      -0.27885005
2
Properties=species:S:1:pos:R:3:forces:R:3 energy=-0.6014996423622058 pbc="F F F"
Na       0.00000000       0.00000000       0.00000000       0.00000000       0.00000000       0.25677696
Na       0.00000000       0.00000000       5.46363636       0.00000000       0.00000000      -0.25677696
2
Properties=species:S:1:pos:R:3:forces:R:3 energy=-0.5868481426453152 pbc="F F F"
Na       0.00000000       0.00000000       0.00000000       0.00000000       0.00000000       0.23808187
Na       0.00000000       0.00000000       5.52323232       0.00000000       0.00000000      -0.23808187
2
Properties=species:S:1:pos:R:3:forces:R:3 energy=-0.5725514484413662 pbc="F F F"
Na       0.00000000       0.00000000       0.00000000       0.00000000       0.00000000       0.24747297
Na       0.00000000       0.00000000       5.58282828       0.00000000       0.00000000      -0.24747297
2
Properties=species:S:1:pos:R:3:forces:R:3 energy=-0.5567638663350194 pbc="F F F"
Na       0.00000000       0.00000000       0.00000000       0.00000000       0.00000000       0.28511485
Na       0.00000000       0.00000000       5.64242424       0.00000000       0.00000000      -0.28511485
2
Properties=species:S:1:pos:R:3:forces:R:3 energy=-0.5386861530607655 pbc="F F F"
Na       0.00000000       0.00000000       0.00000000       0.00000000       0.00000000       0.31600469
Na       0.00000000       0.00000000       5.70202020       0.00000000       0.00000000      -0.31600469
2
Properties=species:S:1:pos:R:3:forces:R:3 energy=-0.5200979205338021 pbc="F F F"
Na       0.00000000       0.00000000       0.00000000       0.00000000       0.00000000       0.29856145
Na       0.00000000       0.00000000       5.76161616       0.00000000       0.00000000      -0.29856145
2
Properties=species:S:1:pos:R:3:forces:R:3 energy=-0.5042189270014945 pbc="F F F"
Na       0.00000000       0.00000000       0.00000000       0.00000000       0.00000000       0.22653808
Na       0.00000000       0.00000000       5.82121212       0.00000000       0.00000000      -0.22653808
2
Properties=species:S:1:pos:R:3:forces:R:3 energy=-0.4935787981196134 pbc="F F F"
Na       0.00000000       0.00000000       0.00000000       0.00000000       0.00000000       0.13147442
Na       0.00000000       0.00000000       5.88080808       0.00000000       0.00000000      -0.13147442
2
Properties=species:S:1:pos:R:3:forces:R:3 energy=-0.4881409827213706 pbc="F F F"
Na       0.00000000       0.00000000       0.00000000       0.00000000       0.00000000       0.05555196
Na       0.00000000       0.00000000       5.94040404       0.00000000       0.00000000      -0.05555196
2
Properties=species:S:1:pos:R:3:forces:R:3 energy=-0.4859983915830012 pbc="F F F"
Na       0.00000000       0.00000000       0.00000000       0.00000000       0.00000000       0.02602784
Na       0.00000000       0.00000000       6.00000000       0.00000000       0.00000000      -0.02602784
