2
Properties=species:S:1:pos:R:3:forces:R:3 energy=20250.24482572352 pbc="F F F"
Np       0.00000000       0.00000000       0.00000000       0.00000000       0.00000000 -362674.81250000
Np       0.00000000       0.00000000       0.18000000       0.00000000       0.00000000  362674.81250000
2
Properties=species:S:1:pos:R:3:forces:R:3 energy=7714.48066556727 pbc="F F F"
Np       0.00000000       0.00000000       0.00000000       0.00000000       0.00000000 -116712.15625000
Np       0.00000000       0.00000000       0.23878788       0.00000000       0.00000000  116712.15625000
2
Properties=species:S:1:pos:R:3:forces:R:3 energy=3371.69404447352 pbc="F F F"
Np       0.00000000       0.00000000       0.00000000       0.00000000       0.00000000  -44121.25000000
Np       0.00000000       0.00000000       0.29757576       0.00000000       0.00000000   44121.25000000
2
Properties=species:S:1:pos:R:3:forces:R:3 energy=1652.3482192782074 pbc="F F F"
Np       0.00000000       0.00000000       0.00000000       0.00000000       0.00000000  -18462.14062500
Np       0.00000000       0.00000000       0.35636364       0.00000000       0.00000000   18462.14062500
2
Properties=species:S:1:pos:R:3:forces:R:3 energy=908.1125015047699 pbc="F F F"
Np       0.00000000       0.00000000       0.00000000       0.00000000       0.00000000   -8328.64160156
Np       0.00000000       0.00000000       0.41515152       0.00000000       0.00000000    8328.64160156
2
Properties=species:S:1:pos:R:3:forces:R:3 energy=562.9109023836761 pbc="F F F"
Np       0.00000000       0.00000000       0.00000000       0.00000000       0.00000000   -3995.77954102
Np       0.00000000       0.00000000       0.47393939       0.00000000       0.00000000    3995.77954102
2
Properties=species:S:1:pos:R:3:forces:R:3 energy=393.37965240901866 pbc="F F F"
Np       0.00000000       0.00000000       0.00000000       0.00000000       0.00000000   -2017.18835449
Np       0.00000000       0.00000000       0.53272727       0.00000000       0.00000000    2017.18835449
2
Properties=species:S:1:pos:R:3:forces:R:3 energy=306.20658726148565 pbc="F F F"
Np       0.00000000       0.00000000       0.00000000       0.00000000       0.00000000   -1058.64208984
Np       0.00000000       0.00000000       0.59151515       0.00000000       0.00000000    1058.64208984
2
Properties=species:S:1:pos:R:3:forces:R:3 energy=259.9034562086552 pbc="F F F"
Np       0.00000000       0.00000000       0.00000000       0.00000000       0.00000000    -569.04309082
Np       0.00000000       0.00000000       0.65030303       0.00000000       0.00000000     569.04309082
2
Properties=species:S:1:pos:R:3:forces:R:3 energy=234.88578660694856 pbc="F F F"
Np       0.00000000       0.00000000       0.00000000       0.00000000       0.00000000    -308.74166870
Np       0.00000000       0.00000000       0.70909091       0.00000000       0.00000000     308.74166870
2
Properties=species:S:1:pos:R:3:forces:R:3 energy=221.27662534403703 pbc="F F F"
Np       0.00000000       0.00000000       0.00000000       0.00000000       0.00000000    -168.92655945
Np       0.00000000       0.00000000       0.76787879       0.00000000       0.00000000     168.92655945
2
Properties=species:S:1:pos:R:3:forces:R:3 energy=213.69402969623977 pbc="F F F"
Np       0.00000000       0.00000000       0.00000000       0.00000000       0.00000000     -97.76687622
Np       0.00000000       0.00000000       0.82666667       0.00000000       0.00000000      97.76687622
2
Properties=species:S:1:pos:R:3:forces:R:3 energy=208.96168439395342 pbc="F F F"
Np       0.00000000       0.00000000       0.00000000       0.00000000       0.00000000     -68.82315826
Np       0.00000000       0.00000000       0.88545455       0.00000000       0.00000000      68.82315826
2
Properties=species:S:1:pos:R:3:forces:R:3 energy=205.05125384054637 pbc="F F F"
Np       0.00000000       0.00000000       0.00000000       0.00000000       0.00000000     -68.21266937
Np       0.00000000       0.00000000       0.94424242       0.00000000       0.00000000      68.21266937
2
Properties=species:S:1:pos:R:3:forces:R:3 energy=200.52684027222662 pbc="F F F"
Np       0.00000000       0.00000000       0.00000000       0.00000000       0.00000000     -88.86139679
Np       0.00000000       0.00000000       1.00303030       0.00000000       0.00000000      88.86139679
2
Properties=species:S:1:pos:R:3:forces:R:3 energy=194.2774207777893 pbc="F F F"
Np       0.00000000       0.00000000       0.00000000       0.00000000       0.00000000    -126.13764954
Np       0.00000000       0.00000000       1.06181818       0.00000000       0.00000000     126.13764954
2
Properties=species:S:1:pos:R:3:forces:R:3 energy=185.4642655368498 pbc="F F F"
Np       0.00000000       0.00000000       0.00000000       0.00000000       0.00000000    -175.21409607
Np       0.00000000       0.00000000       1.12060606       0.00000000       0.00000000     175.21409607
2
Properties=species:S:1:pos:R:3:forces:R:3 energy=173.54980747409274 pbc="F F F"
Np       0.00000000       0.00000000       0.00000000       0.00000000       0.00000000    -230.74159241
Np       0.00000000       0.00000000       1.17939394       0.00000000       0.00000000     230.74159241
2
Properties=species:S:1:pos:R:3:forces:R:3 energy=158.3162427104677 pbc="F F F"
Np       0.00000000       0.00000000       0.00000000       0.00000000       0.00000000    -287.18057251
Np       0.00000000       0.00000000       1.23818182       0.00000000       0.00000000     287.18057251
2
Properties=species:S:1:pos:R:3:forces:R:3 energy=139.89182140605882 pbc="F F F"
Np       0.00000000       0.00000000       0.00000000       0.00000000       0.00000000    -338.09115601
Np       0.00000000       0.00000000       1.29696970       0.00000000       0.00000000     338.09115601
2
Properties=species:S:1:pos:R:3:forces:R:3 energy=118.8220911856019 pbc="F F F"
Np       0.00000000       0.00000000       0.00000000       0.00000000       0.00000000    -375.87960815
Np       0.00000000       0.00000000       1.35575758       0.00000000       0.00000000     375.87960815
2
Properties=species:S:1:pos:R:3:forces:R:3 energy=96.09979658359671 pbc="F F F"
Np       0.00000000       0.00000000       0.00000000       0.00000000       0.00000000    -393.20471191
Np       0.00000000       0.00000000       1.41454545       0.00000000       0.00000000     393.20471191
2
Properties=species:S:1:pos:R:3:forces:R:3 energy=73.09545161742918 pbc="F F F"
Np       0.00000000       0.00000000       0.00000000       0.00000000       0.00000000    -384.93014526
Np       0.00000000       0.00000000       1.47333333       0.00000000       0.00000000     384.93014526
2
Properties=species:S:1:pos:R:3:forces:R:3 energy=51.35708347772901 pbc="F F F"
Np       0.00000000       0.00000000       0.00000000       0.00000000       0.00000000    -350.60110474
Np       0.00000000       0.00000000       1.53212121       0.00000000       0.00000000     350.60110474
2
Properties=species:S:1:pos:R:3:forces:R:3 energy=32.25382152280243 pbc="F F F"
Np       0.00000000       0.00000000       0.00000000       0.00000000       0.00000000    -297.08355713
Np       0.00000000       0.00000000       1.59090909       0.00000000       0.00000000     297.08355713
2
Properties=species:S:1:pos:R:3:forces:R:3 energy=16.555406988397095 pbc="F F F"
Np       0.00000000       0.00000000       0.00000000       0.00000000       0.00000000    -236.96548462
Np       0.00000000       0.00000000       1.64969697       0.00000000       0.00000000     236.96548462
2
Properties=species:S:1:pos:R:3:forces:R:3 energy=4.301367003974421 pbc="F F F"
Np       0.00000000       0.00000000       0.00000000       0.00000000       0.00000000    -178.66600037
Np       0.00000000       0.00000000       1.70848485       0.00000000       0.00000000     178.66600037
2
Properties=species:S:1:pos:R:3:forces:R:3 energy=-4.5190079269417724 pbc="F F F"
Np       0.00000000       0.00000000       0.00000000       0.00000000       0.00000000    -124.92782593
Np       0.00000000       0.00000000       1.76727273       0.00000000       0.00000000     124.92782593
2
Properties=species:S:1:pos:R:3:forces:R:3 energy=-10.42453831355999 pbc="F F F"
Np       0.00000000       0.00000000       0.00000000       0.00000000       0.00000000     -76.67365265
Np       0.00000000       0.00000000       1.82606061       0.00000000       0.00000000      76.67365265
2
Properties=species:S:1:pos:R:3:forces:R:3 energy=-13.80602337416921 pbc="F F F"
Np       0.00000000       0.00000000       0.00000000       0.00000000       0.00000000     -41.66981888
Np       0.00000000       0.00000000       1.88484848       0.00000000       0.00000000      41.66981888
2
Properties=species:S:1:pos:R:3:forces:R:3 energy=-15.682652613910655 pbc="F F F"
Np       0.00000000       0.00000000       0.00000000       0.00000000       0.00000000     -24.43687248
Np       0.00000000       0.00000000       1.94363636       0.00000000       0.00000000      24.43687248
2
Properties=species:S:1:pos:R:3:forces:R:3 energy=-16.831676896236974 pbc="F F F"
Np       0.00000000       0.00000000       0.00000000       0.00000000       0.00000000     -15.19922924
Np       0.00000000       0.00000000       2.00242424       0.00000000       0.00000000      15.19922924
2
Properties=species:S:1:pos:R:3:forces:R:3 energy=-17.50263611930385 pbc="F F F"
Np       0.00000000       0.00000000       0.00000000       0.00000000       0.00000000      -7.88820791
Np       0.00000000       0.00000000       2.06121212       0.00000000       0.00000000       7.88820791
2
Properties=species:S:1:pos:R:3:forces:R:3 energy=-17.800548442667548 pbc="F F F"
Np       0.00000000       0.00000000       0.00000000       0.00000000       0.00000000      -2.64715719
Np       0.00000000       0.00000000       2.12000000       0.00000000       0.00000000       2.64715719
2
Properties=species:S:1:pos:R:3:forces:R:3 energy=-17.856982242825353 pbc="F F F"
Np       0.00000000       0.00000000       0.00000000       0.00000000       0.00000000       0.42180166
Np       0.00000000       0.00000000       2.17878788       0.00000000       0.00000000      -0.42180166
2
Properties=species:S:1:pos:R:3:forces:R:3 energy=-17.779421792416738 pbc="F F F"
Np       0.00000000       0.00000000       0.00000000       0.00000000       0.00000000       2.02722383
Np       0.00000000       0.00000000       2.23757576       0.00000000       0.00000000      -2.02722383
2
Properties=species:S:1:pos:R:3:forces:R:3 energy=-17.63672744022513 pbc="F F F"
Np       0.00000000       0.00000000       0.00000000       0.00000000       0.00000000       2.70087218
Np       0.00000000       0.00000000       2.29636364       0.00000000       0.00000000      -2.70087218
2
Properties=species:S:1:pos:R:3:forces:R:3 energy=-17.474413562425745 pbc="F F F"
Np       0.00000000       0.00000000       0.00000000       0.00000000       0.00000000       2.73147821
Np       0.00000000       0.00000000       2.35515152       0.00000000       0.00000000      -2.73147821
2
Properties=species:S:1:pos:R:3:forces:R:3 energy=-17.32429397393658 pbc="F F F"
Np       0.00000000       0.00000000       0.00000000       0.00000000       0.00000000       2.31675625
Np       0.00000000       0.00000000       2.41393939       0.00000000       0.00000000      -2.31675625
2
Properties=species:S:1:pos:R:3:forces:R:3 energy=-17.20711409487427 pbc="F F F"
Np       0.00000000       0.00000000       0.00000000       0.00000000       0.00000000       1.64241302
Np       0.00000000       0.00000000       2.47272727       0.00000000       0.00000000      -1.64241302
2
Properties=species:S:1:pos:R:3:forces:R:3 energy=-17.132526053651546 pbc="F F F"
Np       0.00000000       0.00000000       0.00000000       0.00000000       0.00000000       0.89923060
Np       0.00000000       0.00000000       2.53151515       0.00000000       0.00000000      -0.89923060
2
Properties=species:S:1:pos:R:3:forces:R:3 energy=-17.099283401264533 pbc="F F F"
Np       0.00000000       0.00000000       0.00000000       0.00000000       0.00000000       0.26143622
Np       0.00000000       0.00000000       2.59030303       0.00000000       0.00000000      -0.26143622
2
Properties=species:S:1:pos:R:3:forces:R:3 energy=-17.097308512483977 pbc="F F F"
Np       0.00000000       0.00000000       0.00000000       0.00000000       0.00000000      -0.15057454
Np       0.00000000       0.00000000       2.64909091       0.00000000       0.00000000       0.15057454
2
Properties=species:S:1:pos:R:3:forces:R:3 energy=-17.111692409979845 pbc="F F F"
Np       0.00000000       0.00000000       0.00000000       0.00000000       0.00000000      -0.29484606
Np       0.00000000       0.00000000       2.70787879       0.00000000       0.00000000       0.29484606
2
Properties=species:S:1:pos:R:3:forces:R:3 energy=-17.127299040564488 pbc="F F F"
Np       0.00000000       0.00000000       0.00000000       0.00000000       0.00000000      -0.20184031
Np       0.00000000       0.00000000       2.76666667       0.00000000       0.00000000       0.20184031
2
Properties=species:S:1:pos:R:3:forces:R:3 energy=-17.13216975311803 pbc="F F F"
Np       0.00000000       0.00000000       0.00000000       0.00000000       0.00000000       0.05703360
Np       0.00000000       0.00000000       2.82545455       0.00000000       0.00000000      -0.05703360
2
Properties=species:S:1:pos:R:3:forces:R:3 energy=-17.118887420328228 pbc="F F F"
Np       0.00000000       0.00000000       0.00000000       0.00000000       0.00000000       0.40336299
Np       0.00000000       0.00000000       2.88424242       0.00000000       0.00000000      -0.40336299
2
Properties=species:S:1:pos:R:3:forces:R:3 energy=-17.084368170222092 pbc="F F F"
Np       0.00000000       0.00000000       0.00000000       0.00000000       0.00000000       0.76922953
Np       0.00000000       0.00000000       2.94303030       0.00000000       0.00000000      -0.76922953
2
Properties=species:S:1:pos:R:3:forces:R:3 energy=-17.029159595910617 pbc="F F F"
Np       0.00000000       0.00000000       0.00000000       0.00000000       0.00000000       1.09900057
Np       0.00000000       0.00000000       3.00181818       0.00000000       0.00000000      -1.09900057
2
Properties=species:S:1:pos:R:3:forces:R:3 energy=-16.95672749589915 pbc="F F F"
Np       0.00000000       0.00000000       0.00000000       0.00000000       0.00000000       1.34910774
Np       0.00000000       0.00000000       3.06060606       0.00000000       0.00000000      -1.34910774
2
Properties=species:S:1:pos:R:3:forces:R:3 energy=-16.87260884656764 pbc="F F F"
Np       0.00000000       0.00000000       0.00000000       0.00000000       0.00000000       1.49434376
Np       0.00000000       0.00000000       3.11939394       0.00000000       0.00000000      -1.49434376
2
Properties=species:S:1:pos:R:3:forces:R:3 energy=-16.783090212308743 pbc="F F F"
Np       0.00000000       0.00000000       0.00000000       0.00000000       0.00000000       1.53517354
Np       0.00000000       0.00000000       3.17818182       0.00000000       0.00000000      -1.53517354
2
Properties=species:S:1:pos:R:3:forces:R:3 energy=-16.693693019273713 pbc="F F F"
Np       0.00000000       0.00000000       0.00000000       0.00000000       0.00000000       1.49559581
Np       0.00000000       0.00000000       3.23696970       0.00000000       0.00000000      -1.49559581
2
Properties=species:S:1:pos:R:3:forces:R:3 energy=-16.608143903892906 pbc="F F F"
Np       0.00000000       0.00000000       0.00000000       0.00000000       0.00000000       1.40988863
Np       0.00000000       0.00000000       3.29575758       0.00000000       0.00000000      -1.40988863
2
Properties=species:S:1:pos:R:3:forces:R:3 energy=-16.528254334500005 pbc="F F F"
Np       0.00000000       0.00000000       0.00000000       0.00000000       0.00000000       1.30687070
Np       0.00000000       0.00000000       3.35454545       0.00000000       0.00000000      -1.30687070
2
Properties=species:S:1:pos:R:3:forces:R:3 energy=-16.45452334617128 pbc="F F F"
Np       0.00000000       0.00000000       0.00000000       0.00000000       0.00000000       1.20166767
Np       0.00000000       0.00000000       3.41333333       0.00000000       0.00000000      -1.20166767
2
Properties=species:S:1:pos:R:3:forces:R:3 energy=-16.38694067388417 pbc="F F F"
Np       0.00000000       0.00000000       0.00000000       0.00000000       0.00000000       1.09759355
Np       0.00000000       0.00000000       3.47212121       0.00000000       0.00000000      -1.09759355
2
Properties=species:S:1:pos:R:3:forces:R:3 energy=-16.32548066711417 pbc="F F F"
Np       0.00000000       0.00000000       0.00000000       0.00000000       0.00000000       0.99321777
Np       0.00000000       0.00000000       3.53090909       0.00000000       0.00000000      -0.99321777
2
Properties=species:S:1:pos:R:3:forces:R:3 energy=-16.270178583780137 pbc="F F F"
Np       0.00000000       0.00000000       0.00000000       0.00000000       0.00000000       0.88810349
Np       0.00000000       0.00000000       3.58969697       0.00000000       0.00000000      -0.88810349
2
Properties=species:S:1:pos:R:3:forces:R:3 energy=-16.2210295641232 pbc="F F F"
Np       0.00000000       0.00000000       0.00000000       0.00000000       0.00000000       0.78460008
Np       0.00000000       0.00000000       3.64848485       0.00000000       0.00000000      -0.78460008
2
Properties=species:S:1:pos:R:3:forces:R:3 energy=-16.177817032686235 pbc="F F F"
Np       0.00000000       0.00000000       0.00000000       0.00000000       0.00000000       0.68686157
Np       0.00000000       0.00000000       3.70727273       0.00000000       0.00000000      -0.68686157
2
Properties=species:S:1:pos:R:3:forces:R:3 energy=-16.140068765938892 pbc="F F F"
Np       0.00000000       0.00000000       0.00000000       0.00000000       0.00000000       0.59936833
Np       0.00000000       0.00000000       3.76606061       0.00000000       0.00000000      -0.59936833
2
Properties=species:S:1:pos:R:3:forces:R:3 energy=-16.107065513360283 pbc="F F F"
Np       0.00000000       0.00000000       0.00000000       0.00000000       0.00000000       0.52608955
Np       0.00000000       0.00000000       3.82484848       0.00000000       0.00000000      -0.52608955
2
Properties=species:S:1:pos:R:3:forces:R:3 energy=-16.0778743506975 pbc="F F F"
Np       0.00000000       0.00000000       0.00000000       0.00000000       0.00000000       0.47008777
Np       0.00000000       0.00000000       3.88363636       0.00000000       0.00000000      -0.47008777
2
Properties=species:S:1:pos:R:3:forces:R:3 energy=-16.051419403920473 pbc="F F F"
Np       0.00000000       0.00000000       0.00000000       0.00000000       0.00000000       0.43318591
Np       0.00000000       0.00000000       3.94242424       0.00000000       0.00000000      -0.43318591
2
Properties=species:S:1:pos:R:3:forces:R:3 energy=-16.026564704845917 pbc="F F F"
Np       0.00000000       0.00000000       0.00000000       0.00000000       0.00000000       0.41552871
Np       0.00000000       0.00000000       4.00121212       0.00000000       0.00000000      -0.41552871
2
Properties=species:S:1:pos:R:3:forces:R:3 energy=-16.002220150356756 pbc="F F F"
Np       0.00000000       0.00000000       0.00000000       0.00000000       0.00000000       0.41535211
Np       0.00000000       0.00000000       4.06000000       0.00000000       0.00000000      -0.41535211
2
Properties=species:S:1:pos:R:3:forces:R:3 energy=-15.977454124670473 pbc="F F F"
Np       0.00000000       0.00000000       0.00000000       0.00000000       0.00000000       0.42918140
Np       0.00000000       0.00000000       4.11878788       0.00000000       0.00000000      -0.42918140
2
Properties=species:S:1:pos:R:3:forces:R:3 energy=-15.951574485628276 pbc="F F F"
Np       0.00000000       0.00000000       0.00000000       0.00000000       0.00000000       0.45239827
Np       0.00000000       0.00000000       4.17757576       0.00000000       0.00000000      -0.45239827
2
Properties=species:S:1:pos:R:3:forces:R:3 energy=-15.924178358500177 pbc="F F F"
Np       0.00000000       0.00000000       0.00000000       0.00000000       0.00000000       0.47993594
Np       0.00000000       0.00000000       4.23636364       0.00000000       0.00000000      -0.47993594
2
Properties=species:S:1:pos:R:3:forces:R:3 energy=-15.895155798626782 pbc="F F F"
Np       0.00000000       0.00000000       0.00000000       0.00000000       0.00000000       0.50692326
Np       0.00000000       0.00000000       4.29515152       0.00000000       0.00000000      -0.50692326
2
Properties=species:S:1:pos:R:3:forces:R:3 energy=-15.86467008104087 pbc="F F F"
Np       0.00000000       0.00000000       0.00000000       0.00000000       0.00000000       0.52919227
Np       0.00000000       0.00000000       4.35393939       0.00000000       0.00000000      -0.52919227
2
Properties=species:S:1:pos:R:3:forces:R:3 energy=-15.833090727853337 pbc="F F F"
Np       0.00000000       0.00000000       0.00000000       0.00000000       0.00000000       0.54365128
Np       0.00000000       0.00000000       4.41272727       0.00000000       0.00000000      -0.54365128
2
Properties=species:S:1:pos:R:3:forces:R:3 energy=-15.80093743153785 pbc="F F F"
Np       0.00000000       0.00000000       0.00000000       0.00000000       0.00000000       0.54853314
Np       0.00000000       0.00000000       4.47151515       0.00000000       0.00000000      -0.54853314
2
Properties=species:S:1:pos:R:3:forces:R:3 energy=-15.768790510915426 pbc="F F F"
Np       0.00000000       0.00000000       0.00000000       0.00000000       0.00000000       0.54350322
Np       0.00000000       0.00000000       4.53030303       0.00000000       0.00000000      -0.54350322
2
Properties=species:S:1:pos:R:3:forces:R:3 energy=-15.737209760138505 pbc="F F F"
Np       0.00000000       0.00000000       0.00000000       0.00000000       0.00000000       0.52959079
Np       0.00000000       0.00000000       4.58909091       0.00000000       0.00000000      -0.52959079
2
Properties=species:S:1:pos:R:3:forces:R:3 energy=-15.70665824978031 pbc="F F F"
Np       0.00000000       0.00000000       0.00000000       0.00000000       0.00000000       0.50888729
Np       0.00000000       0.00000000       4.64787879       0.00000000       0.00000000      -0.50888729
2
Properties=species:S:1:pos:R:3:forces:R:3 energy=-15.677457624519212 pbc="F F F"
Np       0.00000000       0.00000000       0.00000000       0.00000000       0.00000000       0.48400572
Np       0.00000000       0.00000000       4.70666667       0.00000000       0.00000000      -0.48400572
2
Properties=species:S:1:pos:R:3:forces:R:3 energy=-15.649782292393818 pbc="F F F"
Np       0.00000000       0.00000000       0.00000000       0.00000000       0.00000000       0.45745239
Np       0.00000000       0.00000000       4.76545455       0.00000000       0.00000000      -0.45745239
2
Properties=species:S:1:pos:R:3:forces:R:3 energy=-15.623669978576888 pbc="F F F"
Np       0.00000000       0.00000000       0.00000000       0.00000000       0.00000000       0.43099123
Np       0.00000000       0.00000000       4.82424242       0.00000000       0.00000000      -0.43099123
2
Properties=species:S:1:pos:R:3:forces:R:3 energy=-15.599093345983736 pbc="F F F"
Np       0.00000000       0.00000000       0.00000000       0.00000000       0.00000000       0.40534008
Np       0.00000000       0.00000000       4.88303030       0.00000000       0.00000000      -0.40534008
2
Properties=species:S:1:pos:R:3:forces:R:3 energy=-15.57600083220543 pbc="F F F"
Np       0.00000000       0.00000000       0.00000000       0.00000000       0.00000000       0.38026550
Np       0.00000000       0.00000000       4.94181818       0.00000000       0.00000000      -0.38026550
2
Properties=species:S:1:pos:R:3:forces:R:3 energy=-15.554382554406946 pbc="F F F"
Np       0.00000000       0.00000000       0.00000000       0.00000000       0.00000000       0.35512444
Np       0.00000000       0.00000000       5.00060606       0.00000000       0.00000000      -0.35512444
2
Properties=species:S:1:pos:R:3:forces:R:3 energy=-15.534251229505182 pbc="F F F"
Np       0.00000000       0.00000000       0.00000000       0.00000000       0.00000000       0.32975501
Np       0.00000000       0.00000000       5.05939394       0.00000000       0.00000000      -0.32975501
2
Properties=species:S:1:pos:R:3:forces:R:3 energy=-15.515591490046024 pbc="F F F"
Np       0.00000000       0.00000000       0.00000000       0.00000000       0.00000000       0.30544871
Np       0.00000000       0.00000000       5.11818182       0.00000000       0.00000000      -0.30544871
2
Properties=species:S:1:pos:R:3:forces:R:3 energy=-15.498258801062448 pbc="F F F"
Np       0.00000000       0.00000000       0.00000000       0.00000000       0.00000000       0.28525653
Np       0.00000000       0.00000000       5.17696970       0.00000000       0.00000000      -0.28525653
2
Properties=species:S:1:pos:R:3:forces:R:3 energy=-15.48190882481866 pbc="F F F"
Np       0.00000000       0.00000000       0.00000000       0.00000000       0.00000000       0.27236912
Np       0.00000000       0.00000000       5.23575758       0.00000000       0.00000000      -0.27236912
2
Properties=species:S:1:pos:R:3:forces:R:3 energy=-15.466094581548779 pbc="F F F"
Np       0.00000000       0.00000000       0.00000000       0.00000000       0.00000000       0.26649562
Np       0.00000000       0.00000000       5.29454545       0.00000000       0.00000000      -0.26649562
2
Properties=species:S:1:pos:R:3:forces:R:3 energy=-15.450544890678994 pbc="F F F"
Np       0.00000000       0.00000000       0.00000000       0.00000000       0.00000000       0.26206908
Np       0.00000000       0.00000000       5.35333333       0.00000000       0.00000000      -0.26206908
2
Properties=species:S:1:pos:R:3:forces:R:3 energy=-15.435383557529248 pbc="F F F"
Np       0.00000000       0.00000000       0.00000000       0.00000000       0.00000000       0.25255623
Np       0.00000000       0.00000000       5.41212121       0.00000000       0.00000000      -0.25255623
2
Properties=species:S:1:pos:R:3:forces:R:3 energy=-15.42095766125111 pbc="F F F"
Np       0.00000000       0.00000000       0.00000000       0.00000000       0.00000000       0.23787135
Np       0.00000000       0.00000000       5.47090909       0.00000000       0.00000000      -0.23787135
2
Properties=species:S:1:pos:R:3:forces:R:3 energy=-15.407348212197526 pbc="F F F"
Np       0.00000000       0.00000000       0.00000000       0.00000000       0.00000000       0.22672988
Np       0.00000000       0.00000000       5.52969697       0.00000000       0.00000000      -0.22672988
2
Properties=species:S:1:pos:R:3:forces:R:3 energy=-15.394011424660013 pbc="F F F"
Np       0.00000000       0.00000000       0.00000000       0.00000000       0.00000000       0.22992221
Np       0.00000000       0.00000000       5.58848485       0.00000000       0.00000000      -0.22992221
2
Properties=species:S:1:pos:R:3:forces:R:3 energy=-15.380027663879122 pbc="F F F"
Np       0.00000000       0.00000000       0.00000000       0.00000000       0.00000000       0.24707650
Np       0.00000000       0.00000000       5.64727273       0.00000000       0.00000000      -0.24707650
2
Properties=species:S:1:pos:R:3:forces:R:3 energy=-15.365069191056739 pbc="F F F"
Np       0.00000000       0.00000000       0.00000000       0.00000000       0.00000000       0.25877360
Np       0.00000000       0.00000000       5.70606061       0.00000000       0.00000000      -0.25877360
2
Properties=species:S:1:pos:R:3:forces:R:3 energy=-15.350189761340568 pbc="F F F"
Np       0.00000000       0.00000000       0.00000000       0.00000000       0.00000000       0.24018630
Np       0.00000000       0.00000000       5.76484848       0.00000000       0.00000000      -0.24018630
2
Properties=species:S:1:pos:R:3:forces:R:3 energy=-15.337551974339943 pbc="F F F"
Np       0.00000000       0.00000000       0.00000000       0.00000000       0.00000000       0.18539411
Np       0.00000000       0.00000000       5.82363636       0.00000000       0.00000000      -0.18539411
2
Properties=species:S:1:pos:R:3:forces:R:3 energy=-15.328729417060414 pbc="F F F"
Np       0.00000000       0.00000000       0.00000000       0.00000000       0.00000000       0.11523364
Np       0.00000000       0.00000000       5.88242424       0.00000000       0.00000000      -0.11523364
2
Properties=species:S:1:pos:R:3:forces:R:3 energy=-15.323717817679226 pbc="F F F"
Np       0.00000000       0.00000000       0.00000000       0.00000000       0.00000000       0.05923961
Np       0.00000000       0.00000000       5.94121212       0.00000000       0.00000000      -0.05923961
2
Properties=species:S:1:pos:R:3:forces:R:3 energy=-15.321070460962607 pbc="F F F"
Np       0.00000000       0.00000000       0.00000000       0.00000000       0.00000000       0.03771560
Np       0.00000000       0.00000000       6.00000000       0.00000000       0.00000000      -0.03771560
