2
Properties=species:S:1:pos:R:3:forces:R:3 energy=15432.187096305026 pbc="F F F"
Os       0.00000000       0.00000000       0.00000000       0.00000000       0.00000000 -269946.62500000
Os       0.00000000       0.00000000       0.18000000       0.00000000       0.00000000  269946.62500000
2
Properties=species:S:1:pos:R:3:forces:R:3 energy=6014.278404898775 pbc="F F F"
Os       0.00000000       0.00000000       0.00000000       0.00000000       0.00000000  -88896.77343750
Os       0.00000000       0.00000000       0.23878788       0.00000000       0.00000000   88896.77343750
2
Properties=species:S:1:pos:R:3:forces:R:3 energy=2672.745934201986 pbc="F F F"
Os       0.00000000       0.00000000       0.00000000       0.00000000       0.00000000  -34429.87500000
Os       0.00000000       0.00000000       0.29757576       0.00000000       0.00000000   34429.87500000
2
Properties=species:S:1:pos:R:3:forces:R:3 energy=1317.3056265847986 pbc="F F F"
Os       0.00000000       0.00000000       0.00000000       0.00000000       0.00000000  -14747.06054688
Os       0.00000000       0.00000000       0.35636364       0.00000000       0.00000000   14747.06054688
2
Properties=species:S:1:pos:R:3:forces:R:3 energy=717.4663931863612 pbc="F F F"
Os       0.00000000       0.00000000       0.00000000       0.00000000       0.00000000   -6785.21972656
Os       0.00000000       0.00000000       0.41515152       0.00000000       0.00000000    6785.21972656
2
Properties=species:S:1:pos:R:3:forces:R:3 energy=434.39525671808747 pbc="F F F"
Os       0.00000000       0.00000000       0.00000000       0.00000000       0.00000000   -3298.90722656
Os       0.00000000       0.00000000       0.47393939       0.00000000       0.00000000    3298.90722656
2
Properties=species:S:1:pos:R:3:forces:R:3 energy=294.1401603015475 pbc="F F F"
Os       0.00000000       0.00000000       0.00000000       0.00000000       0.00000000   -1668.21228027
Os       0.00000000       0.00000000       0.53272727       0.00000000       0.00000000    1668.21228027
2
Properties=species:S:1:pos:R:3:forces:R:3 energy=222.5968558835307 pbc="F F F"
Os       0.00000000       0.00000000       0.00000000       0.00000000       0.00000000    -854.49035645
Os       0.00000000       0.00000000       0.59151515       0.00000000       0.00000000     854.49035645
2
Properties=species:S:1:pos:R:3:forces:R:3 energy=186.3863151500602 pbc="F F F"
Os       0.00000000       0.00000000       0.00000000       0.00000000       0.00000000    -420.23013306
Os       0.00000000       0.00000000       0.65030303       0.00000000       0.00000000     420.23013306
2
Properties=species:S:1:pos:R:3:forces:R:3 energy=169.5062798256973 pbc="F F F"
Os       0.00000000       0.00000000       0.00000000       0.00000000       0.00000000    -177.07171631
Os       0.00000000       0.00000000       0.70909091       0.00000000       0.00000000     177.07171631
2
Properties=species:S:1:pos:R:3:forces:R:3 energy=163.47374818245072 pbc="F F F"
Os       0.00000000       0.00000000       0.00000000       0.00000000       0.00000000     -42.04521942
Os       0.00000000       0.00000000       0.76787879       0.00000000       0.00000000      42.04521942
2
Properties=species:S:1:pos:R:3:forces:R:3 energy=163.2057124458343 pbc="F F F"
Os       0.00000000       0.00000000       0.00000000       0.00000000       0.00000000      22.80685997
Os       0.00000000       0.00000000       0.82666667       0.00000000       0.00000000     -22.80685997
2
Properties=species:S:1:pos:R:3:forces:R:3 energy=165.01229225108995 pbc="F F F"
Os       0.00000000       0.00000000       0.00000000       0.00000000       0.00000000      29.01999474
Os       0.00000000       0.00000000       0.88545455       0.00000000       0.00000000     -29.01999474
2
Properties=species:S:1:pos:R:3:forces:R:3 energy=165.50942390285712 pbc="F F F"
Os       0.00000000       0.00000000       0.00000000       0.00000000       0.00000000     -20.91288376
Os       0.00000000       0.00000000       0.94424242       0.00000000       0.00000000      20.91288376
2
Properties=species:S:1:pos:R:3:forces:R:3 energy=161.68691455538465 pbc="F F F"
Os       0.00000000       0.00000000       0.00000000       0.00000000       0.00000000    -114.55612946
Os       0.00000000       0.00000000       1.00303030       0.00000000       0.00000000     114.55612946
2
Properties=species:S:1:pos:R:3:forces:R:3 energy=151.70373029846823 pbc="F F F"
Os       0.00000000       0.00000000       0.00000000       0.00000000       0.00000000    -225.16017151
Os       0.00000000       0.00000000       1.06181818       0.00000000       0.00000000     225.16017151
2
Properties=species:S:1:pos:R:3:forces:R:3 energy=135.53991268669927 pbc="F F F"
Os       0.00000000       0.00000000       0.00000000       0.00000000       0.00000000    -319.23431396
Os       0.00000000       0.00000000       1.12060606       0.00000000       0.00000000     319.23431396
2
Properties=species:S:1:pos:R:3:forces:R:3 energy=115.07284212918536 pbc="F F F"
Os       0.00000000       0.00000000       0.00000000       0.00000000       0.00000000    -367.80969238
Os       0.00000000       0.00000000       1.17939394       0.00000000       0.00000000     367.80969238
2
Properties=species:S:1:pos:R:3:forces:R:3 energy=93.40672859235313 pbc="F F F"
Os       0.00000000       0.00000000       0.00000000       0.00000000       0.00000000    -360.81802368
Os       0.00000000       0.00000000       1.23818182       0.00000000       0.00000000     360.81802368
2
Properties=species:S:1:pos:R:3:forces:R:3 energy=73.34697678680585 pbc="F F F"
Os       0.00000000       0.00000000       0.00000000       0.00000000       0.00000000    -318.62020874
Os       0.00000000       0.00000000       1.29696970       0.00000000       0.00000000     318.62020874
2
Properties=species:S:1:pos:R:3:forces:R:3 energy=56.031076123258025 pbc="F F F"
Os       0.00000000       0.00000000       0.00000000       0.00000000       0.00000000    -271.10873413
Os       0.00000000       0.00000000       1.35575758       0.00000000       0.00000000     271.10873413
2
Properties=species:S:1:pos:R:3:forces:R:3 energy=41.35923801513371 pbc="F F F"
Os       0.00000000       0.00000000       0.00000000       0.00000000       0.00000000    -229.03865051
Os       0.00000000       0.00000000       1.41454545       0.00000000       0.00000000     229.03865051
2
Properties=species:S:1:pos:R:3:forces:R:3 energy=28.975646685855516 pbc="F F F"
Os       0.00000000       0.00000000       0.00000000       0.00000000       0.00000000    -193.42855835
Os       0.00000000       0.00000000       1.47333333       0.00000000       0.00000000     193.42855835
2
Properties=species:S:1:pos:R:3:forces:R:3 energy=18.50147418491987 pbc="F F F"
Os       0.00000000       0.00000000       0.00000000       0.00000000       0.00000000    -163.32664490
Os       0.00000000       0.00000000       1.53212121       0.00000000       0.00000000     163.32664490
2
Properties=species:S:1:pos:R:3:forces:R:3 energy=9.826154541000164 pbc="F F F"
Os       0.00000000       0.00000000       0.00000000       0.00000000       0.00000000    -130.72921753
Os       0.00000000       0.00000000       1.59090909       0.00000000       0.00000000     130.72921753
2
Properties=species:S:1:pos:R:3:forces:R:3 energy=3.2261694807168433 pbc="F F F"
Os       0.00000000       0.00000000       0.00000000       0.00000000       0.00000000     -93.84464264
Os       0.00000000       0.00000000       1.64969697       0.00000000       0.00000000      93.84464264
2
Properties=species:S:1:pos:R:3:forces:R:3 energy=-1.3356774674032874 pbc="F F F"
Os       0.00000000       0.00000000       0.00000000       0.00000000       0.00000000     -63.15467834
Os       0.00000000       0.00000000       1.70848485       0.00000000       0.00000000      63.15467834
2
Properties=species:S:1:pos:R:3:forces:R:3 energy=-4.411403394897049 pbc="F F F"
Os       0.00000000       0.00000000       0.00000000       0.00000000       0.00000000     -42.96783066
Os       0.00000000       0.00000000       1.76727273       0.00000000       0.00000000      42.96783066
2
Properties=species:S:1:pos:R:3:forces:R:3 energy=-6.513851894781533 pbc="F F F"
Os       0.00000000       0.00000000       0.00000000       0.00000000       0.00000000     -29.32010841
Os       0.00000000       0.00000000       1.82606061       0.00000000       0.00000000      29.32010841
2
Properties=species:S:1:pos:R:3:forces:R:3 energy=-7.93113333095776 pbc="F F F"
Os       0.00000000       0.00000000       0.00000000       0.00000000       0.00000000     -19.43310165
Os       0.00000000       0.00000000       1.88484848       0.00000000       0.00000000      19.43310165
2
Properties=species:S:1:pos:R:3:forces:R:3 energy=-8.85555468448245 pbc="F F F"
Os       0.00000000       0.00000000       0.00000000       0.00000000       0.00000000     -12.43767738
Os       0.00000000       0.00000000       1.94363636       0.00000000       0.00000000      12.43767738
2
Properties=species:S:1:pos:R:3:forces:R:3 energy=-9.433899376786037 pbc="F F F"
Os       0.00000000       0.00000000       0.00000000       0.00000000       0.00000000      -7.50346041
Os       0.00000000       0.00000000       2.00242424       0.00000000       0.00000000       7.50346041
2
Properties=species:S:1:pos:R:3:forces:R:3 energy=-9.762042371323812 pbc="F F F"
Os       0.00000000       0.00000000       0.00000000       0.00000000       0.00000000      -3.82604408
Os       0.00000000       0.00000000       2.06121212       0.00000000       0.00000000       3.82604408
2
Properties=species:S:1:pos:R:3:forces:R:3 energy=-9.901030194938263 pbc="F F F"
Os       0.00000000       0.00000000       0.00000000       0.00000000       0.00000000      -1.03724480
Os       0.00000000       0.00000000       2.12000000       0.00000000       0.00000000       1.03724480
2
Properties=species:S:1:pos:R:3:forces:R:3 energy=-9.898689366388087 pbc="F F F"
Os       0.00000000       0.00000000       0.00000000       0.00000000       0.00000000       1.00223017
Os       0.00000000       0.00000000       2.17878788       0.00000000       0.00000000      -1.00223017
2
Properties=species:S:1:pos:R:3:forces:R:3 energy=-9.795397637013613 pbc="F F F"
Os       0.00000000       0.00000000       0.00000000       0.00000000       0.00000000       2.41850805
Os       0.00000000       0.00000000       2.23757576       0.00000000       0.00000000      -2.41850805
2
Properties=species:S:1:pos:R:3:forces:R:3 energy=-9.624178622754153 pbc="F F F"
Os       0.00000000       0.00000000       0.00000000       0.00000000       0.00000000       3.33203435
Os       0.00000000       0.00000000       2.29636364       0.00000000       0.00000000      -3.33203435
2
Properties=species:S:1:pos:R:3:forces:R:3 energy=-9.411323098647 pbc="F F F"
Os       0.00000000       0.00000000       0.00000000       0.00000000       0.00000000       3.85297656
Os       0.00000000       0.00000000       2.35515152       0.00000000       0.00000000      -3.85297656
2
Properties=species:S:1:pos:R:3:forces:R:3 energy=-9.176834316416608 pbc="F F F"
Os       0.00000000       0.00000000       0.00000000       0.00000000       0.00000000       4.08390141
Os       0.00000000       0.00000000       2.41393939       0.00000000       0.00000000      -4.08390141
2
Properties=species:S:1:pos:R:3:forces:R:3 energy=-8.93516185724611 pbc="F F F"
Os       0.00000000       0.00000000       0.00000000       0.00000000       0.00000000       4.10927200
Os       0.00000000       0.00000000       2.47272727       0.00000000       0.00000000      -4.10927200
2
Properties=species:S:1:pos:R:3:forces:R:3 energy=-8.696585700043578 pbc="F F F"
Os       0.00000000       0.00000000       0.00000000       0.00000000       0.00000000       3.98582292
Os       0.00000000       0.00000000       2.53151515       0.00000000       0.00000000      -3.98582292
2
Properties=species:S:1:pos:R:3:forces:R:3 energy=-8.468743395188293 pbc="F F F"
Os       0.00000000       0.00000000       0.00000000       0.00000000       0.00000000       3.74902987
Os       0.00000000       0.00000000       2.59030303       0.00000000       0.00000000      -3.74902987
2
Properties=species:S:1:pos:R:3:forces:R:3 energy=-8.257410737031051 pbc="F F F"
Os       0.00000000       0.00000000       0.00000000       0.00000000       0.00000000       3.42981386
Os       0.00000000       0.00000000       2.64909091       0.00000000       0.00000000      -3.42981386
2
Properties=species:S:1:pos:R:3:forces:R:3 energy=-8.066346222939924 pbc="F F F"
Os       0.00000000       0.00000000       0.00000000       0.00000000       0.00000000       3.06681967
Os       0.00000000       0.00000000       2.70787879       0.00000000       0.00000000      -3.06681967
2
Properties=species:S:1:pos:R:3:forces:R:3 energy=-7.896744176437986 pbc="F F F"
Os       0.00000000       0.00000000       0.00000000       0.00000000       0.00000000       2.70802903
Os       0.00000000       0.00000000       2.76666667       0.00000000       0.00000000      -2.70802903
2
Properties=species:S:1:pos:R:3:forces:R:3 energy=-7.746946958138237 pbc="F F F"
Os       0.00000000       0.00000000       0.00000000       0.00000000       0.00000000       2.39954877
Os       0.00000000       0.00000000       2.82545455       0.00000000       0.00000000      -2.39954877
2
Properties=species:S:1:pos:R:3:forces:R:3 energy=-7.613094283906816 pbc="F F F"
Os       0.00000000       0.00000000       0.00000000       0.00000000       0.00000000       2.16787815
Os       0.00000000       0.00000000       2.88424242       0.00000000       0.00000000      -2.16787815
2
Properties=species:S:1:pos:R:3:forces:R:3 energy=-7.490459201066441 pbc="F F F"
Os       0.00000000       0.00000000       0.00000000       0.00000000       0.00000000       2.01728654
Os       0.00000000       0.00000000       2.94303030       0.00000000       0.00000000      -2.01728654
2
Properties=species:S:1:pos:R:3:forces:R:3 energy=-7.374521957239432 pbc="F F F"
Os       0.00000000       0.00000000       0.00000000       0.00000000       0.00000000       1.93706679
Os       0.00000000       0.00000000       3.00181818       0.00000000       0.00000000      -1.93706679
2
Properties=species:S:1:pos:R:3:forces:R:3 energy=-7.261787433951691 pbc="F F F"
Os       0.00000000       0.00000000       0.00000000       0.00000000       0.00000000       1.90349972
Os       0.00000000       0.00000000       3.06060606       0.00000000       0.00000000      -1.90349972
2
Properties=species:S:1:pos:R:3:forces:R:3 energy=-7.150415317987799 pbc="F F F"
Os       0.00000000       0.00000000       0.00000000       0.00000000       0.00000000       1.88550186
Os       0.00000000       0.00000000       3.11939394       0.00000000       0.00000000      -1.88550186
2
Properties=species:S:1:pos:R:3:forces:R:3 energy=-7.040335937182158 pbc="F F F"
Os       0.00000000       0.00000000       0.00000000       0.00000000       0.00000000       1.85579371
Os       0.00000000       0.00000000       3.17818182       0.00000000       0.00000000      -1.85579371
2
Properties=species:S:1:pos:R:3:forces:R:3 energy=-6.9327469958929235 pbc="F F F"
Os       0.00000000       0.00000000       0.00000000       0.00000000       0.00000000       1.79961896
Os       0.00000000       0.00000000       3.23696970       0.00000000       0.00000000      -1.79961896
2
Properties=species:S:1:pos:R:3:forces:R:3 energy=-6.829281998200525 pbc="F F F"
Os       0.00000000       0.00000000       0.00000000       0.00000000       0.00000000       1.71636689
Os       0.00000000       0.00000000       3.29575758       0.00000000       0.00000000      -1.71636689
2
Properties=species:S:1:pos:R:3:forces:R:3 energy=-6.731304444951651 pbc="F F F"
Os       0.00000000       0.00000000       0.00000000       0.00000000       0.00000000       1.61477745
Os       0.00000000       0.00000000       3.35454545       0.00000000       0.00000000      -1.61477745
2
Properties=species:S:1:pos:R:3:forces:R:3 energy=-6.639564832139667 pbc="F F F"
Os       0.00000000       0.00000000       0.00000000       0.00000000       0.00000000       1.50581777
Os       0.00000000       0.00000000       3.41333333       0.00000000       0.00000000      -1.50581777
2
Properties=species:S:1:pos:R:3:forces:R:3 energy=-6.5542421640879285 pbc="F F F"
Os       0.00000000       0.00000000       0.00000000       0.00000000       0.00000000       1.39739716
Os       0.00000000       0.00000000       3.47212121       0.00000000       0.00000000      -1.39739716
2
Properties=species:S:1:pos:R:3:forces:R:3 energy=-6.475188697624824 pbc="F F F"
Os       0.00000000       0.00000000       0.00000000       0.00000000       0.00000000       1.29277456
Os       0.00000000       0.00000000       3.53090909       0.00000000       0.00000000      -1.29277456
2
Properties=species:S:1:pos:R:3:forces:R:3 energy=-6.402169997082789 pbc="F F F"
Os       0.00000000       0.00000000       0.00000000       0.00000000       0.00000000       1.19185281
Os       0.00000000       0.00000000       3.58969697       0.00000000       0.00000000      -1.19185281
2
Properties=species:S:1:pos:R:3:forces:R:3 energy=-6.335006090768431 pbc="F F F"
Os       0.00000000       0.00000000       0.00000000       0.00000000       0.00000000       1.09342515
Os       0.00000000       0.00000000       3.64848485       0.00000000       0.00000000      -1.09342515
2
Properties=species:S:1:pos:R:3:forces:R:3 energy=-6.273577265868324 pbc="F F F"
Os       0.00000000       0.00000000       0.00000000       0.00000000       0.00000000       0.99675173
Os       0.00000000       0.00000000       3.70727273       0.00000000       0.00000000      -0.99675173
2
Properties=species:S:1:pos:R:3:forces:R:3 energy=-6.217774022722165 pbc="F F F"
Os       0.00000000       0.00000000       0.00000000       0.00000000       0.00000000       0.90205973
Os       0.00000000       0.00000000       3.76606061       0.00000000       0.00000000      -0.90205973
2
Properties=species:S:1:pos:R:3:forces:R:3 energy=-6.167459938545225 pbc="F F F"
Os       0.00000000       0.00000000       0.00000000       0.00000000       0.00000000       0.81023431
Os       0.00000000       0.00000000       3.82484848       0.00000000       0.00000000      -0.81023431
2
Properties=species:S:1:pos:R:3:forces:R:3 energy=-6.122435465818194 pbc="F F F"
Os       0.00000000       0.00000000       0.00000000       0.00000000       0.00000000       0.72222322
Os       0.00000000       0.00000000       3.88363636       0.00000000       0.00000000      -0.72222322
2
Properties=species:S:1:pos:R:3:forces:R:3 energy=-6.0824565891249724 pbc="F F F"
Os       0.00000000       0.00000000       0.00000000       0.00000000       0.00000000       0.63865817
Os       0.00000000       0.00000000       3.94242424       0.00000000       0.00000000      -0.63865817
2
Properties=species:S:1:pos:R:3:forces:R:3 energy=-6.047253443976594 pbc="F F F"
Os       0.00000000       0.00000000       0.00000000       0.00000000       0.00000000       0.55977035
Os       0.00000000       0.00000000       4.00121212       0.00000000       0.00000000      -0.55977035
2
Properties=species:S:1:pos:R:3:forces:R:3 energy=-6.016548897621287 pbc="F F F"
Os       0.00000000       0.00000000       0.00000000       0.00000000       0.00000000       0.48562241
Os       0.00000000       0.00000000       4.06000000       0.00000000       0.00000000      -0.48562241
2
Properties=species:S:1:pos:R:3:forces:R:3 energy=-5.99005870743558 pbc="F F F"
Os       0.00000000       0.00000000       0.00000000       0.00000000       0.00000000       0.41645795
Os       0.00000000       0.00000000       4.11878788       0.00000000       0.00000000      -0.41645795
2
Properties=species:S:1:pos:R:3:forces:R:3 energy=-5.967472838743935 pbc="F F F"
Os       0.00000000       0.00000000       0.00000000       0.00000000       0.00000000       0.35294372
Os       0.00000000       0.00000000       4.17757576       0.00000000       0.00000000      -0.35294372
2
Properties=species:S:1:pos:R:3:forces:R:3 energy=-5.948427385279389 pbc="F F F"
Os       0.00000000       0.00000000       0.00000000       0.00000000       0.00000000       0.29623193
Os       0.00000000       0.00000000       4.23636364       0.00000000       0.00000000      -0.29623193
2
Properties=species:S:1:pos:R:3:forces:R:3 energy=-5.932481668328674 pbc="F F F"
Os       0.00000000       0.00000000       0.00000000       0.00000000       0.00000000       0.24773504
Os       0.00000000       0.00000000       4.29515152       0.00000000       0.00000000      -0.24773504
2
Properties=species:S:1:pos:R:3:forces:R:3 energy=-5.9191139705403675 pbc="F F F"
Os       0.00000000       0.00000000       0.00000000       0.00000000       0.00000000       0.20872392
Os       0.00000000       0.00000000       4.35393939       0.00000000       0.00000000      -0.20872392
2
Properties=species:S:1:pos:R:3:forces:R:3 energy=-5.907742456571232 pbc="F F F"
Os       0.00000000       0.00000000       0.00000000       0.00000000       0.00000000       0.17983600
Os       0.00000000       0.00000000       4.41272727       0.00000000       0.00000000      -0.17983600
2
Properties=species:S:1:pos:R:3:forces:R:3 energy=-5.897776636653263 pbc="F F F"
Os       0.00000000       0.00000000       0.00000000       0.00000000       0.00000000       0.16073045
Os       0.00000000       0.00000000       4.47151515       0.00000000       0.00000000      -0.16073045
2
Properties=species:S:1:pos:R:3:forces:R:3 energy=-5.888679857603983 pbc="F F F"
Os       0.00000000       0.00000000       0.00000000       0.00000000       0.00000000       0.14996529
Os       0.00000000       0.00000000       4.53030303       0.00000000       0.00000000      -0.14996529
2
Properties=species:S:1:pos:R:3:forces:R:3 energy=-5.88002683539584 pbc="F F F"
Os       0.00000000       0.00000000       0.00000000       0.00000000       0.00000000       0.14519675
Os       0.00000000       0.00000000       4.58909091       0.00000000       0.00000000      -0.14519675
2
Properties=species:S:1:pos:R:3:forces:R:3 energy=-5.871546096831102 pbc="F F F"
Os       0.00000000       0.00000000       0.00000000       0.00000000       0.00000000       0.14363100
Os       0.00000000       0.00000000       4.64787879       0.00000000       0.00000000      -0.14363100
2
Properties=species:S:1:pos:R:3:forces:R:3 energy=-5.863129430753829 pbc="F F F"
Os       0.00000000       0.00000000       0.00000000       0.00000000       0.00000000       0.14258604
Os       0.00000000       0.00000000       4.70666667       0.00000000       0.00000000      -0.14258604
2
Properties=species:S:1:pos:R:3:forces:R:3 energy=-5.854811769022386 pbc="F F F"
Os       0.00000000       0.00000000       0.00000000       0.00000000       0.00000000       0.14001435
Os       0.00000000       0.00000000       4.76545455       0.00000000       0.00000000      -0.14001435
2
Properties=species:S:1:pos:R:3:forces:R:3 energy=-5.846718648890837 pbc="F F F"
Os       0.00000000       0.00000000       0.00000000       0.00000000       0.00000000       0.13483606
Os       0.00000000       0.00000000       4.82424242       0.00000000       0.00000000      -0.13483606
2
Properties=species:S:1:pos:R:3:forces:R:3 energy=-5.839010400886688 pbc="F F F"
Os       0.00000000       0.00000000       0.00000000       0.00000000       0.00000000       0.12705031
Os       0.00000000       0.00000000       4.88303030       0.00000000       0.00000000      -0.12705031
2
Properties=species:S:1:pos:R:3:forces:R:3 energy=-5.831814715198778 pbc="F F F"
Os       0.00000000       0.00000000       0.00000000       0.00000000       0.00000000       0.11756656
Os       0.00000000       0.00000000       4.94181818       0.00000000       0.00000000      -0.11756656
2
Properties=species:S:1:pos:R:3:forces:R:3 energy=-5.82519188324989 pbc="F F F"
Os       0.00000000       0.00000000       0.00000000       0.00000000       0.00000000       0.10781899
Os       0.00000000       0.00000000       5.00060606       0.00000000       0.00000000      -0.10781899
2
Properties=species:S:1:pos:R:3:forces:R:3 energy=-5.819116102845091 pbc="F F F"
Os       0.00000000       0.00000000       0.00000000       0.00000000       0.00000000       0.09911779
Os       0.00000000       0.00000000       5.05939394       0.00000000       0.00000000      -0.09911779
2
Properties=species:S:1:pos:R:3:forces:R:3 energy=-5.813507809647738 pbc="F F F"
Os       0.00000000       0.00000000       0.00000000       0.00000000       0.00000000       0.09189920
Os       0.00000000       0.00000000       5.11818182       0.00000000       0.00000000      -0.09189920
2
Properties=species:S:1:pos:R:3:forces:R:3 energy=-5.8082980596992995 pbc="F F F"
Os       0.00000000       0.00000000       0.00000000       0.00000000       0.00000000       0.08535547
Os       0.00000000       0.00000000       5.17696970       0.00000000       0.00000000      -0.08535547
2
Properties=species:S:1:pos:R:3:forces:R:3 energy=-5.803484747102786 pbc="F F F"
Os       0.00000000       0.00000000       0.00000000       0.00000000       0.00000000       0.07823507
Os       0.00000000       0.00000000       5.23575758       0.00000000       0.00000000      -0.07823507
2
Properties=species:S:1:pos:R:3:forces:R:3 energy=-5.799112088937563 pbc="F F F"
Os       0.00000000       0.00000000       0.00000000       0.00000000       0.00000000       0.07055319
Os       0.00000000       0.00000000       5.29454545       0.00000000       0.00000000      -0.07055319
2
Properties=species:S:1:pos:R:3:forces:R:3 energy=-5.795168108438163 pbc="F F F"
Os       0.00000000       0.00000000       0.00000000       0.00000000       0.00000000       0.06394456
Os       0.00000000       0.00000000       5.35333333       0.00000000       0.00000000      -0.06394456
2
Properties=species:S:1:pos:R:3:forces:R:3 energy=-5.791548360524218 pbc="F F F"
Os       0.00000000       0.00000000       0.00000000       0.00000000       0.00000000       0.05953743
Os       0.00000000       0.00000000       5.41212121       0.00000000       0.00000000      -0.05953743
2
Properties=species:S:1:pos:R:3:forces:R:3 energy=-5.788146591049139 pbc="F F F"
Os       0.00000000       0.00000000       0.00000000       0.00000000       0.00000000       0.05613469
Os       0.00000000       0.00000000       5.47090909       0.00000000       0.00000000      -0.05613469
2
Properties=species:S:1:pos:R:3:forces:R:3 energy=-5.784985854347331 pbc="F F F"
Os       0.00000000       0.00000000       0.00000000       0.00000000       0.00000000       0.05081583
Os       0.00000000       0.00000000       5.52969697       0.00000000       0.00000000      -0.05081583
2
Properties=species:S:1:pos:R:3:forces:R:3 energy=-5.782262396507954 pbc="F F F"
Os       0.00000000       0.00000000       0.00000000       0.00000000       0.00000000       0.04097839
Os       0.00000000       0.00000000       5.58848485       0.00000000       0.00000000      -0.04097839
2
Properties=species:S:1:pos:R:3:forces:R:3 energy=-5.780259442883943 pbc="F F F"
Os       0.00000000       0.00000000       0.00000000       0.00000000       0.00000000       0.02661749
Os       0.00000000       0.00000000       5.64727273       0.00000000       0.00000000      -0.02661749
2
Properties=species:S:1:pos:R:3:forces:R:3 energy=-5.7791468678808595 pbc="F F F"
Os       0.00000000       0.00000000       0.00000000       0.00000000       0.00000000       0.01163583
Os       0.00000000       0.00000000       5.70606061       0.00000000       0.00000000      -0.01163583
2
Properties=species:S:1:pos:R:3:forces:R:3 energy=-5.778786716672344 pbc="F F F"
Os       0.00000000       0.00000000       0.00000000       0.00000000       0.00000000       0.00194065
Os       0.00000000       0.00000000       5.76484848       0.00000000       0.00000000      -0.00194065
2
Properties=species:S:1:pos:R:3:forces:R:3 energy=-5.778750455285091 pbc="F F F"
Os       0.00000000       0.00000000       0.00000000       0.00000000       0.00000000       0.00058240
Os       0.00000000       0.00000000       5.82363636       0.00000000       0.00000000      -0.00058240
2
Properties=species:S:1:pos:R:3:forces:R:3 energy=-5.778602146930476 pbc="F F F"
Os       0.00000000       0.00000000       0.00000000       0.00000000       0.00000000       0.00491540
Os       0.00000000       0.00000000       5.88242424       0.00000000       0.00000000      -0.00491540
2
Properties=species:S:1:pos:R:3:forces:R:3 energy=-5.778165103762384 pbc="F F F"
Os       0.00000000       0.00000000       0.00000000       0.00000000       0.00000000       0.00970469
Os       0.00000000       0.00000000       5.94121212       0.00000000       0.00000000      -0.00970469
2
Properties=species:S:1:pos:R:3:forces:R:3 energy=-5.77752714792506 pbc="F F F"
Os       0.00000000       0.00000000       0.00000000       0.00000000       0.00000000       0.01128462
Os       0.00000000       0.00000000       6.00000000       0.00000000       0.00000000      -0.01128462
