2
Properties=species:S:1:pos:R:3:forces:R:3 energy=19547.730690197375 pbc="F F F"
Pa       0.00000000       0.00000000       0.00000000       0.00000000       0.00000000 -351394.56250000
Pa       0.00000000       0.00000000       0.18000000       0.00000000       0.00000000  351394.56250000
2
Properties=species:S:1:pos:R:3:forces:R:3 energy=7389.334694103625 pbc="F F F"
Pa       0.00000000       0.00000000       0.00000000       0.00000000       0.00000000 -113372.64062500
Pa       0.00000000       0.00000000       0.23878788       0.00000000       0.00000000  113372.64062500
2
Properties=species:S:1:pos:R:3:forces:R:3 energy=3166.0209734005 pbc="F F F"
Pa       0.00000000       0.00000000       0.00000000       0.00000000       0.00000000  -42975.36718750
Pa       0.00000000       0.00000000       0.29757576       0.00000000       0.00000000   42975.36718750
2
Properties=species:S:1:pos:R:3:forces:R:3 energy=1489.3864519287968 pbc="F F F"
Pa       0.00000000       0.00000000       0.00000000       0.00000000       0.00000000  -18030.99414062
Pa       0.00000000       0.00000000       0.35636364       0.00000000       0.00000000   18030.99414062
2
Properties=species:S:1:pos:R:3:forces:R:3 energy=761.7122575928593 pbc="F F F"
Pa       0.00000000       0.00000000       0.00000000       0.00000000       0.00000000   -8155.18798828
Pa       0.00000000       0.00000000       0.41515152       0.00000000       0.00000000    8155.18798828
2
Properties=species:S:1:pos:R:3:forces:R:3 energy=423.30042288873364 pbc="F F F"
Pa       0.00000000       0.00000000       0.00000000       0.00000000       0.00000000   -3923.44824219
Pa       0.00000000       0.00000000       0.47393939       0.00000000       0.00000000    3923.44824219
2
Properties=species:S:1:pos:R:3:forces:R:3 energy=256.5831377451549 pbc="F F F"
Pa       0.00000000       0.00000000       0.00000000       0.00000000       0.00000000   -1988.02990723
Pa       0.00000000       0.00000000       0.53272727       0.00000000       0.00000000    1988.02990723
2
Properties=species:S:1:pos:R:3:forces:R:3 energy=170.47296931346625 pbc="F F F"
Pa       0.00000000       0.00000000       0.00000000       0.00000000       0.00000000   -1049.11877441
Pa       0.00000000       0.00000000       0.59151515       0.00000000       0.00000000    1049.11877441
2
Properties=species:S:1:pos:R:3:forces:R:3 energy=124.44605284757385 pbc="F F F"
Pa       0.00000000       0.00000000       0.00000000       0.00000000       0.00000000    -567.74304199
Pa       0.00000000       0.00000000       0.65030303       0.00000000       0.00000000     567.74304199
2
Properties=species:S:1:pos:R:3:forces:R:3 energy=99.45037114823498 pbc="F F F"
Pa       0.00000000       0.00000000       0.00000000       0.00000000       0.00000000    -308.16830444
Pa       0.00000000       0.00000000       0.70909091       0.00000000       0.00000000     308.16830444
2
Properties=species:S:1:pos:R:3:forces:R:3 energy=86.00988052694905 pbc="F F F"
Pa       0.00000000       0.00000000       0.00000000       0.00000000       0.00000000    -162.77984619
Pa       0.00000000       0.00000000       0.76787879       0.00000000       0.00000000     162.77984619
2
Properties=species:S:1:pos:R:3:forces:R:3 energy=79.08092558820822 pbc="F F F"
Pa       0.00000000       0.00000000       0.00000000       0.00000000       0.00000000     -80.99048615
Pa       0.00000000       0.00000000       0.82666667       0.00000000       0.00000000      80.99048615
2
Properties=species:S:1:pos:R:3:forces:R:3 energy=75.73249135537793 pbc="F F F"
Pa       0.00000000       0.00000000       0.00000000       0.00000000       0.00000000     -38.03749084
Pa       0.00000000       0.00000000       0.88545455       0.00000000       0.00000000      38.03749084
2
Properties=species:S:1:pos:R:3:forces:R:3 energy=74.13106645057655 pbc="F F F"
Pa       0.00000000       0.00000000       0.00000000       0.00000000       0.00000000     -19.54670334
Pa       0.00000000       0.00000000       0.94424242       0.00000000       0.00000000      19.54670334
2
Properties=species:S:1:pos:R:3:forces:R:3 energy=73.1660781475617 pbc="F F F"
Pa       0.00000000       0.00000000       0.00000000       0.00000000       0.00000000     -14.86959171
Pa       0.00000000       0.00000000       1.00303030       0.00000000       0.00000000      14.86959171
2
Properties=species:S:1:pos:R:3:forces:R:3 energy=72.24627887506833 pbc="F F F"
Pa       0.00000000       0.00000000       0.00000000       0.00000000       0.00000000     -17.33872032
Pa       0.00000000       0.00000000       1.06181818       0.00000000       0.00000000      17.33872032
2
Properties=species:S:1:pos:R:3:forces:R:3 energy=71.0256756291181 pbc="F F F"
Pa       0.00000000       0.00000000       0.00000000       0.00000000       0.00000000     -25.07638168
Pa       0.00000000       0.00000000       1.12060606       0.00000000       0.00000000      25.07638168
2
Properties=species:S:1:pos:R:3:forces:R:3 energy=69.1891592201378 pbc="F F F"
Pa       0.00000000       0.00000000       0.00000000       0.00000000       0.00000000     -38.34310913
Pa       0.00000000       0.00000000       1.17939394       0.00000000       0.00000000      38.34310913
2
Properties=species:S:1:pos:R:3:forces:R:3 energy=66.41090877596099 pbc="F F F"
Pa       0.00000000       0.00000000       0.00000000       0.00000000       0.00000000     -56.99893188
Pa       0.00000000       0.00000000       1.23818182       0.00000000       0.00000000      56.99893188
2
Properties=species:S:1:pos:R:3:forces:R:3 energy=62.41050593860547 pbc="F F F"
Pa       0.00000000       0.00000000       0.00000000       0.00000000       0.00000000     -79.51601410
Pa       0.00000000       0.00000000       1.29696970       0.00000000       0.00000000      79.51601410
2
Properties=species:S:1:pos:R:3:forces:R:3 energy=57.049847311662816 pbc="F F F"
Pa       0.00000000       0.00000000       0.00000000       0.00000000       0.00000000    -102.61369324
Pa       0.00000000       0.00000000       1.35575758       0.00000000       0.00000000     102.61369324
2
Properties=species:S:1:pos:R:3:forces:R:3 energy=50.41139147992581 pbc="F F F"
Pa       0.00000000       0.00000000       0.00000000       0.00000000       0.00000000    -122.39902496
Pa       0.00000000       0.00000000       1.41454545       0.00000000       0.00000000     122.39902496
2
Properties=species:S:1:pos:R:3:forces:R:3 energy=42.777773279872186 pbc="F F F"
Pa       0.00000000       0.00000000       0.00000000       0.00000000       0.00000000    -136.17378235
Pa       0.00000000       0.00000000       1.47333333       0.00000000       0.00000000     136.17378235
2
Properties=species:S:1:pos:R:3:forces:R:3 energy=34.53735187002517 pbc="F F F"
Pa       0.00000000       0.00000000       0.00000000       0.00000000       0.00000000    -143.01515198
Pa       0.00000000       0.00000000       1.53212121       0.00000000       0.00000000     143.01515198
2
Properties=species:S:1:pos:R:3:forces:R:3 energy=26.0973329587627 pbc="F F F"
Pa       0.00000000       0.00000000       0.00000000       0.00000000       0.00000000    -142.92727661
Pa       0.00000000       0.00000000       1.59090909       0.00000000       0.00000000     142.92727661
2
Properties=species:S:1:pos:R:3:forces:R:3 energy=17.895039340059956 pbc="F F F"
Pa       0.00000000       0.00000000       0.00000000       0.00000000       0.00000000    -134.47669983
Pa       0.00000000       0.00000000       1.64969697       0.00000000       0.00000000     134.47669983
2
Properties=species:S:1:pos:R:3:forces:R:3 energy=10.500161857646818 pbc="F F F"
Pa       0.00000000       0.00000000       0.00000000       0.00000000       0.00000000    -115.32546234
Pa       0.00000000       0.00000000       1.70848485       0.00000000       0.00000000     115.32546234
2
Properties=species:S:1:pos:R:3:forces:R:3 energy=4.4858856813049215 pbc="F F F"
Pa       0.00000000       0.00000000       0.00000000       0.00000000       0.00000000     -88.74762726
Pa       0.00000000       0.00000000       1.76727273       0.00000000       0.00000000      88.74762726
2
Properties=species:S:1:pos:R:3:forces:R:3 energy=0.03170682523728334 pbc="F F F"
Pa       0.00000000       0.00000000       0.00000000       0.00000000       0.00000000     -63.74271393
Pa       0.00000000       0.00000000       1.82606061       0.00000000       0.00000000      63.74271393
2
Properties=species:S:1:pos:R:3:forces:R:3 energy=-3.1520904877982177 pbc="F F F"
Pa       0.00000000       0.00000000       0.00000000       0.00000000       0.00000000     -45.79162216
Pa       0.00000000       0.00000000       1.88484848       0.00000000       0.00000000      45.79162216
2
Properties=species:S:1:pos:R:3:forces:R:3 energy=-5.468632921394293 pbc="F F F"
Pa       0.00000000       0.00000000       0.00000000       0.00000000       0.00000000     -33.74184418
Pa       0.00000000       0.00000000       1.94363636       0.00000000       0.00000000      33.74184418
2
Properties=species:S:1:pos:R:3:forces:R:3 energy=-7.179546678792481 pbc="F F F"
Pa       0.00000000       0.00000000       0.00000000       0.00000000       0.00000000     -24.83287621
Pa       0.00000000       0.00000000       2.00242424       0.00000000       0.00000000      24.83287621
2
Properties=species:S:1:pos:R:3:forces:R:3 energy=-8.42474806359819 pbc="F F F"
Pa       0.00000000       0.00000000       0.00000000       0.00000000       0.00000000     -17.81235886
Pa       0.00000000       0.00000000       2.06121212       0.00000000       0.00000000      17.81235886
2
Properties=species:S:1:pos:R:3:forces:R:3 energy=-9.30527423597545 pbc="F F F"
Pa       0.00000000       0.00000000       0.00000000       0.00000000       0.00000000     -12.38832951
Pa       0.00000000       0.00000000       2.12000000       0.00000000       0.00000000      12.38832951
2
Properties=species:S:1:pos:R:3:forces:R:3 energy=-9.906158671356936 pbc="F F F"
Pa       0.00000000       0.00000000       0.00000000       0.00000000       0.00000000      -8.23285198
Pa       0.00000000       0.00000000       2.17878788       0.00000000       0.00000000       8.23285198
2
Properties=species:S:1:pos:R:3:forces:R:3 energy=-10.29171480212607 pbc="F F F"
Pa       0.00000000       0.00000000       0.00000000       0.00000000       0.00000000      -5.02579546
Pa       0.00000000       0.00000000       2.23757576       0.00000000       0.00000000       5.02579546
2
Properties=species:S:1:pos:R:3:forces:R:3 energy=-10.51225988571353 pbc="F F F"
Pa       0.00000000       0.00000000       0.00000000       0.00000000       0.00000000      -2.59264946
Pa       0.00000000       0.00000000       2.29636364       0.00000000       0.00000000       2.59264946
2
Properties=species:S:1:pos:R:3:forces:R:3 energy=-10.60842657885303 pbc="F F F"
Pa       0.00000000       0.00000000       0.00000000       0.00000000       0.00000000      -0.76718777
Pa       0.00000000       0.00000000       2.35515152       0.00000000       0.00000000       0.76718777
2
Properties=species:S:1:pos:R:3:forces:R:3 energy=-10.611711249628089 pbc="F F F"
Pa       0.00000000       0.00000000       0.00000000       0.00000000       0.00000000       0.58461654
Pa       0.00000000       0.00000000       2.41393939       0.00000000       0.00000000      -0.58461654
2
Properties=species:S:1:pos:R:3:forces:R:3 energy=-10.547280780369393 pbc="F F F"
Pa       0.00000000       0.00000000       0.00000000       0.00000000       0.00000000       1.54880428
Pa       0.00000000       0.00000000       2.47272727       0.00000000       0.00000000      -1.54880428
2
Properties=species:S:1:pos:R:3:forces:R:3 energy=-10.435786228121403 pbc="F F F"
Pa       0.00000000       0.00000000       0.00000000       0.00000000       0.00000000       2.19783950
Pa       0.00000000       0.00000000       2.53151515       0.00000000       0.00000000      -2.19783950
2
Properties=species:S:1:pos:R:3:forces:R:3 energy=-10.29360326461169 pbc="F F F"
Pa       0.00000000       0.00000000       0.00000000       0.00000000       0.00000000       2.60504460
Pa       0.00000000       0.00000000       2.59030303       0.00000000       0.00000000      -2.60504460
2
Properties=species:S:1:pos:R:3:forces:R:3 energy=-10.132871352925635 pbc="F F F"
Pa       0.00000000       0.00000000       0.00000000       0.00000000       0.00000000       2.83955836
Pa       0.00000000       0.00000000       2.64909091       0.00000000       0.00000000      -2.83955836
2
Properties=species:S:1:pos:R:3:forces:R:3 energy=-9.961978062003702 pbc="F F F"
Pa       0.00000000       0.00000000       0.00000000       0.00000000       0.00000000       2.95934033
Pa       0.00000000       0.00000000       2.70787879       0.00000000       0.00000000      -2.95934033
2
Properties=species:S:1:pos:R:3:forces:R:3 energy=-9.786289707880695 pbc="F F F"
Pa       0.00000000       0.00000000       0.00000000       0.00000000       0.00000000       3.00905800
Pa       0.00000000       0.00000000       2.76666667       0.00000000       0.00000000      -3.00905800
2
Properties=species:S:1:pos:R:3:forces:R:3 energy=-9.60890457899767 pbc="F F F"
Pa       0.00000000       0.00000000       0.00000000       0.00000000       0.00000000       3.02176833
Pa       0.00000000       0.00000000       2.82545455       0.00000000       0.00000000      -3.02176833
2
Properties=species:S:1:pos:R:3:forces:R:3 energy=-9.43126736855877 pbc="F F F"
Pa       0.00000000       0.00000000       0.00000000       0.00000000       0.00000000       3.02065444
Pa       0.00000000       0.00000000       2.88424242       0.00000000       0.00000000      -3.02065444
2
Properties=species:S:1:pos:R:3:forces:R:3 energy=-9.253750573739435 pbc="F F F"
Pa       0.00000000       0.00000000       0.00000000       0.00000000       0.00000000       3.01913118
Pa       0.00000000       0.00000000       2.94303030       0.00000000       0.00000000      -3.01913118
2
Properties=species:S:1:pos:R:3:forces:R:3 energy=-9.076227970732779 pbc="F F F"
Pa       0.00000000       0.00000000       0.00000000       0.00000000       0.00000000       3.02051711
Pa       0.00000000       0.00000000       3.00181818       0.00000000       0.00000000      -3.02051711
2
Properties=species:S:1:pos:R:3:forces:R:3 energy=-8.898671450144908 pbc="F F F"
Pa       0.00000000       0.00000000       0.00000000       0.00000000       0.00000000       3.01859856
Pa       0.00000000       0.00000000       3.06060606       0.00000000       0.00000000      -3.01859856
2
Properties=species:S:1:pos:R:3:forces:R:3 energy=-8.721640163220222 pbc="F F F"
Pa       0.00000000       0.00000000       0.00000000       0.00000000       0.00000000       3.00005245
Pa       0.00000000       0.00000000       3.11939394       0.00000000       0.00000000      -3.00005245
2
Properties=species:S:1:pos:R:3:forces:R:3 energy=-8.546561180858772 pbc="F F F"
Pa       0.00000000       0.00000000       0.00000000       0.00000000       0.00000000       2.94988012
Pa       0.00000000       0.00000000       3.17818182       0.00000000       0.00000000      -2.94988012
2
Properties=species:S:1:pos:R:3:forces:R:3 energy=-8.375605148487779 pbc="F F F"
Pa       0.00000000       0.00000000       0.00000000       0.00000000       0.00000000       2.85936832
Pa       0.00000000       0.00000000       3.23696970       0.00000000       0.00000000      -2.85936832
2
Properties=species:S:1:pos:R:3:forces:R:3 energy=-8.211090493039634 pbc="F F F"
Pa       0.00000000       0.00000000       0.00000000       0.00000000       0.00000000       2.73246765
Pa       0.00000000       0.00000000       3.29575758       0.00000000       0.00000000      -2.73246765
2
Properties=species:S:1:pos:R:3:forces:R:3 energy=-8.054734375132815 pbc="F F F"
Pa       0.00000000       0.00000000       0.00000000       0.00000000       0.00000000       2.58520126
Pa       0.00000000       0.00000000       3.35454545       0.00000000       0.00000000      -2.58520126
2
Properties=species:S:1:pos:R:3:forces:R:3 energy=-7.907138679286105 pbc="F F F"
Pa       0.00000000       0.00000000       0.00000000       0.00000000       0.00000000       2.43747950
Pa       0.00000000       0.00000000       3.41333333       0.00000000       0.00000000      -2.43747950
2
Properties=species:S:1:pos:R:3:forces:R:3 energy=-7.767878423534006 pbc="F F F"
Pa       0.00000000       0.00000000       0.00000000       0.00000000       0.00000000       2.30297661
Pa       0.00000000       0.00000000       3.47212121       0.00000000       0.00000000      -2.30297661
2
Properties=species:S:1:pos:R:3:forces:R:3 energy=-7.636051936136467 pbc="F F F"
Pa       0.00000000       0.00000000       0.00000000       0.00000000       0.00000000       2.18412399
Pa       0.00000000       0.00000000       3.53090909       0.00000000       0.00000000      -2.18412399
2
Properties=species:S:1:pos:R:3:forces:R:3 energy=-7.510897309325947 pbc="F F F"
Pa       0.00000000       0.00000000       0.00000000       0.00000000       0.00000000       2.07447839
Pa       0.00000000       0.00000000       3.58969697       0.00000000       0.00000000      -2.07447839
2
Properties=species:S:1:pos:R:3:forces:R:3 energy=-7.392134101480515 pbc="F F F"
Pa       0.00000000       0.00000000       0.00000000       0.00000000       0.00000000       1.96541846
Pa       0.00000000       0.00000000       3.64848485       0.00000000       0.00000000      -1.96541846
2
Properties=species:S:1:pos:R:3:forces:R:3 energy=-7.279903922548406 pbc="F F F"
Pa       0.00000000       0.00000000       0.00000000       0.00000000       0.00000000       1.85185254
Pa       0.00000000       0.00000000       3.70727273       0.00000000       0.00000000      -1.85185254
2
Properties=species:S:1:pos:R:3:forces:R:3 energy=-7.174482272348998 pbc="F F F"
Pa       0.00000000       0.00000000       0.00000000       0.00000000       0.00000000       1.73427904
Pa       0.00000000       0.00000000       3.76606061       0.00000000       0.00000000      -1.73427904
2
Properties=species:S:1:pos:R:3:forces:R:3 energy=-7.075979589017202 pbc="F F F"
Pa       0.00000000       0.00000000       0.00000000       0.00000000       0.00000000       1.61753035
Pa       0.00000000       0.00000000       3.82484848       0.00000000       0.00000000      -1.61753035
2
Properties=species:S:1:pos:R:3:forces:R:3 energy=-6.984159650073915 pbc="F F F"
Pa       0.00000000       0.00000000       0.00000000       0.00000000       0.00000000       1.50782716
Pa       0.00000000       0.00000000       3.88363636       0.00000000       0.00000000      -1.50782716
2
Properties=species:S:1:pos:R:3:forces:R:3 energy=-6.898459586915374 pbc="F F F"
Pa       0.00000000       0.00000000       0.00000000       0.00000000       0.00000000       1.41005313
Pa       0.00000000       0.00000000       3.94242424       0.00000000       0.00000000      -1.41005313
2
Properties=species:S:1:pos:R:3:forces:R:3 energy=-6.8180962321707295 pbc="F F F"
Pa       0.00000000       0.00000000       0.00000000       0.00000000       0.00000000       1.32638800
Pa       0.00000000       0.00000000       4.00121212       0.00000000       0.00000000      -1.32638800
2
Properties=species:S:1:pos:R:3:forces:R:3 energy=-6.7422349834124855 pbc="F F F"
Pa       0.00000000       0.00000000       0.00000000       0.00000000       0.00000000       1.25661385
Pa       0.00000000       0.00000000       4.06000000       0.00000000       0.00000000      -1.25661385
2
Properties=species:S:1:pos:R:3:forces:R:3 energy=-6.670102298711975 pbc="F F F"
Pa       0.00000000       0.00000000       0.00000000       0.00000000       0.00000000       1.19940364
Pa       0.00000000       0.00000000       4.11878788       0.00000000       0.00000000      -1.19940364
2
Properties=species:S:1:pos:R:3:forces:R:3 energy=-6.6009929822452635 pbc="F F F"
Pa       0.00000000       0.00000000       0.00000000       0.00000000       0.00000000       1.15353632
Pa       0.00000000       0.00000000       4.17757576       0.00000000       0.00000000      -1.15353632
2
Properties=species:S:1:pos:R:3:forces:R:3 energy=-6.5342620210406555 pbc="F F F"
Pa       0.00000000       0.00000000       0.00000000       0.00000000       0.00000000       1.11845911
Pa       0.00000000       0.00000000       4.23636364       0.00000000       0.00000000      -1.11845911
2
Properties=species:S:1:pos:R:3:forces:R:3 energy=-6.469278884639242 pbc="F F F"
Pa       0.00000000       0.00000000       0.00000000       0.00000000       0.00000000       1.09403455
Pa       0.00000000       0.00000000       4.29515152       0.00000000       0.00000000      -1.09403455
2
Properties=species:S:1:pos:R:3:forces:R:3 energy=-6.405429056976686 pbc="F F F"
Pa       0.00000000       0.00000000       0.00000000       0.00000000       0.00000000       1.07989633
Pa       0.00000000       0.00000000       4.35393939       0.00000000       0.00000000      -1.07989633
2
Properties=species:S:1:pos:R:3:forces:R:3 energy=-6.3421315716521205 pbc="F F F"
Pa       0.00000000       0.00000000       0.00000000       0.00000000       0.00000000       1.07486689
Pa       0.00000000       0.00000000       4.41272727       0.00000000       0.00000000      -1.07486689
2
Properties=species:S:1:pos:R:3:forces:R:3 energy=-6.278913569587221 pbc="F F F"
Pa       0.00000000       0.00000000       0.00000000       0.00000000       0.00000000       1.07676291
Pa       0.00000000       0.00000000       4.47151515       0.00000000       0.00000000      -1.07676291
2
Properties=species:S:1:pos:R:3:forces:R:3 energy=-6.21545037869008 pbc="F F F"
Pa       0.00000000       0.00000000       0.00000000       0.00000000       0.00000000       1.08266354
Pa       0.00000000       0.00000000       4.53030303       0.00000000       0.00000000      -1.08266354
2
Properties=species:S:1:pos:R:3:forces:R:3 energy=-6.151603171319407 pbc="F F F"
Pa       0.00000000       0.00000000       0.00000000       0.00000000       0.00000000       1.08940315
Pa       0.00000000       0.00000000       4.58909091       0.00000000       0.00000000      -1.08940315
2
Properties=species:S:1:pos:R:3:forces:R:3 energy=-6.0874042330177875 pbc="F F F"
Pa       0.00000000       0.00000000       0.00000000       0.00000000       0.00000000       1.09416497
Pa       0.00000000       0.00000000       4.64787879       0.00000000       0.00000000      -1.09416497
2
Properties=species:S:1:pos:R:3:forces:R:3 energy=-6.023036566219825 pbc="F F F"
Pa       0.00000000       0.00000000       0.00000000       0.00000000       0.00000000       1.09478629
Pa       0.00000000       0.00000000       4.70666667       0.00000000       0.00000000      -1.09478629
2
Properties=species:S:1:pos:R:3:forces:R:3 energy=-5.95879331474419 pbc="F F F"
Pa       0.00000000       0.00000000       0.00000000       0.00000000       0.00000000       1.08981073
Pa       0.00000000       0.00000000       4.76545455       0.00000000       0.00000000      -1.08981073
2
Properties=species:S:1:pos:R:3:forces:R:3 energy=-5.895029653925793 pbc="F F F"
Pa       0.00000000       0.00000000       0.00000000       0.00000000       0.00000000       1.07821178
Pa       0.00000000       0.00000000       4.82424242       0.00000000       0.00000000      -1.07821178
2
Properties=species:S:1:pos:R:3:forces:R:3 energy=-5.832176205412657 pbc="F F F"
Pa       0.00000000       0.00000000       0.00000000       0.00000000       0.00000000       1.05890238
Pa       0.00000000       0.00000000       4.88303030       0.00000000       0.00000000      -1.05890238
2
Properties=species:S:1:pos:R:3:forces:R:3 energy=-5.770708888719 pbc="F F F"
Pa       0.00000000       0.00000000       0.00000000       0.00000000       0.00000000       1.03043115
Pa       0.00000000       0.00000000       4.94181818       0.00000000       0.00000000      -1.03043115
2
Properties=species:S:1:pos:R:3:forces:R:3 energy=-5.711221997687676 pbc="F F F"
Pa       0.00000000       0.00000000       0.00000000       0.00000000       0.00000000       0.99151272
Pa       0.00000000       0.00000000       5.00060606       0.00000000       0.00000000      -0.99151272
2
Properties=species:S:1:pos:R:3:forces:R:3 energy=-5.654312316389452 pbc="F F F"
Pa       0.00000000       0.00000000       0.00000000       0.00000000       0.00000000       0.94345403
Pa       0.00000000       0.00000000       5.05939394       0.00000000       0.00000000      -0.94345403
2
Properties=species:S:1:pos:R:3:forces:R:3 energy=-5.60032246669029 pbc="F F F"
Pa       0.00000000       0.00000000       0.00000000       0.00000000       0.00000000       0.89424950
Pa       0.00000000       0.00000000       5.11818182       0.00000000       0.00000000      -0.89424950
2
Properties=species:S:1:pos:R:3:forces:R:3 energy=-5.548884606769171 pbc="F F F"
Pa       0.00000000       0.00000000       0.00000000       0.00000000       0.00000000       0.85975266
Pa       0.00000000       0.00000000       5.17696970       0.00000000       0.00000000      -0.85975266
2
Properties=species:S:1:pos:R:3:forces:R:3 energy=-5.498684854555008 pbc="F F F"
Pa       0.00000000       0.00000000       0.00000000       0.00000000       0.00000000       0.85285747
Pa       0.00000000       0.00000000       5.23575758       0.00000000       0.00000000      -0.85285747
2
Properties=species:S:1:pos:R:3:forces:R:3 energy=-5.448259968576408 pbc="F F F"
Pa       0.00000000       0.00000000       0.00000000       0.00000000       0.00000000       0.86292225
Pa       0.00000000       0.00000000       5.29454545       0.00000000       0.00000000      -0.86292225
2
Properties=species:S:1:pos:R:3:forces:R:3 energy=-5.397593359944045 pbc="F F F"
Pa       0.00000000       0.00000000       0.00000000       0.00000000       0.00000000       0.85445350
Pa       0.00000000       0.00000000       5.35333333       0.00000000       0.00000000      -0.85445350
2
Properties=species:S:1:pos:R:3:forces:R:3 energy=-5.348669444889383 pbc="F F F"
Pa       0.00000000       0.00000000       0.00000000       0.00000000       0.00000000       0.80283874
Pa       0.00000000       0.00000000       5.41212121       0.00000000       0.00000000      -0.80283874
2
Properties=species:S:1:pos:R:3:forces:R:3 energy=-5.303682688747982 pbc="F F F"
Pa       0.00000000       0.00000000       0.00000000       0.00000000       0.00000000       0.72780091
Pa       0.00000000       0.00000000       5.47090909       0.00000000       0.00000000      -0.72780091
2
Properties=species:S:1:pos:R:3:forces:R:3 energy=-5.262489267808815 pbc="F F F"
Pa       0.00000000       0.00000000       0.00000000       0.00000000       0.00000000       0.68350744
Pa       0.00000000       0.00000000       5.52969697       0.00000000       0.00000000      -0.68350744
2
Properties=species:S:1:pos:R:3:forces:R:3 energy=-5.221826843346202 pbc="F F F"
Pa       0.00000000       0.00000000       0.00000000       0.00000000       0.00000000       0.71305674
Pa       0.00000000       0.00000000       5.58848485       0.00000000       0.00000000      -0.71305674
2
Properties=species:S:1:pos:R:3:forces:R:3 energy=-5.1775743309264115 pbc="F F F"
Pa       0.00000000       0.00000000       0.00000000       0.00000000       0.00000000       0.79485136
Pa       0.00000000       0.00000000       5.64727273       0.00000000       0.00000000      -0.79485136
2
Properties=species:S:1:pos:R:3:forces:R:3 energy=-5.129174807468303 pbc="F F F"
Pa       0.00000000       0.00000000       0.00000000       0.00000000       0.00000000       0.83671558
Pa       0.00000000       0.00000000       5.70606061       0.00000000       0.00000000      -0.83671558
2
Properties=species:S:1:pos:R:3:forces:R:3 energy=-5.081637286304758 pbc="F F F"
Pa       0.00000000       0.00000000       0.00000000       0.00000000       0.00000000       0.75353962
Pa       0.00000000       0.00000000       5.76484848       0.00000000       0.00000000      -0.75353962
2
Properties=species:S:1:pos:R:3:forces:R:3 energy=-5.043045274709288 pbc="F F F"
Pa       0.00000000       0.00000000       0.00000000       0.00000000       0.00000000       0.54606086
Pa       0.00000000       0.00000000       5.82363636       0.00000000       0.00000000      -0.54606086
2
Properties=species:S:1:pos:R:3:forces:R:3 energy=-5.0183580699012715 pbc="F F F"
Pa       0.00000000       0.00000000       0.00000000       0.00000000       0.00000000       0.29738450
Pa       0.00000000       0.00000000       5.88242424       0.00000000       0.00000000      -0.29738450
2
Properties=species:S:1:pos:R:3:forces:R:3 energy=-5.006925635832862 pbc="F F F"
Pa       0.00000000       0.00000000       0.00000000       0.00000000       0.00000000       0.10575318
Pa       0.00000000       0.00000000       5.94121212       0.00000000       0.00000000      -0.10575318
2
Properties=species:S:1:pos:R:3:forces:R:3 energy=-5.003518460576929 pbc="F F F"
Pa       0.00000000       0.00000000       0.00000000       0.00000000       0.00000000       0.03397926
Pa       0.00000000       0.00000000       6.00000000       0.00000000       0.00000000      -0.03397926
