2
Properties=species:S:1:pos:R:3:forces:R:3 energy=17006.767119574975 pbc="F F F"
Pb       0.00000000       0.00000000       0.00000000       0.00000000       0.00000000 -301831.62500000
Pb       0.00000000       0.00000000       0.18000000       0.00000000       0.00000000  301831.62500000
2
Properties=species:S:1:pos:R:3:forces:R:3 energy=6512.578643012477 pbc="F F F"
Pb       0.00000000       0.00000000       0.00000000       0.00000000       0.00000000  -98557.60937500
Pb       0.00000000       0.00000000       0.23878788       0.00000000       0.00000000   98557.60937500
2
Properties=species:S:1:pos:R:3:forces:R:3 energy=2821.7165824656017 pbc="F F F"
Pb       0.00000000       0.00000000       0.00000000       0.00000000       0.00000000  -37832.87109375
Pb       0.00000000       0.00000000       0.29757576       0.00000000       0.00000000   37832.87109375
2
Properties=species:S:1:pos:R:3:forces:R:3 energy=1337.9270316843517 pbc="F F F"
Pb       0.00000000       0.00000000       0.00000000       0.00000000       0.00000000  -16065.10937500
Pb       0.00000000       0.00000000       0.35636364       0.00000000       0.00000000   16065.10937500
2
Properties=species:S:1:pos:R:3:forces:R:3 energy=686.649016547633 pbc="F F F"
Pb       0.00000000       0.00000000       0.00000000       0.00000000       0.00000000   -7338.02636719
Pb       0.00000000       0.00000000       0.41515152       0.00000000       0.00000000    7338.02636719
2
Properties=species:S:1:pos:R:3:forces:R:3 energy=381.21408003053114 pbc="F F F"
Pb       0.00000000       0.00000000       0.00000000       0.00000000       0.00000000   -3551.80566406
Pb       0.00000000       0.00000000       0.47393939       0.00000000       0.00000000    3551.80566406
2
Properties=species:S:1:pos:R:3:forces:R:3 energy=230.18911666429617 pbc="F F F"
Pb       0.00000000       0.00000000       0.00000000       0.00000000       0.00000000   -1800.03564453
Pb       0.00000000       0.00000000       0.53272727       0.00000000       0.00000000    1800.03564453
2
Properties=species:S:1:pos:R:3:forces:R:3 energy=152.43011399775622 pbc="F F F"
Pb       0.00000000       0.00000000       0.00000000       0.00000000       0.00000000    -942.96875000
Pb       0.00000000       0.00000000       0.59151515       0.00000000       0.00000000     942.96875000
2
Properties=species:S:1:pos:R:3:forces:R:3 energy=111.26460194447351 pbc="F F F"
Pb       0.00000000       0.00000000       0.00000000       0.00000000       0.00000000    -504.88543701
Pb       0.00000000       0.00000000       0.65030303       0.00000000       0.00000000     504.88543701
2
Properties=species:S:1:pos:R:3:forces:R:3 energy=89.08212213676022 pbc="F F F"
Pb       0.00000000       0.00000000       0.00000000       0.00000000       0.00000000    -273.41571045
Pb       0.00000000       0.00000000       0.70909091       0.00000000       0.00000000     273.41571045
2
Properties=species:S:1:pos:R:3:forces:R:3 energy=77.13612306728014 pbc="F F F"
Pb       0.00000000       0.00000000       0.00000000       0.00000000       0.00000000    -144.86087036
Pb       0.00000000       0.00000000       0.76787879       0.00000000       0.00000000     144.86087036
2
Properties=species:S:1:pos:R:3:forces:R:3 energy=70.9971003541733 pbc="F F F"
Pb       0.00000000       0.00000000       0.00000000       0.00000000       0.00000000     -70.96508026
Pb       0.00000000       0.00000000       0.82666667       0.00000000       0.00000000      70.96508026
2
Properties=species:S:1:pos:R:3:forces:R:3 energy=68.10898558970084 pbc="F F F"
Pb       0.00000000       0.00000000       0.00000000       0.00000000       0.00000000     -32.24048233
Pb       0.00000000       0.00000000       0.88545455       0.00000000       0.00000000      32.24048233
2
Properties=species:S:1:pos:R:3:forces:R:3 energy=66.6976012352645 pbc="F F F"
Pb       0.00000000       0.00000000       0.00000000       0.00000000       0.00000000     -19.51759148
Pb       0.00000000       0.00000000       0.94424242       0.00000000       0.00000000      19.51759148
2
Properties=species:S:1:pos:R:3:forces:R:3 energy=65.44985221709779 pbc="F F F"
Pb       0.00000000       0.00000000       0.00000000       0.00000000       0.00000000     -25.35388756
Pb       0.00000000       0.00000000       1.00303030       0.00000000       0.00000000      25.35388756
2
Properties=species:S:1:pos:R:3:forces:R:3 energy=63.50556629198259 pbc="F F F"
Pb       0.00000000       0.00000000       0.00000000       0.00000000       0.00000000     -42.02195740
Pb       0.00000000       0.00000000       1.06181818       0.00000000       0.00000000      42.02195740
2
Properties=species:S:1:pos:R:3:forces:R:3 energy=60.42559935707563 pbc="F F F"
Pb       0.00000000       0.00000000       0.00000000       0.00000000       0.00000000     -62.93703842
Pb       0.00000000       0.00000000       1.12060606       0.00000000       0.00000000      62.93703842
2
Properties=species:S:1:pos:R:3:forces:R:3 energy=56.15267757297341 pbc="F F F"
Pb       0.00000000       0.00000000       0.00000000       0.00000000       0.00000000     -81.44408417
Pb       0.00000000       0.00000000       1.17939394       0.00000000       0.00000000      81.44408417
2
Properties=species:S:1:pos:R:3:forces:R:3 energy=51.02594665392928 pbc="F F F"
Pb       0.00000000       0.00000000       0.00000000       0.00000000       0.00000000     -91.11956024
Pb       0.00000000       0.00000000       1.23818182       0.00000000       0.00000000      91.11956024
2
Properties=species:S:1:pos:R:3:forces:R:3 energy=45.64847594337704 pbc="F F F"
Pb       0.00000000       0.00000000       0.00000000       0.00000000       0.00000000     -90.41732025
Pb       0.00000000       0.00000000       1.29696970       0.00000000       0.00000000      90.41732025
2
Properties=species:S:1:pos:R:3:forces:R:3 energy=40.49469940676673 pbc="F F F"
Pb       0.00000000       0.00000000       0.00000000       0.00000000       0.00000000     -84.56938171
Pb       0.00000000       0.00000000       1.35575758       0.00000000       0.00000000      84.56938171
2
Properties=species:S:1:pos:R:3:forces:R:3 energy=35.69639581816016 pbc="F F F"
Pb       0.00000000       0.00000000       0.00000000       0.00000000       0.00000000     -79.17606354
Pb       0.00000000       0.00000000       1.41454545       0.00000000       0.00000000      79.17606354
2
Properties=species:S:1:pos:R:3:forces:R:3 energy=31.096563770895035 pbc="F F F"
Pb       0.00000000       0.00000000       0.00000000       0.00000000       0.00000000     -77.99077606
Pb       0.00000000       0.00000000       1.47333333       0.00000000       0.00000000      77.99077606
2
Properties=species:S:1:pos:R:3:forces:R:3 energy=26.516326467335844 pbc="F F F"
Pb       0.00000000       0.00000000       0.00000000       0.00000000       0.00000000     -77.23133087
Pb       0.00000000       0.00000000       1.53212121       0.00000000       0.00000000      77.23133087
2
Properties=species:S:1:pos:R:3:forces:R:3 energy=22.126237222586003 pbc="F F F"
Pb       0.00000000       0.00000000       0.00000000       0.00000000       0.00000000     -71.23896027
Pb       0.00000000       0.00000000       1.59090909       0.00000000       0.00000000      71.23896027
2
Properties=species:S:1:pos:R:3:forces:R:3 energy=18.19516936857661 pbc="F F F"
Pb       0.00000000       0.00000000       0.00000000       0.00000000       0.00000000     -62.45963669
Pb       0.00000000       0.00000000       1.64969697       0.00000000       0.00000000      62.45963669
2
Properties=species:S:1:pos:R:3:forces:R:3 energy=14.758353678120702 pbc="F F F"
Pb       0.00000000       0.00000000       0.00000000       0.00000000       0.00000000     -54.76674652
Pb       0.00000000       0.00000000       1.70848485       0.00000000       0.00000000      54.76674652
2
Properties=species:S:1:pos:R:3:forces:R:3 energy=11.725141639479402 pbc="F F F"
Pb       0.00000000       0.00000000       0.00000000       0.00000000       0.00000000     -48.61051559
Pb       0.00000000       0.00000000       1.76727273       0.00000000       0.00000000      48.61051559
2
Properties=species:S:1:pos:R:3:forces:R:3 energy=9.029873897537032 pbc="F F F"
Pb       0.00000000       0.00000000       0.00000000       0.00000000       0.00000000     -43.13694763
Pb       0.00000000       0.00000000       1.82606061       0.00000000       0.00000000      43.13694763
2
Properties=species:S:1:pos:R:3:forces:R:3 energy=6.650726775145389 pbc="F F F"
Pb       0.00000000       0.00000000       0.00000000       0.00000000       0.00000000     -37.81016541
Pb       0.00000000       0.00000000       1.88484848       0.00000000       0.00000000      37.81016541
2
Properties=species:S:1:pos:R:3:forces:R:3 energy=4.583099943807104 pbc="F F F"
Pb       0.00000000       0.00000000       0.00000000       0.00000000       0.00000000     -32.55340195
Pb       0.00000000       0.00000000       1.94363636       0.00000000       0.00000000      32.55340195
2
Properties=species:S:1:pos:R:3:forces:R:3 energy=2.8186878625721437 pbc="F F F"
Pb       0.00000000       0.00000000       0.00000000       0.00000000       0.00000000     -27.52881622
Pb       0.00000000       0.00000000       2.00242424       0.00000000       0.00000000      27.52881622
2
Properties=species:S:1:pos:R:3:forces:R:3 energy=1.3382835393796335 pbc="F F F"
Pb       0.00000000       0.00000000       0.00000000       0.00000000       0.00000000     -22.91351318
Pb       0.00000000       0.00000000       2.06121212       0.00000000       0.00000000      22.91351318
2
Properties=species:S:1:pos:R:3:forces:R:3 energy=0.11504061840663857 pbc="F F F"
Pb       0.00000000       0.00000000       0.00000000       0.00000000       0.00000000     -18.78406525
Pb       0.00000000       0.00000000       2.12000000       0.00000000       0.00000000      18.78406525
2
Properties=species:S:1:pos:R:3:forces:R:3 energy=-0.8797100194760089 pbc="F F F"
Pb       0.00000000       0.00000000       0.00000000       0.00000000       0.00000000     -15.13613892
Pb       0.00000000       0.00000000       2.17878788       0.00000000       0.00000000      15.13613892
2
Properties=species:S:1:pos:R:3:forces:R:3 energy=-1.6736676973165814 pbc="F F F"
Pb       0.00000000       0.00000000       0.00000000       0.00000000       0.00000000     -11.95126057
Pb       0.00000000       0.00000000       2.23757576       0.00000000       0.00000000      11.95126057
2
Properties=species:S:1:pos:R:3:forces:R:3 energy=-2.293900757058115 pbc="F F F"
Pb       0.00000000       0.00000000       0.00000000       0.00000000       0.00000000      -9.22648048
Pb       0.00000000       0.00000000       2.29636364       0.00000000       0.00000000       9.22648048
2
Properties=species:S:1:pos:R:3:forces:R:3 energy=-2.7674999456544374 pbc="F F F"
Pb       0.00000000       0.00000000       0.00000000       0.00000000       0.00000000      -6.96151972
Pb       0.00000000       0.00000000       2.35515152       0.00000000       0.00000000       6.96151972
2
Properties=species:S:1:pos:R:3:forces:R:3 energy=-3.121038005098565 pbc="F F F"
Pb       0.00000000       0.00000000       0.00000000       0.00000000       0.00000000      -5.13590431
Pb       0.00000000       0.00000000       2.41393939       0.00000000       0.00000000       5.13590431
2
Properties=species:S:1:pos:R:3:forces:R:3 energy=-3.3790105093660703 pbc="F F F"
Pb       0.00000000       0.00000000       0.00000000       0.00000000       0.00000000      -3.69994259
Pb       0.00000000       0.00000000       2.47272727       0.00000000       0.00000000       3.69994259
2
Properties=species:S:1:pos:R:3:forces:R:3 energy=-3.562316052511306 pbc="F F F"
Pb       0.00000000       0.00000000       0.00000000       0.00000000       0.00000000      -2.58311868
Pb       0.00000000       0.00000000       2.53151515       0.00000000       0.00000000       2.58311868
2
Properties=species:S:1:pos:R:3:forces:R:3 energy=-3.6875326957971692 pbc="F F F"
Pb       0.00000000       0.00000000       0.00000000       0.00000000       0.00000000      -1.71231687
Pb       0.00000000       0.00000000       2.59030303       0.00000000       0.00000000       1.71231687
2
Properties=species:S:1:pos:R:3:forces:R:3 energy=-3.7672812217430645 pbc="F F F"
Pb       0.00000000       0.00000000       0.00000000       0.00000000       0.00000000      -1.02787161
Pb       0.00000000       0.00000000       2.64909091       0.00000000       0.00000000       1.02787161
2
Properties=species:S:1:pos:R:3:forces:R:3 energy=-3.8112361627807467 pbc="F F F"
Pb       0.00000000       0.00000000       0.00000000       0.00000000       0.00000000      -0.48935762
Pb       0.00000000       0.00000000       2.70787879       0.00000000       0.00000000       0.48935762
2
Properties=species:S:1:pos:R:3:forces:R:3 energy=-3.8271628198711847 pbc="F F F"
Pb       0.00000000       0.00000000       0.00000000       0.00000000       0.00000000      -0.07067136
Pb       0.00000000       0.00000000       2.76666667       0.00000000       0.00000000       0.07067136
2
Properties=species:S:1:pos:R:3:forces:R:3 energy=-3.821487528067549 pbc="F F F"
Pb       0.00000000       0.00000000       0.00000000       0.00000000       0.00000000       0.24892770
Pb       0.00000000       0.00000000       2.82545455       0.00000000       0.00000000      -0.24892770
2
Properties=species:S:1:pos:R:3:forces:R:3 energy=-3.7994213347372305 pbc="F F F"
Pb       0.00000000       0.00000000       0.00000000       0.00000000       0.00000000       0.49066448
Pb       0.00000000       0.00000000       2.88424242       0.00000000       0.00000000      -0.49066448
2
Properties=species:S:1:pos:R:3:forces:R:3 energy=-3.764897826165668 pbc="F F F"
Pb       0.00000000       0.00000000       0.00000000       0.00000000       0.00000000       0.67617381
Pb       0.00000000       0.00000000       2.94303030       0.00000000       0.00000000      -0.67617381
2
Properties=species:S:1:pos:R:3:forces:R:3 energy=-3.720660870265267 pbc="F F F"
Pb       0.00000000       0.00000000       0.00000000       0.00000000       0.00000000       0.82360995
Pb       0.00000000       0.00000000       3.00181818       0.00000000       0.00000000      -0.82360995
2
Properties=species:S:1:pos:R:3:forces:R:3 energy=-3.668587317130317 pbc="F F F"
Pb       0.00000000       0.00000000       0.00000000       0.00000000       0.00000000       0.94394505
Pb       0.00000000       0.00000000       3.06060606       0.00000000       0.00000000      -0.94394505
2
Properties=species:S:1:pos:R:3:forces:R:3 energy=-3.610142110442478 pbc="F F F"
Pb       0.00000000       0.00000000       0.00000000       0.00000000       0.00000000       1.04030585
Pb       0.00000000       0.00000000       3.11939394       0.00000000       0.00000000      -1.04030585
2
Properties=species:S:1:pos:R:3:forces:R:3 energy=-3.5467822067501626 pbc="F F F"
Pb       0.00000000       0.00000000       0.00000000       0.00000000       0.00000000       1.11057997
Pb       0.00000000       0.00000000       3.17818182       0.00000000       0.00000000      -1.11057997
2
Properties=species:S:1:pos:R:3:forces:R:3 energy=-3.4801365356749314 pbc="F F F"
Pb       0.00000000       0.00000000       0.00000000       0.00000000       0.00000000       1.15179551
Pb       0.00000000       0.00000000       3.23696970       0.00000000       0.00000000      -1.15179551
2
Properties=species:S:1:pos:R:3:forces:R:3 energy=-3.4119298760368078 pbc="F F F"
Pb       0.00000000       0.00000000       0.00000000       0.00000000       0.00000000       1.16408682
Pb       0.00000000       0.00000000       3.29575758       0.00000000       0.00000000      -1.16408682
2
Properties=species:S:1:pos:R:3:forces:R:3 energy=-3.3437373823427343 pbc="F F F"
Pb       0.00000000       0.00000000       0.00000000       0.00000000       0.00000000       1.15258205
Pb       0.00000000       0.00000000       3.35454545       0.00000000       0.00000000      -1.15258205
2
Properties=species:S:1:pos:R:3:forces:R:3 energy=-3.2766957986380616 pbc="F F F"
Pb       0.00000000       0.00000000       0.00000000       0.00000000       0.00000000       1.12675238
Pb       0.00000000       0.00000000       3.41333333       0.00000000       0.00000000      -1.12675238
2
Properties=species:S:1:pos:R:3:forces:R:3 energy=-3.2113233578227125 pbc="F F F"
Pb       0.00000000       0.00000000       0.00000000       0.00000000       0.00000000       1.09751987
Pb       0.00000000       0.00000000       3.47212121       0.00000000       0.00000000      -1.09751987
2
Properties=species:S:1:pos:R:3:forces:R:3 energy=-3.147551763435208 pbc="F F F"
Pb       0.00000000       0.00000000       0.00000000       0.00000000       0.00000000       1.07334125
Pb       0.00000000       0.00000000       3.53090909       0.00000000       0.00000000      -1.07334125
2
Properties=species:S:1:pos:R:3:forces:R:3 energy=-3.0849528790137892 pbc="F F F"
Pb       0.00000000       0.00000000       0.00000000       0.00000000       0.00000000       1.05777049
Pb       0.00000000       0.00000000       3.58969697       0.00000000       0.00000000      -1.05777049
2
Properties=species:S:1:pos:R:3:forces:R:3 energy=-3.0230277275496116 pbc="F F F"
Pb       0.00000000       0.00000000       0.00000000       0.00000000       0.00000000       1.05006027
Pb       0.00000000       0.00000000       3.64848485       0.00000000       0.00000000      -1.05006027
2
Properties=species:S:1:pos:R:3:forces:R:3 energy=-2.961397392420914 pbc="F F F"
Pb       0.00000000       0.00000000       0.00000000       0.00000000       0.00000000       1.04713476
Pb       0.00000000       0.00000000       3.70727273       0.00000000       0.00000000      -1.04713476
2
Properties=species:S:1:pos:R:3:forces:R:3 energy=-2.8998893891980333 pbc="F F F"
Pb       0.00000000       0.00000000       0.00000000       0.00000000       0.00000000       1.04526460
Pb       0.00000000       0.00000000       3.76606061       0.00000000       0.00000000      -1.04526460
2
Properties=species:S:1:pos:R:3:forces:R:3 energy=-2.83854530117757 pbc="F F F"
Pb       0.00000000       0.00000000       0.00000000       0.00000000       0.00000000       1.04110384
Pb       0.00000000       0.00000000       3.82484848       0.00000000       0.00000000      -1.04110384
2
Properties=species:S:1:pos:R:3:forces:R:3 energy=-2.777572516049623 pbc="F F F"
Pb       0.00000000       0.00000000       0.00000000       0.00000000       0.00000000       1.03226304
Pb       0.00000000       0.00000000       3.88363636       0.00000000       0.00000000      -1.03226304
2
Properties=species:S:1:pos:R:3:forces:R:3 energy=-2.717293341529989 pbc="F F F"
Pb       0.00000000       0.00000000       0.00000000       0.00000000       0.00000000       1.01747417
Pb       0.00000000       0.00000000       3.94242424       0.00000000       0.00000000      -1.01747417
2
Properties=species:S:1:pos:R:3:forces:R:3 energy=-2.658066704712105 pbc="F F F"
Pb       0.00000000       0.00000000       0.00000000       0.00000000       0.00000000       0.99643576
Pb       0.00000000       0.00000000       4.00121212       0.00000000       0.00000000      -0.99643576
2
Properties=species:S:1:pos:R:3:forces:R:3 energy=-2.600252632882795 pbc="F F F"
Pb       0.00000000       0.00000000       0.00000000       0.00000000       0.00000000       0.96950299
Pb       0.00000000       0.00000000       4.06000000       0.00000000       0.00000000      -0.96950299
2
Properties=species:S:1:pos:R:3:forces:R:3 energy=-2.5441776064808654 pbc="F F F"
Pb       0.00000000       0.00000000       0.00000000       0.00000000       0.00000000       0.93739653
Pb       0.00000000       0.00000000       4.11878788       0.00000000       0.00000000      -0.93739653
2
Properties=species:S:1:pos:R:3:forces:R:3 energy=-2.4901217920399388 pbc="F F F"
Pb       0.00000000       0.00000000       0.00000000       0.00000000       0.00000000       0.90096688
Pb       0.00000000       0.00000000       4.17757576       0.00000000       0.00000000      -0.90096688
2
Properties=species:S:1:pos:R:3:forces:R:3 energy=-2.438312188910347 pbc="F F F"
Pb       0.00000000       0.00000000       0.00000000       0.00000000       0.00000000       0.86109984
Pb       0.00000000       0.00000000       4.23636364       0.00000000       0.00000000      -0.86109984
2
Properties=species:S:1:pos:R:3:forces:R:3 energy=-2.3889256826873146 pbc="F F F"
Pb       0.00000000       0.00000000       0.00000000       0.00000000       0.00000000       0.81870264
Pb       0.00000000       0.00000000       4.29515152       0.00000000       0.00000000      -0.81870264
2
Properties=species:S:1:pos:R:3:forces:R:3 energy=-2.342083948057942 pbc="F F F"
Pb       0.00000000       0.00000000       0.00000000       0.00000000       0.00000000       0.77476573
Pb       0.00000000       0.00000000       4.35393939       0.00000000       0.00000000      -0.77476573
2
Properties=species:S:1:pos:R:3:forces:R:3 energy=-2.2978413369710022 pbc="F F F"
Pb       0.00000000       0.00000000       0.00000000       0.00000000       0.00000000       0.73041040
Pb       0.00000000       0.00000000       4.41272727       0.00000000       0.00000000      -0.73041040
2
Properties=species:S:1:pos:R:3:forces:R:3 energy=-2.2561875289197926 pbc="F F F"
Pb       0.00000000       0.00000000       0.00000000       0.00000000       0.00000000       0.68693817
Pb       0.00000000       0.00000000       4.47151515       0.00000000       0.00000000      -0.68693817
2
Properties=species:S:1:pos:R:3:forces:R:3 energy=-2.2170275132849575 pbc="F F F"
Pb       0.00000000       0.00000000       0.00000000       0.00000000       0.00000000       0.64581555
Pb       0.00000000       0.00000000       4.53030303       0.00000000       0.00000000      -0.64581555
2
Properties=species:S:1:pos:R:3:forces:R:3 energy=-2.1801791893095865 pbc="F F F"
Pb       0.00000000       0.00000000       0.00000000       0.00000000       0.00000000       0.60859489
Pb       0.00000000       0.00000000       4.58909091       0.00000000       0.00000000      -0.60859489
2
Properties=species:S:1:pos:R:3:forces:R:3 energy=-2.1453666103515268 pbc="F F F"
Pb       0.00000000       0.00000000       0.00000000       0.00000000       0.00000000       0.57677907
Pb       0.00000000       0.00000000       4.64787879       0.00000000       0.00000000      -0.57677907
2
Properties=species:S:1:pos:R:3:forces:R:3 energy=-2.1122331389188407 pbc="F F F"
Pb       0.00000000       0.00000000       0.00000000       0.00000000       0.00000000       0.55158001
Pb       0.00000000       0.00000000       4.70666667       0.00000000       0.00000000      -0.55158001
2
Properties=species:S:1:pos:R:3:forces:R:3 energy=-2.080371382040723 pbc="F F F"
Pb       0.00000000       0.00000000       0.00000000       0.00000000       0.00000000       0.53361529
Pb       0.00000000       0.00000000       4.76545455       0.00000000       0.00000000      -0.53361529
2
Properties=species:S:1:pos:R:3:forces:R:3 energy=-2.0493571932574706 pbc="F F F"
Pb       0.00000000       0.00000000       0.00000000       0.00000000       0.00000000       0.52250838
Pb       0.00000000       0.00000000       4.82424242       0.00000000       0.00000000      -0.52250838
2
Properties=species:S:1:pos:R:3:forces:R:3 energy=-2.0188384613664425 pbc="F F F"
Pb       0.00000000       0.00000000       0.00000000       0.00000000       0.00000000       0.51645392
Pb       0.00000000       0.00000000       4.88303030       0.00000000       0.00000000      -0.51645392
2
Properties=species:S:1:pos:R:3:forces:R:3 energy=-1.988602475173993 pbc="F F F"
Pb       0.00000000       0.00000000       0.00000000       0.00000000       0.00000000       0.51203191
Pb       0.00000000       0.00000000       4.94181818       0.00000000       0.00000000      -0.51203191
2
Properties=species:S:1:pos:R:3:forces:R:3 energy=-1.958691343430333 pbc="F F F"
Pb       0.00000000       0.00000000       0.00000000       0.00000000       0.00000000       0.50464267
Pb       0.00000000       0.00000000       5.00060606       0.00000000       0.00000000      -0.50464267
2
Properties=species:S:1:pos:R:3:forces:R:3 energy=-1.929404419029058 pbc="F F F"
Pb       0.00000000       0.00000000       0.00000000       0.00000000       0.00000000       0.49041030
Pb       0.00000000       0.00000000       5.05939394       0.00000000       0.00000000      -0.49041030
2
Properties=species:S:1:pos:R:3:forces:R:3 energy=-1.9011564482880965 pbc="F F F"
Pb       0.00000000       0.00000000       0.00000000       0.00000000       0.00000000       0.47006217
Pb       0.00000000       0.00000000       5.11818182       0.00000000       0.00000000      -0.47006217
2
Properties=species:S:1:pos:R:3:forces:R:3 energy=-1.8740842262276136 pbc="F F F"
Pb       0.00000000       0.00000000       0.00000000       0.00000000       0.00000000       0.45270750
Pb       0.00000000       0.00000000       5.17696970       0.00000000       0.00000000      -0.45270750
2
Properties=species:S:1:pos:R:3:forces:R:3 energy=-1.8475901382806361 pbc="F F F"
Pb       0.00000000       0.00000000       0.00000000       0.00000000       0.00000000       0.45241243
Pb       0.00000000       0.00000000       5.23575758       0.00000000       0.00000000      -0.45241243
2
Properties=species:S:1:pos:R:3:forces:R:3 energy=-1.8204893742621804 pbc="F F F"
Pb       0.00000000       0.00000000       0.00000000       0.00000000       0.00000000       0.47177297
Pb       0.00000000       0.00000000       5.29454545       0.00000000       0.00000000      -0.47177297
2
Properties=species:S:1:pos:R:3:forces:R:3 energy=-1.7921493212553137 pbc="F F F"
Pb       0.00000000       0.00000000       0.00000000       0.00000000       0.00000000       0.48936641
Pb       0.00000000       0.00000000       5.35333333       0.00000000       0.00000000      -0.48936641
2
Properties=species:S:1:pos:R:3:forces:R:3 energy=-1.7635165710635246 pbc="F F F"
Pb       0.00000000       0.00000000       0.00000000       0.00000000       0.00000000       0.47905165
Pb       0.00000000       0.00000000       5.41212121       0.00000000       0.00000000      -0.47905165
2
Properties=species:S:1:pos:R:3:forces:R:3 energy=-1.736348803657035 pbc="F F F"
Pb       0.00000000       0.00000000       0.00000000       0.00000000       0.00000000       0.44302535
Pb       0.00000000       0.00000000       5.47090909       0.00000000       0.00000000      -0.44302535
2
Properties=species:S:1:pos:R:3:forces:R:3 energy=-1.7113061609158935 pbc="F F F"
Pb       0.00000000       0.00000000       0.00000000       0.00000000       0.00000000       0.41313782
Pb       0.00000000       0.00000000       5.52969697       0.00000000       0.00000000      -0.41313782
2
Properties=species:S:1:pos:R:3:forces:R:3 energy=-1.6870153598402897 pbc="F F F"
Pb       0.00000000       0.00000000       0.00000000       0.00000000       0.00000000       0.42049557
Pb       0.00000000       0.00000000       5.58848485       0.00000000       0.00000000      -0.42049557
2
Properties=species:S:1:pos:R:3:forces:R:3 energy=-1.661257058256168 pbc="F F F"
Pb       0.00000000       0.00000000       0.00000000       0.00000000       0.00000000       0.45716539
Pb       0.00000000       0.00000000       5.64727273       0.00000000       0.00000000      -0.45716539
2
Properties=species:S:1:pos:R:3:forces:R:3 energy=-1.6337470570576496 pbc="F F F"
Pb       0.00000000       0.00000000       0.00000000       0.00000000       0.00000000       0.46999821
Pb       0.00000000       0.00000000       5.70606061       0.00000000       0.00000000      -0.46999821
2
Properties=species:S:1:pos:R:3:forces:R:3 energy=-1.6073813806318094 pbc="F F F"
Pb       0.00000000       0.00000000       0.00000000       0.00000000       0.00000000       0.41228405
Pb       0.00000000       0.00000000       5.76484848       0.00000000       0.00000000      -0.41228405
2
Properties=species:S:1:pos:R:3:forces:R:3 energy=-1.5865429516662086 pbc="F F F"
Pb       0.00000000       0.00000000       0.00000000       0.00000000       0.00000000       0.29050463
Pb       0.00000000       0.00000000       5.82363636       0.00000000       0.00000000      -0.29050463
2
Properties=species:S:1:pos:R:3:forces:R:3 energy=-1.5735898842995286 pbc="F F F"
Pb       0.00000000       0.00000000       0.00000000       0.00000000       0.00000000       0.15303442
Pb       0.00000000       0.00000000       5.88242424       0.00000000       0.00000000      -0.15303442
2
Properties=species:S:1:pos:R:3:forces:R:3 energy=-1.5678550017360604 pbc="F F F"
Pb       0.00000000       0.00000000       0.00000000       0.00000000       0.00000000       0.04992588
Pb       0.00000000       0.00000000       5.94121212       0.00000000       0.00000000      -0.04992588
2
Properties=species:S:1:pos:R:3:forces:R:3 energy=-1.5664181326281246 pbc="F F F"
Pb       0.00000000       0.00000000       0.00000000       0.00000000       0.00000000       0.01160836
Pb       0.00000000       0.00000000       6.00000000       0.00000000       0.00000000      -0.01160836
