2
Properties=species:S:1:pos:R:3:forces:R:3 energy=11390.83138297539 pbc="F F F"
Pm       0.00000000       0.00000000       0.00000000       0.00000000       0.00000000 -194792.73437500
Pm       0.00000000       0.00000000       0.18000000       0.00000000       0.00000000  194792.73437500
2
Properties=species:S:1:pos:R:3:forces:R:3 energy=4529.61751578789 pbc="F F F"
Pm       0.00000000       0.00000000       0.00000000       0.00000000       0.00000000  -65667.10937500
Pm       0.00000000       0.00000000       0.23878788       0.00000000       0.00000000   65667.10937500
2
Properties=species:S:1:pos:R:3:forces:R:3 energy=2035.6164171550774 pbc="F F F"
Pm       0.00000000       0.00000000       0.00000000       0.00000000       0.00000000  -26069.48437500
Pm       0.00000000       0.00000000       0.29757576       0.00000000       0.00000000   26069.48437500
2
Properties=species:S:1:pos:R:3:forces:R:3 energy=998.0290148113274 pbc="F F F"
Pm       0.00000000       0.00000000       0.00000000       0.00000000       0.00000000  -11452.59375000
Pm       0.00000000       0.00000000       0.35636364       0.00000000       0.00000000   11452.59375000
2
Properties=species:S:1:pos:R:3:forces:R:3 energy=527.0797960739986 pbc="F F F"
Pm       0.00000000       0.00000000       0.00000000       0.00000000       0.00000000   -5402.44580078
Pm       0.00000000       0.00000000       0.41515152       0.00000000       0.00000000    5402.44580078
2
Properties=species:S:1:pos:R:3:forces:R:3 energy=299.1398851979981 pbc="F F F"
Pm       0.00000000       0.00000000       0.00000000       0.00000000       0.00000000   -2696.32226562
Pm       0.00000000       0.00000000       0.47393939       0.00000000       0.00000000    2696.32226562
2
Properties=species:S:1:pos:R:3:forces:R:3 energy=182.8597338308106 pbc="F F F"
Pm       0.00000000       0.00000000       0.00000000       0.00000000       0.00000000   -1411.77075195
Pm       0.00000000       0.00000000       0.53272727       0.00000000       0.00000000    1411.77075195
2
Properties=species:S:1:pos:R:3:forces:R:3 energy=120.8121798527112 pbc="F F F"
Pm       0.00000000       0.00000000       0.00000000       0.00000000       0.00000000    -770.08319092
Pm       0.00000000       0.00000000       0.59151515       0.00000000       0.00000000     770.08319092
2
Properties=species:S:1:pos:R:3:forces:R:3 energy=86.43896518171665 pbc="F F F"
Pm       0.00000000       0.00000000       0.00000000       0.00000000       0.00000000    -433.92938232
Pm       0.00000000       0.00000000       0.65030303       0.00000000       0.00000000     433.92938232
2
Properties=species:S:1:pos:R:3:forces:R:3 energy=66.86877482805689 pbc="F F F"
Pm       0.00000000       0.00000000       0.00000000       0.00000000       0.00000000    -249.46577454
Pm       0.00000000       0.00000000       0.70909091       0.00000000       0.00000000     249.46577454
2
Properties=species:S:1:pos:R:3:forces:R:3 energy=55.590488961873874 pbc="F F F"
Pm       0.00000000       0.00000000       0.00000000       0.00000000       0.00000000    -143.59149170
Pm       0.00000000       0.00000000       0.76787879       0.00000000       0.00000000     143.59149170
2
Properties=species:S:1:pos:R:3:forces:R:3 energy=49.159756412221135 pbc="F F F"
Pm       0.00000000       0.00000000       0.00000000       0.00000000       0.00000000     -80.42757416
Pm       0.00000000       0.00000000       0.82666667       0.00000000       0.00000000      80.42757416
2
Properties=species:S:1:pos:R:3:forces:R:3 energy=45.660569183493195 pbc="F F F"
Pm       0.00000000       0.00000000       0.00000000       0.00000000       0.00000000     -41.69026566
Pm       0.00000000       0.00000000       0.88545455       0.00000000       0.00000000      41.69026566
2
Properties=species:S:1:pos:R:3:forces:R:3 energy=43.974973059553534 pbc="F F F"
Pm       0.00000000       0.00000000       0.00000000       0.00000000       0.00000000     -17.53941727
Pm       0.00000000       0.00000000       0.94424242       0.00000000       0.00000000      17.53941727
2
Properties=species:S:1:pos:R:3:forces:R:3 energy=43.418035344333205 pbc="F F F"
Pm       0.00000000       0.00000000       0.00000000       0.00000000       0.00000000      -2.67465329
Pm       0.00000000       0.00000000       1.00303030       0.00000000       0.00000000       2.67465329
2
Properties=species:S:1:pos:R:3:forces:R:3 energy=43.53247689586639 pbc="F F F"
Pm       0.00000000       0.00000000       0.00000000       0.00000000       0.00000000       5.61147499
Pm       0.00000000       0.00000000       1.06181818       0.00000000       0.00000000      -5.61147499
2
Properties=species:S:1:pos:R:3:forces:R:3 energy=43.97402512597026 pbc="F F F"
Pm       0.00000000       0.00000000       0.00000000       0.00000000       0.00000000       8.57062626
Pm       0.00000000       0.00000000       1.12060606       0.00000000       0.00000000      -8.57062626
2
Properties=species:S:1:pos:R:3:forces:R:3 energy=44.44222689929483 pbc="F F F"
Pm       0.00000000       0.00000000       0.00000000       0.00000000       0.00000000       6.52069521
Pm       0.00000000       0.00000000       1.17939394       0.00000000       0.00000000      -6.52069521
2
Properties=species:S:1:pos:R:3:forces:R:3 energy=44.64227487045708 pbc="F F F"
Pm       0.00000000       0.00000000       0.00000000       0.00000000       0.00000000      -0.54164046
Pm       0.00000000       0.00000000       1.23818182       0.00000000       0.00000000       0.54164046
2
Properties=species:S:1:pos:R:3:forces:R:3 energy=44.28666297395525 pbc="F F F"
Pm       0.00000000       0.00000000       0.00000000       0.00000000       0.00000000     -12.26151943
Pm       0.00000000       0.00000000       1.29696970       0.00000000       0.00000000      12.26151943
2
Properties=species:S:1:pos:R:3:forces:R:3 energy=43.13245994519286 pbc="F F F"
Pm       0.00000000       0.00000000       0.00000000       0.00000000       0.00000000     -27.43341637
Pm       0.00000000       0.00000000       1.35575758       0.00000000       0.00000000      27.43341637
2
Properties=species:S:1:pos:R:3:forces:R:3 energy=41.0305531841242 pbc="F F F"
Pm       0.00000000       0.00000000       0.00000000       0.00000000       0.00000000     -44.17367172
Pm       0.00000000       0.00000000       1.41454545       0.00000000       0.00000000      44.17367172
2
Properties=species:S:1:pos:R:3:forces:R:3 energy=37.942772931279734 pbc="F F F"
Pm       0.00000000       0.00000000       0.00000000       0.00000000       0.00000000     -60.72901154
Pm       0.00000000       0.00000000       1.47333333       0.00000000       0.00000000      60.72901154
2
Properties=species:S:1:pos:R:3:forces:R:3 energy=33.918584505487 pbc="F F F"
Pm       0.00000000       0.00000000       0.00000000       0.00000000       0.00000000     -75.82109833
Pm       0.00000000       0.00000000       1.53212121       0.00000000       0.00000000      75.82109833
2
Properties=species:S:1:pos:R:3:forces:R:3 energy=29.09329918551043 pbc="F F F"
Pm       0.00000000       0.00000000       0.00000000       0.00000000       0.00000000     -87.49610138
Pm       0.00000000       0.00000000       1.59090909       0.00000000       0.00000000      87.49610138
2
Properties=species:S:1:pos:R:3:forces:R:3 energy=23.77534689210823 pbc="F F F"
Pm       0.00000000       0.00000000       0.00000000       0.00000000       0.00000000     -91.82722473
Pm       0.00000000       0.00000000       1.64969697       0.00000000       0.00000000      91.82722473
2
Properties=species:S:1:pos:R:3:forces:R:3 energy=18.50416410499661 pbc="F F F"
Pm       0.00000000       0.00000000       0.00000000       0.00000000       0.00000000     -85.81407166
Pm       0.00000000       0.00000000       1.70848485       0.00000000       0.00000000      85.81407166
2
Properties=species:S:1:pos:R:3:forces:R:3 energy=13.831711081727708 pbc="F F F"
Pm       0.00000000       0.00000000       0.00000000       0.00000000       0.00000000     -72.49112701
Pm       0.00000000       0.00000000       1.76727273       0.00000000       0.00000000      72.49112701
2
Properties=species:S:1:pos:R:3:forces:R:3 energy=9.992232409674653 pbc="F F F"
Pm       0.00000000       0.00000000       0.00000000       0.00000000       0.00000000     -58.44676971
Pm       0.00000000       0.00000000       1.82606061       0.00000000       0.00000000      58.44676971
2
Properties=species:S:1:pos:R:3:forces:R:3 energy=6.90454301405316 pbc="F F F"
Pm       0.00000000       0.00000000       0.00000000       0.00000000       0.00000000     -47.08470535
Pm       0.00000000       0.00000000       1.88484848       0.00000000       0.00000000      47.08470535
2
Properties=species:S:1:pos:R:3:forces:R:3 energy=4.410030032031968 pbc="F F F"
Pm       0.00000000       0.00000000       0.00000000       0.00000000       0.00000000     -38.06381989
Pm       0.00000000       0.00000000       1.94363636       0.00000000       0.00000000      38.06381989
2
Properties=species:S:1:pos:R:3:forces:R:3 energy=2.4051469605732945 pbc="F F F"
Pm       0.00000000       0.00000000       0.00000000       0.00000000       0.00000000     -30.30268860
Pm       0.00000000       0.00000000       2.00242424       0.00000000       0.00000000      30.30268860
2
Properties=species:S:1:pos:R:3:forces:R:3 energy=0.8287582663735499 pbc="F F F"
Pm       0.00000000       0.00000000       0.00000000       0.00000000       0.00000000     -23.49632263
Pm       0.00000000       0.00000000       2.06121212       0.00000000       0.00000000      23.49632263
2
Properties=species:S:1:pos:R:3:forces:R:3 energy=-0.3791184053047902 pbc="F F F"
Pm       0.00000000       0.00000000       0.00000000       0.00000000       0.00000000     -17.78914261
Pm       0.00000000       0.00000000       2.12000000       0.00000000       0.00000000      17.78914261
2
Properties=species:S:1:pos:R:3:forces:R:3 energy=-1.2849314656163506 pbc="F F F"
Pm       0.00000000       0.00000000       0.00000000       0.00000000       0.00000000     -13.20328140
Pm       0.00000000       0.00000000       2.17878788       0.00000000       0.00000000      13.20328140
2
Properties=species:S:1:pos:R:3:forces:R:3 energy=-1.9502388889889177 pbc="F F F"
Pm       0.00000000       0.00000000       0.00000000       0.00000000       0.00000000      -9.57363033
Pm       0.00000000       0.00000000       2.23757576       0.00000000       0.00000000       9.57363033
2
Properties=species:S:1:pos:R:3:forces:R:3 energy=-2.425732603898434 pbc="F F F"
Pm       0.00000000       0.00000000       0.00000000       0.00000000       0.00000000      -6.72128677
Pm       0.00000000       0.00000000       2.29636364       0.00000000       0.00000000       6.72128677
2
Properties=species:S:1:pos:R:3:forces:R:3 energy=-2.753551851918935 pbc="F F F"
Pm       0.00000000       0.00000000       0.00000000       0.00000000       0.00000000      -4.53639507
Pm       0.00000000       0.00000000       2.35515152       0.00000000       0.00000000       4.53639507
2
Properties=species:S:1:pos:R:3:forces:R:3 energy=-2.9708384259694656 pbc="F F F"
Pm       0.00000000       0.00000000       0.00000000       0.00000000       0.00000000      -2.94999313
Pm       0.00000000       0.00000000       2.41393939       0.00000000       0.00000000       2.94999313
2
Properties=species:S:1:pos:R:3:forces:R:3 energy=-3.1106465948212225 pbc="F F F"
Pm       0.00000000       0.00000000       0.00000000       0.00000000       0.00000000      -1.88536692
Pm       0.00000000       0.00000000       2.47272727       0.00000000       0.00000000       1.88536692
2
Properties=species:S:1:pos:R:3:forces:R:3 energy=-3.2006728342506783 pbc="F F F"
Pm       0.00000000       0.00000000       0.00000000       0.00000000       0.00000000      -1.23659420
Pm       0.00000000       0.00000000       2.53151515       0.00000000       0.00000000       1.23659420
2
Properties=species:S:1:pos:R:3:forces:R:3 energy=-3.261774268646466 pbc="F F F"
Pm       0.00000000       0.00000000       0.00000000       0.00000000       0.00000000      -0.88073403
Pm       0.00000000       0.00000000       2.59030303       0.00000000       0.00000000       0.88073403
2
Properties=species:S:1:pos:R:3:forces:R:3 energy=-3.3076892444346715 pbc="F F F"
Pm       0.00000000       0.00000000       0.00000000       0.00000000       0.00000000      -0.70239699
Pm       0.00000000       0.00000000       2.64909091       0.00000000       0.00000000       0.70239699
2
Properties=species:S:1:pos:R:3:forces:R:3 energy=-3.3460216843642154 pbc="F F F"
Pm       0.00000000       0.00000000       0.00000000       0.00000000       0.00000000      -0.60984367
Pm       0.00000000       0.00000000       2.70787879       0.00000000       0.00000000       0.60984367
2
Properties=species:S:1:pos:R:3:forces:R:3 energy=-3.3797861792836033 pbc="F F F"
Pm       0.00000000       0.00000000       0.00000000       0.00000000       0.00000000      -0.53823143
Pm       0.00000000       0.00000000       2.76666667       0.00000000       0.00000000       0.53823143
2
Properties=species:S:1:pos:R:3:forces:R:3 energy=-3.4088836851039663 pbc="F F F"
Pm       0.00000000       0.00000000       0.00000000       0.00000000       0.00000000      -0.44576013
Pm       0.00000000       0.00000000       2.82545455       0.00000000       0.00000000       0.44576013
2
Properties=species:S:1:pos:R:3:forces:R:3 energy=-3.431322012848062 pbc="F F F"
Pm       0.00000000       0.00000000       0.00000000       0.00000000       0.00000000      -0.30915722
Pm       0.00000000       0.00000000       2.88424242       0.00000000       0.00000000       0.30915722
2
Properties=species:S:1:pos:R:3:forces:R:3 energy=-3.444223649326711 pbc="F F F"
Pm       0.00000000       0.00000000       0.00000000       0.00000000       0.00000000      -0.12154366
Pm       0.00000000       0.00000000       2.94303030       0.00000000       0.00000000       0.12154366
2
Properties=species:S:1:pos:R:3:forces:R:3 energy=-3.4447779122447106 pbc="F F F"
Pm       0.00000000       0.00000000       0.00000000       0.00000000       0.00000000       0.10820767
Pm       0.00000000       0.00000000       3.00181818       0.00000000       0.00000000      -0.10820767
2
Properties=species:S:1:pos:R:3:forces:R:3 energy=-3.4311089078703607 pbc="F F F"
Pm       0.00000000       0.00000000       0.00000000       0.00000000       0.00000000       0.35772061
Pm       0.00000000       0.00000000       3.06060606       0.00000000       0.00000000      -0.35772061
2
Properties=species:S:1:pos:R:3:forces:R:3 energy=-3.4029146045331498 pbc="F F F"
Pm       0.00000000       0.00000000       0.00000000       0.00000000       0.00000000       0.59729564
Pm       0.00000000       0.00000000       3.11939394       0.00000000       0.00000000      -0.59729564
2
Properties=species:S:1:pos:R:3:forces:R:3 energy=-3.361625231259297 pbc="F F F"
Pm       0.00000000       0.00000000       0.00000000       0.00000000       0.00000000       0.79925084
Pm       0.00000000       0.00000000       3.17818182       0.00000000       0.00000000      -0.79925084
2
Properties=species:S:1:pos:R:3:forces:R:3 energy=-3.3100239538124043 pbc="F F F"
Pm       0.00000000       0.00000000       0.00000000       0.00000000       0.00000000       0.94651550
Pm       0.00000000       0.00000000       3.23696970       0.00000000       0.00000000      -0.94651550
2
Properties=species:S:1:pos:R:3:forces:R:3 energy=-3.251470043606298 pbc="F F F"
Pm       0.00000000       0.00000000       0.00000000       0.00000000       0.00000000       1.03646135
Pm       0.00000000       0.00000000       3.29575758       0.00000000       0.00000000      -1.03646135
2
Properties=species:S:1:pos:R:3:forces:R:3 energy=-3.1890978419644025 pbc="F F F"
Pm       0.00000000       0.00000000       0.00000000       0.00000000       0.00000000       1.07880020
Pm       0.00000000       0.00000000       3.35454545       0.00000000       0.00000000      -1.07880020
2
Properties=species:S:1:pos:R:3:forces:R:3 energy=-3.125240223645705 pbc="F F F"
Pm       0.00000000       0.00000000       0.00000000       0.00000000       0.00000000       1.08996367
Pm       0.00000000       0.00000000       3.41333333       0.00000000       0.00000000      -1.08996367
2
Properties=species:S:1:pos:R:3:forces:R:3 energy=-3.0612149934768778 pbc="F F F"
Pm       0.00000000       0.00000000       0.00000000       0.00000000       0.00000000       1.08720398
Pm       0.00000000       0.00000000       3.47212121       0.00000000       0.00000000      -1.08720398
2
Properties=species:S:1:pos:R:3:forces:R:3 energy=-2.997408475566813 pbc="F F F"
Pm       0.00000000       0.00000000       0.00000000       0.00000000       0.00000000       1.08444417
Pm       0.00000000       0.00000000       3.53090909       0.00000000       0.00000000      -1.08444417
2
Properties=species:S:1:pos:R:3:forces:R:3 energy=-2.93353623386237 pbc="F F F"
Pm       0.00000000       0.00000000       0.00000000       0.00000000       0.00000000       1.09040821
Pm       0.00000000       0.00000000       3.58969697       0.00000000       0.00000000      -1.09040821
2
Properties=species:S:1:pos:R:3:forces:R:3 energy=-2.8689597933917312 pbc="F F F"
Pm       0.00000000       0.00000000       0.00000000       0.00000000       0.00000000       1.10863411
Pm       0.00000000       0.00000000       3.64848485       0.00000000       0.00000000      -1.10863411
2
Properties=species:S:1:pos:R:3:forces:R:3 energy=-2.802958711541118 pbc="F F F"
Pm       0.00000000       0.00000000       0.00000000       0.00000000       0.00000000       1.13845825
Pm       0.00000000       0.00000000       3.70727273       0.00000000       0.00000000      -1.13845825
2
Properties=species:S:1:pos:R:3:forces:R:3 energy=-2.7349475793115428 pbc="F F F"
Pm       0.00000000       0.00000000       0.00000000       0.00000000       0.00000000       1.17618537
Pm       0.00000000       0.00000000       3.76606061       0.00000000       0.00000000      -1.17618537
2
Properties=species:S:1:pos:R:3:forces:R:3 energy=-2.6646221188867414 pbc="F F F"
Pm       0.00000000       0.00000000       0.00000000       0.00000000       0.00000000       1.21622789
Pm       0.00000000       0.00000000       3.82484848       0.00000000       0.00000000      -1.21622789
2
Properties=species:S:1:pos:R:3:forces:R:3 energy=-2.59202473840704 pbc="F F F"
Pm       0.00000000       0.00000000       0.00000000       0.00000000       0.00000000       1.25240862
Pm       0.00000000       0.00000000       3.88363636       0.00000000       0.00000000      -1.25240862
2
Properties=species:S:1:pos:R:3:forces:R:3 energy=-2.517549325683514 pbc="F F F"
Pm       0.00000000       0.00000000       0.00000000       0.00000000       0.00000000       1.27947903
Pm       0.00000000       0.00000000       3.94242424       0.00000000       0.00000000      -1.27947903
2
Properties=species:S:1:pos:R:3:forces:R:3 energy=-2.4418309087451178 pbc="F F F"
Pm       0.00000000       0.00000000       0.00000000       0.00000000       0.00000000       1.29437780
Pm       0.00000000       0.00000000       4.00121212       0.00000000       0.00000000      -1.29437780
2
Properties=species:S:1:pos:R:3:forces:R:3 energy=-2.3656116796044167 pbc="F F F"
Pm       0.00000000       0.00000000       0.00000000       0.00000000       0.00000000       1.29663372
Pm       0.00000000       0.00000000       4.06000000       0.00000000       0.00000000      -1.29663372
2
Properties=species:S:1:pos:R:3:forces:R:3 energy=-2.2895981435148434 pbc="F F F"
Pm       0.00000000       0.00000000       0.00000000       0.00000000       0.00000000       1.28771317
Pm       0.00000000       0.00000000       4.11878788       0.00000000       0.00000000      -1.28771317
2
Properties=species:S:1:pos:R:3:forces:R:3 energy=-2.2143829303480405 pbc="F F F"
Pm       0.00000000       0.00000000       0.00000000       0.00000000       0.00000000       1.26978564
Pm       0.00000000       0.00000000       4.17757576       0.00000000       0.00000000      -1.26978564
2
Properties=species:S:1:pos:R:3:forces:R:3 energy=-2.1404410685956146 pbc="F F F"
Pm       0.00000000       0.00000000       0.00000000       0.00000000       0.00000000       1.24465203
Pm       0.00000000       0.00000000       4.23636364       0.00000000       0.00000000      -1.24465203
2
Properties=species:S:1:pos:R:3:forces:R:3 energy=-2.0681618827735817 pbc="F F F"
Pm       0.00000000       0.00000000       0.00000000       0.00000000       0.00000000       1.21333134
Pm       0.00000000       0.00000000       4.29515152       0.00000000       0.00000000      -1.21333134
2
Properties=species:S:1:pos:R:3:forces:R:3 energy=-1.9978947467828811 pbc="F F F"
Pm       0.00000000       0.00000000       0.00000000       0.00000000       0.00000000       1.17635560
Pm       0.00000000       0.00000000       4.35393939       0.00000000       0.00000000      -1.17635560
2
Properties=species:S:1:pos:R:3:forces:R:3 energy=-1.9299511968304153 pbc="F F F"
Pm       0.00000000       0.00000000       0.00000000       0.00000000       0.00000000       1.13437486
Pm       0.00000000       0.00000000       4.41272727       0.00000000       0.00000000      -1.13437486
2
Properties=species:S:1:pos:R:3:forces:R:3 energy=-1.8645916761912344 pbc="F F F"
Pm       0.00000000       0.00000000       0.00000000       0.00000000       0.00000000       1.08873129
Pm       0.00000000       0.00000000       4.47151515       0.00000000       0.00000000      -1.08873129
2
Properties=species:S:1:pos:R:3:forces:R:3 energy=-1.8019709120113474 pbc="F F F"
Pm       0.00000000       0.00000000       0.00000000       0.00000000       0.00000000       1.04163170
Pm       0.00000000       0.00000000       4.53030303       0.00000000       0.00000000      -1.04163170
2
Properties=species:S:1:pos:R:3:forces:R:3 energy=-1.742095025306059 pbc="F F F"
Pm       0.00000000       0.00000000       0.00000000       0.00000000       0.00000000       0.99588567
Pm       0.00000000       0.00000000       4.58909091       0.00000000       0.00000000      -0.99588567
2
Properties=species:S:1:pos:R:3:forces:R:3 energy=-1.6847973896629425 pbc="F F F"
Pm       0.00000000       0.00000000       0.00000000       0.00000000       0.00000000       0.95434445
Pm       0.00000000       0.00000000       4.64787879       0.00000000       0.00000000      -0.95434445
2
Properties=species:S:1:pos:R:3:forces:R:3 energy=-1.6297606521142327 pbc="F F F"
Pm       0.00000000       0.00000000       0.00000000       0.00000000       0.00000000       0.91917664
Pm       0.00000000       0.00000000       4.70666667       0.00000000       0.00000000      -0.91917664
2
Properties=species:S:1:pos:R:3:forces:R:3 energy=-1.5765810704752226 pbc="F F F"
Pm       0.00000000       0.00000000       0.00000000       0.00000000       0.00000000       0.89128071
Pm       0.00000000       0.00000000       4.76545455       0.00000000       0.00000000      -0.89128071
2
Properties=species:S:1:pos:R:3:forces:R:3 energy=-1.5248381188980706 pbc="F F F"
Pm       0.00000000       0.00000000       0.00000000       0.00000000       0.00000000       0.86983502
Pm       0.00000000       0.00000000       4.82424242       0.00000000       0.00000000      -0.86983502
2
Properties=species:S:1:pos:R:3:forces:R:3 energy=-1.474238185750866 pbc="F F F"
Pm       0.00000000       0.00000000       0.00000000       0.00000000       0.00000000       0.85206228
Pm       0.00000000       0.00000000       4.88303030       0.00000000       0.00000000      -0.85206228
2
Properties=species:S:1:pos:R:3:forces:R:3 energy=-1.424673757278091 pbc="F F F"
Pm       0.00000000       0.00000000       0.00000000       0.00000000       0.00000000       0.83345133
Pm       0.00000000       0.00000000       4.94181818       0.00000000       0.00000000      -0.83345133
2
Properties=species:S:1:pos:R:3:forces:R:3 energy=-1.376358187454256 pbc="F F F"
Pm       0.00000000       0.00000000       0.00000000       0.00000000       0.00000000       0.80900371
Pm       0.00000000       0.00000000       5.00060606       0.00000000       0.00000000      -0.80900371
2
Properties=species:S:1:pos:R:3:forces:R:3 energy=-1.3297156056211552 pbc="F F F"
Pm       0.00000000       0.00000000       0.00000000       0.00000000       0.00000000       0.77650648
Pm       0.00000000       0.00000000       5.05939394       0.00000000       0.00000000      -0.77650648
2
Properties=species:S:1:pos:R:3:forces:R:3 energy=-1.2851119538201081 pbc="F F F"
Pm       0.00000000       0.00000000       0.00000000       0.00000000       0.00000000       0.74173397
Pm       0.00000000       0.00000000       5.11818182       0.00000000       0.00000000      -0.74173397
2
Properties=species:S:1:pos:R:3:forces:R:3 energy=-1.2422429104465615 pbc="F F F"
Pm       0.00000000       0.00000000       0.00000000       0.00000000       0.00000000       0.72059095
Pm       0.00000000       0.00000000       5.17696970       0.00000000       0.00000000      -0.72059095
2
Properties=species:S:1:pos:R:3:forces:R:3 energy=-1.1998093645500654 pbc="F F F"
Pm       0.00000000       0.00000000       0.00000000       0.00000000       0.00000000       0.72820204
Pm       0.00000000       0.00000000       5.23575758       0.00000000       0.00000000      -0.72820204
2
Properties=species:S:1:pos:R:3:forces:R:3 energy=-1.1562079307242454 pbc="F F F"
Pm       0.00000000       0.00000000       0.00000000       0.00000000       0.00000000       0.75592667
Pm       0.00000000       0.00000000       5.29454545       0.00000000       0.00000000      -0.75592667
2
Properties=species:S:1:pos:R:3:forces:R:3 energy=-1.111260344780846 pbc="F F F"
Pm       0.00000000       0.00000000       0.00000000       0.00000000       0.00000000       0.76698071
Pm       0.00000000       0.00000000       5.35333333       0.00000000       0.00000000      -0.76698071
2
Properties=species:S:1:pos:R:3:forces:R:3 energy=-1.066942008986916 pbc="F F F"
Pm       0.00000000       0.00000000       0.00000000       0.00000000       0.00000000       0.73340636
Pm       0.00000000       0.00000000       5.41212121       0.00000000       0.00000000      -0.73340636
2
Properties=species:S:1:pos:R:3:forces:R:3 energy=-1.0255263169072164 pbc="F F F"
Pm       0.00000000       0.00000000       0.00000000       0.00000000       0.00000000       0.67605758
Pm       0.00000000       0.00000000       5.47090909       0.00000000       0.00000000      -0.67605758
2
Properties=species:S:1:pos:R:3:forces:R:3 energy=-0.9866542595679763 pbc="F F F"
Pm       0.00000000       0.00000000       0.00000000       0.00000000       0.00000000       0.65902191
Pm       0.00000000       0.00000000       5.52969697       0.00000000       0.00000000      -0.65902191
2
Properties=species:S:1:pos:R:3:forces:R:3 energy=-0.9461008122985993 pbc="F F F"
Pm       0.00000000       0.00000000       0.00000000       0.00000000       0.00000000       0.73823786
Pm       0.00000000       0.00000000       5.58848485       0.00000000       0.00000000      -0.73823786
2
Properties=species:S:1:pos:R:3:forces:R:3 energy=-0.8983417353150316 pbc="F F F"
Pm       0.00000000       0.00000000       0.00000000       0.00000000       0.00000000       0.89255333
Pm       0.00000000       0.00000000       5.64727273       0.00000000       0.00000000      -0.89255333
2
Properties=species:S:1:pos:R:3:forces:R:3 energy=-0.8419580765811051 pbc="F F F"
Pm       0.00000000       0.00000000       0.00000000       0.00000000       0.00000000       1.00569034
Pm       0.00000000       0.00000000       5.70606061       0.00000000       0.00000000      -1.00569034
2
Properties=species:S:1:pos:R:3:forces:R:3 energy=-0.7833181917187387 pbc="F F F"
Pm       0.00000000       0.00000000       0.00000000       0.00000000       0.00000000       0.95165664
Pm       0.00000000       0.00000000       5.76484848       0.00000000       0.00000000      -0.95165664
2
Properties=species:S:1:pos:R:3:forces:R:3 energy=-0.733727725159272 pbc="F F F"
Pm       0.00000000       0.00000000       0.00000000       0.00000000       0.00000000       0.71173829
Pm       0.00000000       0.00000000       5.82363636       0.00000000       0.00000000      -0.71173829
2
Properties=species:S:1:pos:R:3:forces:R:3 energy=-0.7013492013523821 pbc="F F F"
Pm       0.00000000       0.00000000       0.00000000       0.00000000       0.00000000       0.39314798
Pm       0.00000000       0.00000000       5.88242424       0.00000000       0.00000000      -0.39314798
2
Properties=species:S:1:pos:R:3:forces:R:3 energy=-0.6862528633769587 pbc="F F F"
Pm       0.00000000       0.00000000       0.00000000       0.00000000       0.00000000       0.13860884
Pm       0.00000000       0.00000000       5.94121212       0.00000000       0.00000000      -0.13860884
2
Properties=species:S:1:pos:R:3:forces:R:3 energy=-0.6818779455801096 pbc="F F F"
Pm       0.00000000       0.00000000       0.00000000       0.00000000       0.00000000       0.04226183
Pm       0.00000000       0.00000000       6.00000000       0.00000000       0.00000000      -0.04226183
