2
Properties=species:S:1:pos:R:3:forces:R:3 energy=84391.66788141172 pbc="F F F"
Pt       0.00000000       0.00000000       0.00000000       0.00000000       0.00000000 -2141778.75000000
Pt       0.00000000       0.00000000       0.10000000       0.00000000       0.00000000 2141778.75000000
2
Properties=species:S:1:pos:R:3:forces:R:3 energy=23080.67960016171 pbc="F F F"
Pt       0.00000000       0.00000000       0.00000000       0.00000000       0.00000000 -437679.25000000
Pt       0.00000000       0.00000000       0.15959596       0.00000000       0.00000000  437679.25000000
2
Properties=species:S:1:pos:R:3:forces:R:3 energy=8277.665928286711 pbc="F F F"
Pt       0.00000000       0.00000000       0.00000000       0.00000000       0.00000000 -130517.16406250
Pt       0.00000000       0.00000000       0.21919192       0.00000000       0.00000000  130517.16406250
2
Properties=species:S:1:pos:R:3:forces:R:3 energy=3439.1463970398795 pbc="F F F"
Pt       0.00000000       0.00000000       0.00000000       0.00000000       0.00000000  -47580.34765625
Pt       0.00000000       0.00000000       0.27878788       0.00000000       0.00000000   47580.34765625
2
Properties=species:S:1:pos:R:3:forces:R:3 energy=1576.3192486023795 pbc="F F F"
Pt       0.00000000       0.00000000       0.00000000       0.00000000       0.00000000  -19533.91210938
Pt       0.00000000       0.00000000       0.33838384       0.00000000       0.00000000   19533.91210938
2
Properties=species:S:1:pos:R:3:forces:R:3 energy=782.7555889439142 pbc="F F F"
Pt       0.00000000       0.00000000       0.00000000       0.00000000       0.00000000   -8697.40722656
Pt       0.00000000       0.00000000       0.39797980       0.00000000       0.00000000    8697.40722656
2
Properties=species:S:1:pos:R:3:forces:R:3 energy=419.2604412451717 pbc="F F F"
Pt       0.00000000       0.00000000       0.00000000       0.00000000       0.00000000   -4121.68994141
Pt       0.00000000       0.00000000       0.45757576       0.00000000       0.00000000    4121.68994141
2
Properties=species:S:1:pos:R:3:forces:R:3 energy=243.04956480250274 pbc="F F F"
Pt       0.00000000       0.00000000       0.00000000       0.00000000       0.00000000   -2051.43896484
Pt       0.00000000       0.00000000       0.51717172       0.00000000       0.00000000    2051.43896484
2
Properties=species:S:1:pos:R:3:forces:R:3 energy=153.8755230893019 pbc="F F F"
Pt       0.00000000       0.00000000       0.00000000       0.00000000       0.00000000   -1056.86267090
Pt       0.00000000       0.00000000       0.57676768       0.00000000       0.00000000    1056.86267090
2
Properties=species:S:1:pos:R:3:forces:R:3 energy=107.52486855060756 pbc="F F F"
Pt       0.00000000       0.00000000       0.00000000       0.00000000       0.00000000    -553.13848877
Pt       0.00000000       0.00000000       0.63636364       0.00000000       0.00000000     553.13848877
2
Properties=species:S:1:pos:R:3:forces:R:3 energy=83.36884753381382 pbc="F F F"
Pt       0.00000000       0.00000000       0.00000000       0.00000000       0.00000000    -283.99258423
Pt       0.00000000       0.00000000       0.69595960       0.00000000       0.00000000     283.99258423
2
Properties=species:S:1:pos:R:3:forces:R:3 energy=71.40704806428725 pbc="F F F"
Pt       0.00000000       0.00000000       0.00000000       0.00000000       0.00000000    -131.14926147
Pt       0.00000000       0.00000000       0.75555556       0.00000000       0.00000000     131.14926147
2
Properties=species:S:1:pos:R:3:forces:R:3 energy=66.47501856824935 pbc="F F F"
Pt       0.00000000       0.00000000       0.00000000       0.00000000       0.00000000     -42.79111099
Pt       0.00000000       0.00000000       0.81515152       0.00000000       0.00000000      42.79111099
2
Properties=species:S:1:pos:R:3:forces:R:3 energy=65.44750730102317 pbc="F F F"
Pt       0.00000000       0.00000000       0.00000000       0.00000000       0.00000000       1.98439360
Pt       0.00000000       0.00000000       0.87474747       0.00000000       0.00000000      -1.98439360
2
Properties=species:S:1:pos:R:3:forces:R:3 energy=66.04578199448223 pbc="F F F"
Pt       0.00000000       0.00000000       0.00000000       0.00000000       0.00000000      13.26393127
Pt       0.00000000       0.00000000       0.93434343       0.00000000       0.00000000     -13.26393127
2
Properties=species:S:1:pos:R:3:forces:R:3 energy=66.53913743808123 pbc="F F F"
Pt       0.00000000       0.00000000       0.00000000       0.00000000       0.00000000      -0.14965466
Pt       0.00000000       0.00000000       0.99393939       0.00000000       0.00000000       0.14965466
2
Properties=species:S:1:pos:R:3:forces:R:3 energy=65.68629407728672 pbc="F F F"
Pt       0.00000000       0.00000000       0.00000000       0.00000000       0.00000000     -30.78925705
Pt       0.00000000       0.00000000       1.05353535       0.00000000       0.00000000      30.78925705
2
Properties=species:S:1:pos:R:3:forces:R:3 energy=62.66208336266816 pbc="F F F"
Pt       0.00000000       0.00000000       0.00000000       0.00000000       0.00000000     -71.76280975
Pt       0.00000000       0.00000000       1.11313131       0.00000000       0.00000000      71.76280975
2
Properties=species:S:1:pos:R:3:forces:R:3 energy=57.11843713928427 pbc="F F F"
Pt       0.00000000       0.00000000       0.00000000       0.00000000       0.00000000    -113.25418854
Pt       0.00000000       0.00000000       1.17272727       0.00000000       0.00000000     113.25418854
2
Properties=species:S:1:pos:R:3:forces:R:3 energy=49.449436611556706 pbc="F F F"
Pt       0.00000000       0.00000000       0.00000000       0.00000000       0.00000000    -140.34347534
Pt       0.00000000       0.00000000       1.23232323       0.00000000       0.00000000     140.34347534
2
Properties=species:S:1:pos:R:3:forces:R:3 energy=40.91226114427751 pbc="F F F"
Pt       0.00000000       0.00000000       0.00000000       0.00000000       0.00000000    -142.20262146
Pt       0.00000000       0.00000000       1.29191919       0.00000000       0.00000000     142.20262146
2
Properties=species:S:1:pos:R:3:forces:R:3 energy=32.79870469690522 pbc="F F F"
Pt       0.00000000       0.00000000       0.00000000       0.00000000       0.00000000    -128.84869385
Pt       0.00000000       0.00000000       1.35151515       0.00000000       0.00000000     128.84869385
2
Properties=species:S:1:pos:R:3:forces:R:3 energy=25.651934516746177 pbc="F F F"
Pt       0.00000000       0.00000000       0.00000000       0.00000000       0.00000000    -110.23687744
Pt       0.00000000       0.00000000       1.41111111       0.00000000       0.00000000     110.23687744
2
Properties=species:S:1:pos:R:3:forces:R:3 energy=19.733562722842812 pbc="F F F"
Pt       0.00000000       0.00000000       0.00000000       0.00000000       0.00000000     -88.12238312
Pt       0.00000000       0.00000000       1.47070707       0.00000000       0.00000000      88.12238312
2
Properties=species:S:1:pos:R:3:forces:R:3 energy=15.109073542697022 pbc="F F F"
Pt       0.00000000       0.00000000       0.00000000       0.00000000       0.00000000     -67.93978119
Pt       0.00000000       0.00000000       1.53030303       0.00000000       0.00000000      67.93978119
2
Properties=species:S:1:pos:R:3:forces:R:3 energy=11.499363941117338 pbc="F F F"
Pt       0.00000000       0.00000000       0.00000000       0.00000000       0.00000000     -54.49972153
Pt       0.00000000       0.00000000       1.58989899       0.00000000       0.00000000      54.49972153
2
Properties=species:S:1:pos:R:3:forces:R:3 energy=8.469798990169087 pbc="F F F"
Pt       0.00000000       0.00000000       0.00000000       0.00000000       0.00000000     -48.01705933
Pt       0.00000000       0.00000000       1.64949495       0.00000000       0.00000000      48.01705933
2
Properties=species:S:1:pos:R:3:forces:R:3 energy=5.73442352687218 pbc="F F F"
Pt       0.00000000       0.00000000       0.00000000       0.00000000       0.00000000     -43.74179459
Pt       0.00000000       0.00000000       1.70909091       0.00000000       0.00000000      43.74179459
2
Properties=species:S:1:pos:R:3:forces:R:3 energy=3.2795678623435984 pbc="F F F"
Pt       0.00000000       0.00000000       0.00000000       0.00000000       0.00000000     -38.40224075
Pt       0.00000000       0.00000000       1.76868687       0.00000000       0.00000000      38.40224075
2
Properties=species:S:1:pos:R:3:forces:R:3 energy=1.1792535704186853 pbc="F F F"
Pt       0.00000000       0.00000000       0.00000000       0.00000000       0.00000000     -31.97942543
Pt       0.00000000       0.00000000       1.82828283       0.00000000       0.00000000      31.97942543
2
Properties=species:S:1:pos:R:3:forces:R:3 energy=-0.5301366313820206 pbc="F F F"
Pt       0.00000000       0.00000000       0.00000000       0.00000000       0.00000000     -25.44554520
Pt       0.00000000       0.00000000       1.88787879       0.00000000       0.00000000      25.44554520
2
Properties=species:S:1:pos:R:3:forces:R:3 energy=-1.8665107360018174 pbc="F F F"
Pt       0.00000000       0.00000000       0.00000000       0.00000000       0.00000000     -19.54049873
Pt       0.00000000       0.00000000       1.94747475       0.00000000       0.00000000      19.54049873
2
Properties=species:S:1:pos:R:3:forces:R:3 energy=-2.876682733963066 pbc="F F F"
Pt       0.00000000       0.00000000       0.00000000       0.00000000       0.00000000     -14.50589943
Pt       0.00000000       0.00000000       2.00707071       0.00000000       0.00000000      14.50589943
2
Properties=species:S:1:pos:R:3:forces:R:3 energy=-3.611920860892843 pbc="F F F"
Pt       0.00000000       0.00000000       0.00000000       0.00000000       0.00000000     -10.29730034
Pt       0.00000000       0.00000000       2.06666667       0.00000000       0.00000000      10.29730034
2
Properties=species:S:1:pos:R:3:forces:R:3 energy=-4.11856877015765 pbc="F F F"
Pt       0.00000000       0.00000000       0.00000000       0.00000000       0.00000000      -6.82143116
Pt       0.00000000       0.00000000       2.12626263       0.00000000       0.00000000       6.82143116
2
Properties=species:S:1:pos:R:3:forces:R:3 energy=-4.438272195576351 pbc="F F F"
Pt       0.00000000       0.00000000       0.00000000       0.00000000       0.00000000      -4.01486111
Pt       0.00000000       0.00000000       2.18585859       0.00000000       0.00000000       4.01486111
2
Properties=species:S:1:pos:R:3:forces:R:3 energy=-4.609296665404434 pbc="F F F"
Pt       0.00000000       0.00000000       0.00000000       0.00000000       0.00000000      -1.82100046
Pt       0.00000000       0.00000000       2.24545455       0.00000000       0.00000000       1.82100046
2
Properties=species:S:1:pos:R:3:forces:R:3 energy=-4.665982158856289 pbc="F F F"
Pt       0.00000000       0.00000000       0.00000000       0.00000000       0.00000000      -0.16323598
Pt       0.00000000       0.00000000       2.30505051       0.00000000       0.00000000       0.16323598
2
Properties=species:S:1:pos:R:3:forces:R:3 energy=-4.63758515826388 pbc="F F F"
Pt       0.00000000       0.00000000       0.00000000       0.00000000       0.00000000       1.04965377
Pt       0.00000000       0.00000000       2.36464646       0.00000000       0.00000000      -1.04965377
2
Properties=species:S:1:pos:R:3:forces:R:3 energy=-4.548021086999533 pbc="F F F"
Pt       0.00000000       0.00000000       0.00000000       0.00000000       0.00000000       1.90190780
Pt       0.00000000       0.00000000       2.42424242       0.00000000       0.00000000      -1.90190780
2
Properties=species:S:1:pos:R:3:forces:R:3 energy=-4.416763603685535 pbc="F F F"
Pt       0.00000000       0.00000000       0.00000000       0.00000000       0.00000000       2.45817852
Pt       0.00000000       0.00000000       2.48383838       0.00000000       0.00000000      -2.45817852
2
Properties=species:S:1:pos:R:3:forces:R:3 energy=-4.259892699226443 pbc="F F F"
Pt       0.00000000       0.00000000       0.00000000       0.00000000       0.00000000       2.76956272
Pt       0.00000000       0.00000000       2.54343434       0.00000000       0.00000000      -2.76956272
2
Properties=species:S:1:pos:R:3:forces:R:3 energy=-4.090462318735417 pbc="F F F"
Pt       0.00000000       0.00000000       0.00000000       0.00000000       0.00000000       2.88959551
Pt       0.00000000       0.00000000       2.60303030       0.00000000       0.00000000      -2.88959551
2
Properties=species:S:1:pos:R:3:forces:R:3 energy=-3.9180000881522057 pbc="F F F"
Pt       0.00000000       0.00000000       0.00000000       0.00000000       0.00000000       2.88270187
Pt       0.00000000       0.00000000       2.66262626       0.00000000       0.00000000      -2.88270187
2
Properties=species:S:1:pos:R:3:forces:R:3 energy=-3.748065311282208 pbc="F F F"
Pt       0.00000000       0.00000000       0.00000000       0.00000000       0.00000000       2.81491780
Pt       0.00000000       0.00000000       2.72222222       0.00000000       0.00000000      -2.81491780
2
Properties=species:S:1:pos:R:3:forces:R:3 energy=-3.5826961617912447 pbc="F F F"
Pt       0.00000000       0.00000000       0.00000000       0.00000000       0.00000000       2.73559713
Pt       0.00000000       0.00000000       2.78181818       0.00000000       0.00000000      -2.73559713
2
Properties=species:S:1:pos:R:3:forces:R:3 energy=-3.421743945874029 pbc="F F F"
Pt       0.00000000       0.00000000       0.00000000       0.00000000       0.00000000       2.66866016
Pt       0.00000000       0.00000000       2.84141414       0.00000000       0.00000000      -2.66866016
2
Properties=species:S:1:pos:R:3:forces:R:3 energy=-3.2643149837367207 pbc="F F F"
Pt       0.00000000       0.00000000       0.00000000       0.00000000       0.00000000       2.61633205
Pt       0.00000000       0.00000000       2.90101010       0.00000000       0.00000000      -2.61633205
2
Properties=species:S:1:pos:R:3:forces:R:3 energy=-3.109818129305054 pbc="F F F"
Pt       0.00000000       0.00000000       0.00000000       0.00000000       0.00000000       2.56796551
Pt       0.00000000       0.00000000       2.96060606       0.00000000       0.00000000      -2.56796551
2
Properties=species:S:1:pos:R:3:forces:R:3 energy=-2.9584344865325605 pbc="F F F"
Pt       0.00000000       0.00000000       0.00000000       0.00000000       0.00000000       2.50962782
Pt       0.00000000       0.00000000       3.02020202       0.00000000       0.00000000      -2.50962782
2
Properties=species:S:1:pos:R:3:forces:R:3 energy=-2.81109590315751 pbc="F F F"
Pt       0.00000000       0.00000000       0.00000000       0.00000000       0.00000000       2.43108535
Pt       0.00000000       0.00000000       3.07979798       0.00000000       0.00000000      -2.43108535
2
Properties=species:S:1:pos:R:3:forces:R:3 energy=-2.6691466273185376 pbc="F F F"
Pt       0.00000000       0.00000000       0.00000000       0.00000000       0.00000000       2.32873964
Pt       0.00000000       0.00000000       3.13939394       0.00000000       0.00000000      -2.32873964
2
Properties=species:S:1:pos:R:3:forces:R:3 energy=-2.533955001253673 pbc="F F F"
Pt       0.00000000       0.00000000       0.00000000       0.00000000       0.00000000       2.20506954
Pt       0.00000000       0.00000000       3.19898990       0.00000000       0.00000000      -2.20506954
2
Properties=species:S:1:pos:R:3:forces:R:3 energy=-2.406618929336172 pbc="F F F"
Pt       0.00000000       0.00000000       0.00000000       0.00000000       0.00000000       2.06634378
Pt       0.00000000       0.00000000       3.25858586       0.00000000       0.00000000      -2.06634378
2
Properties=species:S:1:pos:R:3:forces:R:3 energy=-2.2878149891283304 pbc="F F F"
Pt       0.00000000       0.00000000       0.00000000       0.00000000       0.00000000       1.91996324
Pt       0.00000000       0.00000000       3.31818182       0.00000000       0.00000000      -1.91996324
2
Properties=species:S:1:pos:R:3:forces:R:3 energy=-2.1777965842214715 pbc="F F F"
Pt       0.00000000       0.00000000       0.00000000       0.00000000       0.00000000       1.77245402
Pt       0.00000000       0.00000000       3.37777778       0.00000000       0.00000000      -1.77245402
2
Properties=species:S:1:pos:R:3:forces:R:3 energy=-2.076482075914919 pbc="F F F"
Pt       0.00000000       0.00000000       0.00000000       0.00000000       0.00000000       1.62843084
Pt       0.00000000       0.00000000       3.43737374       0.00000000       0.00000000      -1.62843084
2
Properties=species:S:1:pos:R:3:forces:R:3 energy=-1.983577823041927 pbc="F F F"
Pt       0.00000000       0.00000000       0.00000000       0.00000000       0.00000000       1.49053597
Pt       0.00000000       0.00000000       3.49696970       0.00000000       0.00000000      -1.49053597
2
Properties=species:S:1:pos:R:3:forces:R:3 energy=-1.898675990607906 pbc="F F F"
Pt       0.00000000       0.00000000       0.00000000       0.00000000       0.00000000       1.35996699
Pt       0.00000000       0.00000000       3.55656566       0.00000000       0.00000000      -1.35996699
2
Properties=species:S:1:pos:R:3:forces:R:3 energy=-1.821326151391889 pbc="F F F"
Pt       0.00000000       0.00000000       0.00000000       0.00000000       0.00000000       1.23718095
Pt       0.00000000       0.00000000       3.61616162       0.00000000       0.00000000      -1.23718095
2
Properties=species:S:1:pos:R:3:forces:R:3 energy=-1.7510550493460175 pbc="F F F"
Pt       0.00000000       0.00000000       0.00000000       0.00000000       0.00000000       1.12241971
Pt       0.00000000       0.00000000       3.67575758       0.00000000       0.00000000      -1.12241971
2
Properties=species:S:1:pos:R:3:forces:R:3 energy=-1.6873776935630669 pbc="F F F"
Pt       0.00000000       0.00000000       0.00000000       0.00000000       0.00000000       1.01597703
Pt       0.00000000       0.00000000       3.73535354       0.00000000       0.00000000      -1.01597703
2
Properties=species:S:1:pos:R:3:forces:R:3 energy=-1.62978615577105 pbc="F F F"
Pt       0.00000000       0.00000000       0.00000000       0.00000000       0.00000000       0.91822207
Pt       0.00000000       0.00000000       3.79494949       0.00000000       0.00000000      -0.91822207
2
Properties=species:S:1:pos:R:3:forces:R:3 energy=-1.5777541541391977 pbc="F F F"
Pt       0.00000000       0.00000000       0.00000000       0.00000000       0.00000000       0.82944995
Pt       0.00000000       0.00000000       3.85454545       0.00000000       0.00000000      -0.82944995
2
Properties=species:S:1:pos:R:3:forces:R:3 energy=-1.5307425432409218 pbc="F F F"
Pt       0.00000000       0.00000000       0.00000000       0.00000000       0.00000000       0.74974334
Pt       0.00000000       0.00000000       3.91414141       0.00000000       0.00000000      -0.74974334
2
Properties=species:S:1:pos:R:3:forces:R:3 energy=-1.4882152880986153 pbc="F F F"
Pt       0.00000000       0.00000000       0.00000000       0.00000000       0.00000000       0.67886364
Pt       0.00000000       0.00000000       3.97373737       0.00000000       0.00000000      -0.67886364
2
Properties=species:S:1:pos:R:3:forces:R:3 energy=-1.4496624220593322 pbc="F F F"
Pt       0.00000000       0.00000000       0.00000000       0.00000000       0.00000000       0.61626589
Pt       0.00000000       0.00000000       4.03333333       0.00000000       0.00000000      -0.61626589
2
Properties=species:S:1:pos:R:3:forces:R:3 energy=-1.4146122493238815 pbc="F F F"
Pt       0.00000000       0.00000000       0.00000000       0.00000000       0.00000000       0.56116939
Pt       0.00000000       0.00000000       4.09292929       0.00000000       0.00000000      -0.56116939
2
Properties=species:S:1:pos:R:3:forces:R:3 energy=-1.382643375581604 pbc="F F F"
Pt       0.00000000       0.00000000       0.00000000       0.00000000       0.00000000       0.51270235
Pt       0.00000000       0.00000000       4.15252525       0.00000000       0.00000000      -0.51270235
2
Properties=species:S:1:pos:R:3:forces:R:3 energy=-1.3533875341872788 pbc="F F F"
Pt       0.00000000       0.00000000       0.00000000       0.00000000       0.00000000       0.47002456
Pt       0.00000000       0.00000000       4.21212121       0.00000000       0.00000000      -0.47002456
2
Properties=species:S:1:pos:R:3:forces:R:3 energy=-1.3265206949816084 pbc="F F F"
Pt       0.00000000       0.00000000       0.00000000       0.00000000       0.00000000       0.43239304
Pt       0.00000000       0.00000000       4.27171717       0.00000000       0.00000000      -0.43239304
2
Properties=species:S:1:pos:R:3:forces:R:3 energy=-1.3017617086395241 pbc="F F F"
Pt       0.00000000       0.00000000       0.00000000       0.00000000       0.00000000       0.39920303
Pt       0.00000000       0.00000000       4.33131313       0.00000000       0.00000000      -0.39920303
2
Properties=species:S:1:pos:R:3:forces:R:3 energy=-1.2788606134883918 pbc="F F F"
Pt       0.00000000       0.00000000       0.00000000       0.00000000       0.00000000       0.36996472
Pt       0.00000000       0.00000000       4.39090909       0.00000000       0.00000000      -0.36996472
2
Properties=species:S:1:pos:R:3:forces:R:3 energy=-1.257593954667497 pbc="F F F"
Pt       0.00000000       0.00000000       0.00000000       0.00000000       0.00000000       0.34427941
Pt       0.00000000       0.00000000       4.45050505       0.00000000       0.00000000      -0.34427941
2
Properties=species:S:1:pos:R:3:forces:R:3 energy=-1.2377614340126089 pbc="F F F"
Pt       0.00000000       0.00000000       0.00000000       0.00000000       0.00000000       0.32180151
Pt       0.00000000       0.00000000       4.51010101       0.00000000       0.00000000      -0.32180151
2
Properties=species:S:1:pos:R:3:forces:R:3 energy=-1.2191806779344876 pbc="F F F"
Pt       0.00000000       0.00000000       0.00000000       0.00000000       0.00000000       0.30219173
Pt       0.00000000       0.00000000       4.56969697       0.00000000       0.00000000      -0.30219173
2
Properties=species:S:1:pos:R:3:forces:R:3 energy=-1.2016923380757565 pbc="F F F"
Pt       0.00000000       0.00000000       0.00000000       0.00000000       0.00000000       0.28509790
Pt       0.00000000       0.00000000       4.62929293       0.00000000       0.00000000      -0.28509790
2
Properties=species:S:1:pos:R:3:forces:R:3 energy=-1.1851580350746302 pbc="F F F"
Pt       0.00000000       0.00000000       0.00000000       0.00000000       0.00000000       0.27010375
Pt       0.00000000       0.00000000       4.68888889       0.00000000       0.00000000      -0.27010375
2
Properties=species:S:1:pos:R:3:forces:R:3 energy=-1.1694659503141447 pbc="F F F"
Pt       0.00000000       0.00000000       0.00000000       0.00000000       0.00000000       0.25672075
Pt       0.00000000       0.00000000       4.74848485       0.00000000       0.00000000      -0.25672075
2
Properties=species:S:1:pos:R:3:forces:R:3 energy=-1.1545378343436226 pbc="F F F"
Pt       0.00000000       0.00000000       0.00000000       0.00000000       0.00000000       0.24440296
Pt       0.00000000       0.00000000       4.80808081       0.00000000       0.00000000      -0.24440296
2
Properties=species:S:1:pos:R:3:forces:R:3 energy=-1.1403246642431368 pbc="F F F"
Pt       0.00000000       0.00000000       0.00000000       0.00000000       0.00000000       0.23261559
Pt       0.00000000       0.00000000       4.86767677       0.00000000       0.00000000      -0.23261559
2
Properties=species:S:1:pos:R:3:forces:R:3 energy=-1.126808918519437 pbc="F F F"
Pt       0.00000000       0.00000000       0.00000000       0.00000000       0.00000000       0.22096202
Pt       0.00000000       0.00000000       4.92727273       0.00000000       0.00000000      -0.22096202
2
Properties=species:S:1:pos:R:3:forces:R:3 energy=-1.1139874188878096 pbc="F F F"
Pt       0.00000000       0.00000000       0.00000000       0.00000000       0.00000000       0.20932478
Pt       0.00000000       0.00000000       4.98686869       0.00000000       0.00000000      -0.20932478
2
Properties=species:S:1:pos:R:3:forces:R:3 energy=-1.1018546520589183 pbc="F F F"
Pt       0.00000000       0.00000000       0.00000000       0.00000000       0.00000000       0.19798827
Pt       0.00000000       0.00000000       5.04646465       0.00000000       0.00000000      -0.19798827
2
Properties=species:S:1:pos:R:3:forces:R:3 energy=-1.0903706660099597 pbc="F F F"
Pt       0.00000000       0.00000000       0.00000000       0.00000000       0.00000000       0.18762483
Pt       0.00000000       0.00000000       5.10606061       0.00000000       0.00000000      -0.18762483
2
Properties=species:S:1:pos:R:3:forces:R:3 energy=-1.0794544655404477 pbc="F F F"
Pt       0.00000000       0.00000000       0.00000000       0.00000000       0.00000000       0.17899178
Pt       0.00000000       0.00000000       5.16565657       0.00000000       0.00000000      -0.17899178
2
Properties=species:S:1:pos:R:3:forces:R:3 energy=-1.0689993997740312 pbc="F F F"
Pt       0.00000000       0.00000000       0.00000000       0.00000000       0.00000000       0.17209066
Pt       0.00000000       0.00000000       5.22525253       0.00000000       0.00000000      -0.17209066
2
Properties=species:S:1:pos:R:3:forces:R:3 energy=-1.0589477840059318 pbc="F F F"
Pt       0.00000000       0.00000000       0.00000000       0.00000000       0.00000000       0.16488728
Pt       0.00000000       0.00000000       5.28484848       0.00000000       0.00000000      -0.16488728
2
Properties=species:S:1:pos:R:3:forces:R:3 energy=-1.0494349932237397 pbc="F F F"
Pt       0.00000000       0.00000000       0.00000000       0.00000000       0.00000000       0.15323736
Pt       0.00000000       0.00000000       5.34444444       0.00000000       0.00000000      -0.15323736
2
Properties=species:S:1:pos:R:3:forces:R:3 energy=-1.0408367810677668 pbc="F F F"
Pt       0.00000000       0.00000000       0.00000000       0.00000000       0.00000000       0.13399826
Pt       0.00000000       0.00000000       5.40404040       0.00000000       0.00000000      -0.13399826
2
Properties=species:S:1:pos:R:3:forces:R:3 energy=-1.0335875513967907 pbc="F F F"
Pt       0.00000000       0.00000000       0.00000000       0.00000000       0.00000000       0.10859101
Pt       0.00000000       0.00000000       5.46363636       0.00000000       0.00000000      -0.10859101
2
Properties=species:S:1:pos:R:3:forces:R:3 energy=-1.027909059327837 pbc="F F F"
Pt       0.00000000       0.00000000       0.00000000       0.00000000       0.00000000       0.08249009
Pt       0.00000000       0.00000000       5.52323232       0.00000000       0.00000000      -0.08249009
2
Properties=species:S:1:pos:R:3:forces:R:3 energy=-1.023655252218294 pbc="F F F"
Pt       0.00000000       0.00000000       0.00000000       0.00000000       0.00000000       0.06141552
Pt       0.00000000       0.00000000       5.58282828       0.00000000       0.00000000      -0.06141552
2
Properties=species:S:1:pos:R:3:forces:R:3 energy=-1.0204435214695746 pbc="F F F"
Pt       0.00000000       0.00000000       0.00000000       0.00000000       0.00000000       0.04746178
Pt       0.00000000       0.00000000       5.64242424       0.00000000       0.00000000      -0.04746178
2
Properties=species:S:1:pos:R:3:forces:R:3 energy=-1.0179078479972312 pbc="F F F"
Pt       0.00000000       0.00000000       0.00000000       0.00000000       0.00000000       0.03796693
Pt       0.00000000       0.00000000       5.70202020       0.00000000       0.00000000      -0.03796693
2
Properties=species:S:1:pos:R:3:forces:R:3 energy=-1.0159046933050755 pbc="F F F"
Pt       0.00000000       0.00000000       0.00000000       0.00000000       0.00000000       0.02930063
Pt       0.00000000       0.00000000       5.76161616       0.00000000       0.00000000      -0.02930063
2
Properties=species:S:1:pos:R:3:forces:R:3 energy=-1.014415847873974 pbc="F F F"
Pt       0.00000000       0.00000000       0.00000000       0.00000000       0.00000000       0.02073418
Pt       0.00000000       0.00000000       5.82121212       0.00000000       0.00000000      -0.02073418
2
Properties=species:S:1:pos:R:3:forces:R:3 energy=-1.0134073427999055 pbc="F F F"
Pt       0.00000000       0.00000000       0.00000000       0.00000000       0.00000000       0.01350502
Pt       0.00000000       0.00000000       5.88080808       0.00000000       0.00000000      -0.01350502
2
Properties=species:S:1:pos:R:3:forces:R:3 energy=-1.0127580323421441 pbc="F F F"
Pt       0.00000000       0.00000000       0.00000000       0.00000000       0.00000000       0.00864430
Pt       0.00000000       0.00000000       5.94040404       0.00000000       0.00000000      -0.00864430
2
Properties=species:S:1:pos:R:3:forces:R:3 energy=-1.012317802110647 pbc="F F F"
Pt       0.00000000       0.00000000       0.00000000       0.00000000       0.00000000       0.00667370
Pt       0.00000000       0.00000000       6.00000000       0.00000000       0.00000000      -0.00667370
