2
Properties=species:S:1:pos:R:3:forces:R:3 energy=15895.357334536711 pbc="F F F"
Pt       0.00000000       0.00000000       0.00000000       0.00000000       0.00000000 -280468.00000000
Pt       0.00000000       0.00000000       0.18000000       0.00000000       0.00000000  280468.00000000
2
Properties=species:S:1:pos:R:3:forces:R:3 energy=6121.753330630461 pbc="F F F"
Pt       0.00000000       0.00000000       0.00000000       0.00000000       0.00000000  -92097.35156250
Pt       0.00000000       0.00000000       0.23878788       0.00000000       0.00000000   92097.35156250
2
Properties=species:S:1:pos:R:3:forces:R:3 energy=2664.2652935242545 pbc="F F F"
Pt       0.00000000       0.00000000       0.00000000       0.00000000       0.00000000  -35562.84765625
Pt       0.00000000       0.00000000       0.29757576       0.00000000       0.00000000   35562.84765625
2
Properties=species:S:1:pos:R:3:forces:R:3 energy=1265.9802593477348 pbc="F F F"
Pt       0.00000000       0.00000000       0.00000000       0.00000000       0.00000000  -15188.89746094
Pt       0.00000000       0.00000000       0.35636364       0.00000000       0.00000000   15188.89746094
2
Properties=species:S:1:pos:R:3:forces:R:3 energy=648.8104595493829 pbc="F F F"
Pt       0.00000000       0.00000000       0.00000000       0.00000000       0.00000000   -6973.18017578
Pt       0.00000000       0.00000000       0.41515152       0.00000000       0.00000000    6973.18017578
2
Properties=species:S:1:pos:R:3:forces:R:3 energy=358.02814144681986 pbc="F F F"
Pt       0.00000000       0.00000000       0.00000000       0.00000000       0.00000000   -3388.41748047
Pt       0.00000000       0.00000000       0.47393939       0.00000000       0.00000000    3388.41748047
2
Properties=species:S:1:pos:R:3:forces:R:3 energy=213.79105040770932 pbc="F F F"
Pt       0.00000000       0.00000000       0.00000000       0.00000000       0.00000000   -1720.75402832
Pt       0.00000000       0.00000000       0.53272727       0.00000000       0.00000000    1720.75402832
2
Properties=species:S:1:pos:R:3:forces:R:3 energy=139.47902347135195 pbc="F F F"
Pt       0.00000000       0.00000000       0.00000000       0.00000000       0.00000000    -899.87585449
Pt       0.00000000       0.00000000       0.59151515       0.00000000       0.00000000     899.87585449
2
Properties=species:S:1:pos:R:3:forces:R:3 energy=100.37186869168481 pbc="F F F"
Pt       0.00000000       0.00000000       0.00000000       0.00000000       0.00000000    -475.05371094
Pt       0.00000000       0.00000000       0.65030303       0.00000000       0.00000000     475.05371094
2
Properties=species:S:1:pos:R:3:forces:R:3 energy=79.9152037634961 pbc="F F F"
Pt       0.00000000       0.00000000       0.00000000       0.00000000       0.00000000    -242.85551453
Pt       0.00000000       0.00000000       0.70909091       0.00000000       0.00000000     242.85551453
2
Properties=species:S:1:pos:R:3:forces:R:3 energy=69.93247687427377 pbc="F F F"
Pt       0.00000000       0.00000000       0.00000000       0.00000000       0.00000000    -108.57627106
Pt       0.00000000       0.00000000       0.76787879       0.00000000       0.00000000     108.57627106
2
Properties=species:S:1:pos:R:3:forces:R:3 energy=66.05108368874671 pbc="F F F"
Pt       0.00000000       0.00000000       0.00000000       0.00000000       0.00000000     -31.11120796
Pt       0.00000000       0.00000000       0.82666667       0.00000000       0.00000000      31.11120796
2
Properties=species:S:1:pos:R:3:forces:R:3 energy=65.49232243419182 pbc="F F F"
Pt       0.00000000       0.00000000       0.00000000       0.00000000       0.00000000       6.21923923
Pt       0.00000000       0.00000000       0.88545455       0.00000000       0.00000000      -6.21923923
2
Properties=species:S:1:pos:R:3:forces:R:3 energy=66.17397117643095 pbc="F F F"
Pt       0.00000000       0.00000000       0.00000000       0.00000000       0.00000000      12.52366352
Pt       0.00000000       0.00000000       0.94424242       0.00000000       0.00000000     -12.52366352
2
Properties=species:S:1:pos:R:3:forces:R:3 energy=66.52126951329846 pbc="F F F"
Pt       0.00000000       0.00000000       0.00000000       0.00000000       0.00000000      -3.87576318
Pt       0.00000000       0.00000000       1.00303030       0.00000000       0.00000000       3.87576318
2
Properties=species:S:1:pos:R:3:forces:R:3 energy=65.40982785020981 pbc="F F F"
Pt       0.00000000       0.00000000       0.00000000       0.00000000       0.00000000     -36.03767014
Pt       0.00000000       0.00000000       1.06181818       0.00000000       0.00000000      36.03767014
2
Properties=species:S:1:pos:R:3:forces:R:3 energy=62.10534754129892 pbc="F F F"
Pt       0.00000000       0.00000000       0.00000000       0.00000000       0.00000000     -77.20005798
Pt       0.00000000       0.00000000       1.12060606       0.00000000       0.00000000      77.20005798
2
Properties=species:S:1:pos:R:3:forces:R:3 energy=56.34984068968714 pbc="F F F"
Pt       0.00000000       0.00000000       0.00000000       0.00000000       0.00000000    -117.30830383
Pt       0.00000000       0.00000000       1.17939394       0.00000000       0.00000000     117.30830383
2
Properties=species:S:1:pos:R:3:forces:R:3 energy=48.62330692630982 pbc="F F F"
Pt       0.00000000       0.00000000       0.00000000       0.00000000       0.00000000    -141.65412903
Pt       0.00000000       0.00000000       1.23818182       0.00000000       0.00000000     141.65412903
2
Properties=species:S:1:pos:R:3:forces:R:3 energy=40.19596805957452 pbc="F F F"
Pt       0.00000000       0.00000000       0.00000000       0.00000000       0.00000000    -141.42164612
Pt       0.00000000       0.00000000       1.29696970       0.00000000       0.00000000     141.42164612
2
Properties=species:S:1:pos:R:3:forces:R:3 energy=32.25453457702796 pbc="F F F"
Pt       0.00000000       0.00000000       0.00000000       0.00000000       0.00000000    -127.67163849
Pt       0.00000000       0.00000000       1.35575758       0.00000000       0.00000000     127.67163849
2
Properties=species:S:1:pos:R:3:forces:R:3 energy=25.275408903936988 pbc="F F F"
Pt       0.00000000       0.00000000       0.00000000       0.00000000       0.00000000    -109.02820587
Pt       0.00000000       0.00000000       1.41454545       0.00000000       0.00000000     109.02820587
2
Properties=species:S:1:pos:R:3:forces:R:3 energy=19.50338414326077 pbc="F F F"
Pt       0.00000000       0.00000000       0.00000000       0.00000000       0.00000000     -87.14080048
Pt       0.00000000       0.00000000       1.47333333       0.00000000       0.00000000      87.14080048
2
Properties=species:S:1:pos:R:3:forces:R:3 energy=14.986013528500676 pbc="F F F"
Pt       0.00000000       0.00000000       0.00000000       0.00000000       0.00000000     -67.41742706
Pt       0.00000000       0.00000000       1.53212121       0.00000000       0.00000000      67.41742706
2
Properties=species:S:1:pos:R:3:forces:R:3 energy=11.444384762496338 pbc="F F F"
Pt       0.00000000       0.00000000       0.00000000       0.00000000       0.00000000     -54.33970642
Pt       0.00000000       0.00000000       1.59090909       0.00000000       0.00000000      54.33970642
2
Properties=species:S:1:pos:R:3:forces:R:3 energy=8.460109693960444 pbc="F F F"
Pt       0.00000000       0.00000000       0.00000000       0.00000000       0.00000000     -48.00191879
Pt       0.00000000       0.00000000       1.64969697       0.00000000       0.00000000      48.00191879
2
Properties=species:S:1:pos:R:3:forces:R:3 energy=5.760966543738493 pbc="F F F"
Pt       0.00000000       0.00000000       0.00000000       0.00000000       0.00000000     -43.78868484
Pt       0.00000000       0.00000000       1.70848485       0.00000000       0.00000000      43.78868484
2
Properties=species:S:1:pos:R:3:forces:R:3 energy=3.333980355680037 pbc="F F F"
Pt       0.00000000       0.00000000       0.00000000       0.00000000       0.00000000     -38.54481506
Pt       0.00000000       0.00000000       1.76727273       0.00000000       0.00000000      38.54481506
2
Properties=species:S:1:pos:R:3:forces:R:3 energy=1.2505968229561606 pbc="F F F"
Pt       0.00000000       0.00000000       0.00000000       0.00000000       0.00000000     -32.22705841
Pt       0.00000000       0.00000000       1.82606061       0.00000000       0.00000000      32.22705841
2
Properties=species:S:1:pos:R:3:forces:R:3 energy=-0.45254073590217364 pbc="F F F"
Pt       0.00000000       0.00000000       0.00000000       0.00000000       0.00000000     -25.76666451
Pt       0.00000000       0.00000000       1.88484848       0.00000000       0.00000000      25.76666451
2
Properties=species:S:1:pos:R:3:forces:R:3 energy=-1.7908281131093808 pbc="F F F"
Pt       0.00000000       0.00000000       0.00000000       0.00000000       0.00000000     -19.89505959
Pt       0.00000000       0.00000000       1.94363636       0.00000000       0.00000000      19.89505959
2
Properties=species:S:1:pos:R:3:forces:R:3 energy=-2.8084468467960524 pbc="F F F"
Pt       0.00000000       0.00000000       0.00000000       0.00000000       0.00000000     -14.86743069
Pt       0.00000000       0.00000000       2.00242424       0.00000000       0.00000000      14.86743069
2
Properties=species:S:1:pos:R:3:forces:R:3 energy=-3.554792083371933 pbc="F F F"
Pt       0.00000000       0.00000000       0.00000000       0.00000000       0.00000000     -10.65082645
Pt       0.00000000       0.00000000       2.06121212       0.00000000       0.00000000      10.65082645
2
Properties=species:S:1:pos:R:3:forces:R:3 energy=-4.074810388511419 pbc="F F F"
Pt       0.00000000       0.00000000       0.00000000       0.00000000       0.00000000      -7.15432739
Pt       0.00000000       0.00000000       2.12000000       0.00000000       0.00000000       7.15432739
2
Properties=species:S:1:pos:R:3:forces:R:3 energy=-4.40883135344874 pbc="F F F"
Pt       0.00000000       0.00000000       0.00000000       0.00000000       0.00000000      -4.31456184
Pt       0.00000000       0.00000000       2.17878788       0.00000000       0.00000000       4.31456184
2
Properties=species:S:1:pos:R:3:forces:R:3 energy=-4.5939423773657495 pbc="F F F"
Pt       0.00000000       0.00000000       0.00000000       0.00000000       0.00000000      -2.07839179
Pt       0.00000000       0.00000000       2.23757576       0.00000000       0.00000000       2.07839179
2
Properties=species:S:1:pos:R:3:forces:R:3 energy=-4.663650004311879 pbc="F F F"
Pt       0.00000000       0.00000000       0.00000000       0.00000000       0.00000000      -0.37498742
Pt       0.00000000       0.00000000       2.29636364       0.00000000       0.00000000       0.37498742
2
Properties=species:S:1:pos:R:3:forces:R:3 energy=-4.646767253550007 pbc="F F F"
Pt       0.00000000       0.00000000       0.00000000       0.00000000       0.00000000       0.88252366
Pt       0.00000000       0.00000000       2.35515152       0.00000000       0.00000000      -0.88252366
2
Properties=species:S:1:pos:R:3:forces:R:3 energy=-4.566983865412154 pbc="F F F"
Pt       0.00000000       0.00000000       0.00000000       0.00000000       0.00000000       1.77728820
Pt       0.00000000       0.00000000       2.41393939       0.00000000       0.00000000      -1.77728820
2
Properties=species:S:1:pos:R:3:forces:R:3 energy=-4.4436191604881685 pbc="F F F"
Pt       0.00000000       0.00000000       0.00000000       0.00000000       0.00000000       2.37450910
Pt       0.00000000       0.00000000       2.47272727       0.00000000       0.00000000      -2.37450910
2
Properties=species:S:1:pos:R:3:forces:R:3 energy=-4.292642596992585 pbc="F F F"
Pt       0.00000000       0.00000000       0.00000000       0.00000000       0.00000000       2.72445917
Pt       0.00000000       0.00000000       2.53151515       0.00000000       0.00000000      -2.72445917
2
Properties=species:S:1:pos:R:3:forces:R:3 energy=-4.127166093320269 pbc="F F F"
Pt       0.00000000       0.00000000       0.00000000       0.00000000       0.00000000       2.87695003
Pt       0.00000000       0.00000000       2.59030303       0.00000000       0.00000000      -2.87695003
2
Properties=species:S:1:pos:R:3:forces:R:3 energy=-3.957084577554098 pbc="F F F"
Pt       0.00000000       0.00000000       0.00000000       0.00000000       0.00000000       2.89184499
Pt       0.00000000       0.00000000       2.64909091       0.00000000       0.00000000      -2.89184499
2
Properties=species:S:1:pos:R:3:forces:R:3 energy=-3.7885760948644935 pbc="F F F"
Pt       0.00000000       0.00000000       0.00000000       0.00000000       0.00000000       2.83374071
Pt       0.00000000       0.00000000       2.70787879       0.00000000       0.00000000      -2.83374071
2
Properties=species:S:1:pos:R:3:forces:R:3 energy=-3.624291640930677 pbc="F F F"
Pt       0.00000000       0.00000000       0.00000000       0.00000000       0.00000000       2.75510240
Pt       0.00000000       0.00000000       2.76666667       0.00000000       0.00000000      -2.75510240
2
Properties=species:S:1:pos:R:3:forces:R:3 energy=-3.4644623486896853 pbc="F F F"
Pt       0.00000000       0.00000000       0.00000000       0.00000000       0.00000000       2.68493342
Pt       0.00000000       0.00000000       2.82545455       0.00000000       0.00000000      -2.68493342
2
Properties=species:S:1:pos:R:3:forces:R:3 energy=-3.3082974697358654 pbc="F F F"
Pt       0.00000000       0.00000000       0.00000000       0.00000000       0.00000000       2.63005543
Pt       0.00000000       0.00000000       2.88424242       0.00000000       0.00000000      -2.63005543
2
Properties=species:S:1:pos:R:3:forces:R:3 energy=-3.1550813200143346 pbc="F F F"
Pt       0.00000000       0.00000000       0.00000000       0.00000000       0.00000000       2.58266544
Pt       0.00000000       0.00000000       2.94303030       0.00000000       0.00000000      -2.58266544
2
Properties=species:S:1:pos:R:3:forces:R:3 energy=-3.004756399887041 pbc="F F F"
Pt       0.00000000       0.00000000       0.00000000       0.00000000       0.00000000       2.52942300
Pt       0.00000000       0.00000000       3.00181818       0.00000000       0.00000000      -2.52942300
2
Properties=species:S:1:pos:R:3:forces:R:3 energy=-2.85802428928687 pbc="F F F"
Pt       0.00000000       0.00000000       0.00000000       0.00000000       0.00000000       2.45894647
Pt       0.00000000       0.00000000       3.06060606       0.00000000       0.00000000      -2.45894647
2
Properties=species:S:1:pos:R:3:forces:R:3 energy=-2.7160949256731826 pbc="F F F"
Pt       0.00000000       0.00000000       0.00000000       0.00000000       0.00000000       2.36568904
Pt       0.00000000       0.00000000       3.11939394       0.00000000       0.00000000      -2.36568904
2
Properties=species:S:1:pos:R:3:forces:R:3 energy=-2.5803118160740803 pbc="F F F"
Pt       0.00000000       0.00000000       0.00000000       0.00000000       0.00000000       2.25032806
Pt       0.00000000       0.00000000       3.17818182       0.00000000       0.00000000      -2.25032806
2
Properties=species:S:1:pos:R:3:forces:R:3 energy=-2.451845543683662 pbc="F F F"
Pt       0.00000000       0.00000000       0.00000000       0.00000000       0.00000000       2.11793160
Pt       0.00000000       0.00000000       3.23696970       0.00000000       0.00000000      -2.11793160
2
Properties=species:S:1:pos:R:3:forces:R:3 energy=-2.3314926106095113 pbc="F F F"
Pt       0.00000000       0.00000000       0.00000000       0.00000000       0.00000000       1.97549129
Pt       0.00000000       0.00000000       3.29575758       0.00000000       0.00000000      -1.97549129
2
Properties=species:S:1:pos:R:3:forces:R:3 energy=-2.219639088878884 pbc="F F F"
Pt       0.00000000       0.00000000       0.00000000       0.00000000       0.00000000       1.82975101
Pt       0.00000000       0.00000000       3.35454545       0.00000000       0.00000000      -1.82975101
2
Properties=species:S:1:pos:R:3:forces:R:3 energy=-2.1163198789589535 pbc="F F F"
Pt       0.00000000       0.00000000       0.00000000       0.00000000       0.00000000       1.68589854
Pt       0.00000000       0.00000000       3.41333333       0.00000000       0.00000000      -1.68589854
2
Properties=species:S:1:pos:R:3:forces:R:3 energy=-2.021316554409035 pbc="F F F"
Pt       0.00000000       0.00000000       0.00000000       0.00000000       0.00000000       1.54718411
Pt       0.00000000       0.00000000       3.47212121       0.00000000       0.00000000      -1.54718411
2
Properties=species:S:1:pos:R:3:forces:R:3 energy=-1.9342752250219073 pbc="F F F"
Pt       0.00000000       0.00000000       0.00000000       0.00000000       0.00000000       1.41524386
Pt       0.00000000       0.00000000       3.53090909       0.00000000       0.00000000      -1.41524386
2
Properties=species:S:1:pos:R:3:forces:R:3 energy=-1.8547724037080902 pbc="F F F"
Pt       0.00000000       0.00000000       0.00000000       0.00000000       0.00000000       1.29072952
Pt       0.00000000       0.00000000       3.58969697       0.00000000       0.00000000      -1.29072952
2
Properties=species:S:1:pos:R:3:forces:R:3 energy=-1.7823646577489154 pbc="F F F"
Pt       0.00000000       0.00000000       0.00000000       0.00000000       0.00000000       1.17392468
Pt       0.00000000       0.00000000       3.64848485       0.00000000       0.00000000      -1.17392468
2
Properties=species:S:1:pos:R:3:forces:R:3 energy=-1.7165918274473466 pbc="F F F"
Pt       0.00000000       0.00000000       0.00000000       0.00000000       0.00000000       1.06507158
Pt       0.00000000       0.00000000       3.70727273       0.00000000       0.00000000      -1.06507158
2
Properties=species:S:1:pos:R:3:forces:R:3 energy=-1.6569755936166335 pbc="F F F"
Pt       0.00000000       0.00000000       0.00000000       0.00000000       0.00000000       0.96450090
Pt       0.00000000       0.00000000       3.76606061       0.00000000       0.00000000      -0.96450090
2
Properties=species:S:1:pos:R:3:forces:R:3 energy=-1.6030206538340972 pbc="F F F"
Pt       0.00000000       0.00000000       0.00000000       0.00000000       0.00000000       0.87255037
Pt       0.00000000       0.00000000       3.82484848       0.00000000       0.00000000      -0.87255037
2
Properties=species:S:1:pos:R:3:forces:R:3 energy=-1.5542118582503588 pbc="F F F"
Pt       0.00000000       0.00000000       0.00000000       0.00000000       0.00000000       0.78941506
Pt       0.00000000       0.00000000       3.88363636       0.00000000       0.00000000      -0.78941506
2
Properties=species:S:1:pos:R:3:forces:R:3 energy=-1.5100328042386393 pbc="F F F"
Pt       0.00000000       0.00000000       0.00000000       0.00000000       0.00000000       0.71503186
Pt       0.00000000       0.00000000       3.94242424       0.00000000       0.00000000      -0.71503186
2
Properties=species:S:1:pos:R:3:forces:R:3 energy=-1.4699780230847403 pbc="F F F"
Pt       0.00000000       0.00000000       0.00000000       0.00000000       0.00000000       0.64902151
Pt       0.00000000       0.00000000       4.00121212       0.00000000       0.00000000      -0.64902151
2
Properties=species:S:1:pos:R:3:forces:R:3 energy=-1.433572725547553 pbc="F F F"
Pt       0.00000000       0.00000000       0.00000000       0.00000000       0.00000000       0.59073740
Pt       0.00000000       0.00000000       4.06000000       0.00000000       0.00000000      -0.59073740
2
Properties=species:S:1:pos:R:3:forces:R:3 energy=-1.400385710140419 pbc="F F F"
Pt       0.00000000       0.00000000       0.00000000       0.00000000       0.00000000       0.53937739
Pt       0.00000000       0.00000000       4.11878788       0.00000000       0.00000000      -0.53937739
2
Properties=species:S:1:pos:R:3:forces:R:3 energy=-1.3700352328967198 pbc="F F F"
Pt       0.00000000       0.00000000       0.00000000       0.00000000       0.00000000       0.49410385
Pt       0.00000000       0.00000000       4.17757576       0.00000000       0.00000000      -0.49410385
2
Properties=species:S:1:pos:R:3:forces:R:3 energy=-1.3421865218137758 pbc="F F F"
Pt       0.00000000       0.00000000       0.00000000       0.00000000       0.00000000       0.45414439
Pt       0.00000000       0.00000000       4.23636364       0.00000000       0.00000000      -0.45414439
2
Properties=species:S:1:pos:R:3:forces:R:3 energy=-1.3165473249274453 pbc="F F F"
Pt       0.00000000       0.00000000       0.00000000       0.00000000       0.00000000       0.41884023
Pt       0.00000000       0.00000000       4.29515152       0.00000000       0.00000000      -0.41884023
2
Properties=species:S:1:pos:R:3:forces:R:3 energy=-1.2928607672582182 pbc="F F F"
Pt       0.00000000       0.00000000       0.00000000       0.00000000       0.00000000       0.38765982
Pt       0.00000000       0.00000000       4.35393939       0.00000000       0.00000000      -0.38765982
2
Properties=species:S:1:pos:R:3:forces:R:3 energy=-1.2708962949049496 pbc="F F F"
Pt       0.00000000       0.00000000       0.00000000       0.00000000       0.00000000       0.36016834
Pt       0.00000000       0.00000000       4.41272727       0.00000000       0.00000000      -0.36016834
2
Properties=species:S:1:pos:R:3:forces:R:3 energy=-1.2504482635403187 pbc="F F F"
Pt       0.00000000       0.00000000       0.00000000       0.00000000       0.00000000       0.33600497
Pt       0.00000000       0.00000000       4.47151515       0.00000000       0.00000000      -0.33600497
2
Properties=species:S:1:pos:R:3:forces:R:3 energy=-1.231330968466581 pbc="F F F"
Pt       0.00000000       0.00000000       0.00000000       0.00000000       0.00000000       0.31484848
Pt       0.00000000       0.00000000       4.53030303       0.00000000       0.00000000      -0.31484848
2
Properties=species:S:1:pos:R:3:forces:R:3 energy=-1.2133772002648535 pbc="F F F"
Pt       0.00000000       0.00000000       0.00000000       0.00000000       0.00000000       0.29637140
Pt       0.00000000       0.00000000       4.58909091       0.00000000       0.00000000      -0.29637140
2
Properties=species:S:1:pos:R:3:forces:R:3 energy=-1.1964396087823237 pbc="F F F"
Pt       0.00000000       0.00000000       0.00000000       0.00000000       0.00000000       0.28021806
Pt       0.00000000       0.00000000       4.64787879       0.00000000       0.00000000      -0.28021806
2
Properties=species:S:1:pos:R:3:forces:R:3 energy=-1.1803926916763063 pbc="F F F"
Pt       0.00000000       0.00000000       0.00000000       0.00000000       0.00000000       0.26596671
Pt       0.00000000       0.00000000       4.70666667       0.00000000       0.00000000      -0.26596671
2
Properties=species:S:1:pos:R:3:forces:R:3 energy=-1.1651404289764669 pbc="F F F"
Pt       0.00000000       0.00000000       0.00000000       0.00000000       0.00000000       0.25312924
Pt       0.00000000       0.00000000       4.76545455       0.00000000       0.00000000      -0.25312924
2
Properties=species:S:1:pos:R:3:forces:R:3 energy=-1.150613409390584 pbc="F F F"
Pt       0.00000000       0.00000000       0.00000000       0.00000000       0.00000000       0.24117503
Pt       0.00000000       0.00000000       4.82424242       0.00000000       0.00000000      -0.24117503
2
Properties=species:S:1:pos:R:3:forces:R:3 energy=-1.1367771401087736 pbc="F F F"
Pt       0.00000000       0.00000000       0.00000000       0.00000000       0.00000000       0.22961199
Pt       0.00000000       0.00000000       4.88303030       0.00000000       0.00000000      -0.22961199
2
Properties=species:S:1:pos:R:3:forces:R:3 energy=-1.123615882273403 pbc="F F F"
Pt       0.00000000       0.00000000       0.00000000       0.00000000       0.00000000       0.21811672
Pt       0.00000000       0.00000000       4.94181818       0.00000000       0.00000000      -0.21811672
2
Properties=species:S:1:pos:R:3:forces:R:3 energy=-1.1111300584690285 pbc="F F F"
Pt       0.00000000       0.00000000       0.00000000       0.00000000       0.00000000       0.20666632
Pt       0.00000000       0.00000000       5.00060606       0.00000000       0.00000000      -0.20666632
2
Properties=species:S:1:pos:R:3:forces:R:3 energy=-1.0993083767555758 pbc="F F F"
Pt       0.00000000       0.00000000       0.00000000       0.00000000       0.00000000       0.19562978
Pt       0.00000000       0.00000000       5.05939394       0.00000000       0.00000000      -0.19562978
2
Properties=species:S:1:pos:R:3:forces:R:3 energy=-1.0881066799389343 pbc="F F F"
Pt       0.00000000       0.00000000       0.00000000       0.00000000       0.00000000       0.18570815
Pt       0.00000000       0.00000000       5.11818182       0.00000000       0.00000000      -0.18570815
2
Properties=species:S:1:pos:R:3:forces:R:3 energy=-1.0774387121867253 pbc="F F F"
Pt       0.00000000       0.00000000       0.00000000       0.00000000       0.00000000       0.17757207
Pt       0.00000000       0.00000000       5.17696970       0.00000000       0.00000000      -0.17757207
2
Properties=species:S:1:pos:R:3:forces:R:3 energy=-1.0671986543357619 pbc="F F F"
Pt       0.00000000       0.00000000       0.00000000       0.00000000       0.00000000       0.17094237
Pt       0.00000000       0.00000000       5.23575758       0.00000000       0.00000000      -0.17094237
2
Properties=species:S:1:pos:R:3:forces:R:3 energy=-1.0573570109264456 pbc="F F F"
Pt       0.00000000       0.00000000       0.00000000       0.00000000       0.00000000       0.16341352
Pt       0.00000000       0.00000000       5.29454545       0.00000000       0.00000000      -0.16341352
2
Properties=species:S:1:pos:R:3:forces:R:3 energy=-1.048084029831318 pbc="F F F"
Pt       0.00000000       0.00000000       0.00000000       0.00000000       0.00000000       0.15087433
Pt       0.00000000       0.00000000       5.35333333       0.00000000       0.00000000      -0.15087433
2
Properties=species:S:1:pos:R:3:forces:R:3 energy=-1.0397673452299134 pbc="F F F"
Pt       0.00000000       0.00000000       0.00000000       0.00000000       0.00000000       0.13081798
Pt       0.00000000       0.00000000       5.41212121       0.00000000       0.00000000      -0.13081798
2
Properties=species:S:1:pos:R:3:forces:R:3 energy=-1.0328119012393355 pbc="F F F"
Pt       0.00000000       0.00000000       0.00000000       0.00000000       0.00000000       0.10531662
Pt       0.00000000       0.00000000       5.47090909       0.00000000       0.00000000      -0.10531662
2
Properties=species:S:1:pos:R:3:forces:R:3 energy=-1.0273833085690534 pbc="F F F"
Pt       0.00000000       0.00000000       0.00000000       0.00000000       0.00000000       0.07987888
Pt       0.00000000       0.00000000       5.52969697       0.00000000       0.00000000      -0.07987888
2
Properties=species:S:1:pos:R:3:forces:R:3 energy=-1.0233122624293485 pbc="F F F"
Pt       0.00000000       0.00000000       0.00000000       0.00000000       0.00000000       0.05979731
Pt       0.00000000       0.00000000       5.58848485       0.00000000       0.00000000      -0.05979731
2
Properties=species:S:1:pos:R:3:forces:R:3 energy=-1.0202150088541149 pbc="F F F"
Pt       0.00000000       0.00000000       0.00000000       0.00000000       0.00000000       0.04658074
Pt       0.00000000       0.00000000       5.64727273       0.00000000       0.00000000      -0.04658074
2
Properties=species:S:1:pos:R:3:forces:R:3 energy=-1.0177574998152152 pbc="F F F"
Pt       0.00000000       0.00000000       0.00000000       0.00000000       0.00000000       0.03737734
Pt       0.00000000       0.00000000       5.70606061       0.00000000       0.00000000      -0.03737734
2
Properties=species:S:1:pos:R:3:forces:R:3 energy=-1.0158079007096372 pbc="F F F"
Pt       0.00000000       0.00000000       0.00000000       0.00000000       0.00000000       0.02882657
Pt       0.00000000       0.00000000       5.76484848       0.00000000       0.00000000      -0.02882657
2
Properties=species:S:1:pos:R:3:forces:R:3 energy=-1.0143655978517645 pbc="F F F"
Pt       0.00000000       0.00000000       0.00000000       0.00000000       0.00000000       0.02040567
Pt       0.00000000       0.00000000       5.82363636       0.00000000       0.00000000      -0.02040567
2
Properties=species:S:1:pos:R:3:forces:R:3 energy=-1.0133844907084857 pbc="F F F"
Pt       0.00000000       0.00000000       0.00000000       0.00000000       0.00000000       0.01333678
Pt       0.00000000       0.00000000       5.88242424       0.00000000       0.00000000      -0.01333678
2
Properties=species:S:1:pos:R:3:forces:R:3 energy=-1.0127514767903179 pbc="F F F"
Pt       0.00000000       0.00000000       0.00000000       0.00000000       0.00000000       0.00859765
Pt       0.00000000       0.00000000       5.94121212       0.00000000       0.00000000      -0.00859765
2
Properties=species:S:1:pos:R:3:forces:R:3 energy=-1.012317802110647 pbc="F F F"
Pt       0.00000000       0.00000000       0.00000000       0.00000000       0.00000000       0.00667370
Pt       0.00000000       0.00000000       6.00000000       0.00000000       0.00000000      -0.00667370
