2
Properties=species:S:1:pos:R:3:forces:R:3 energy=35782.89996199633 pbc="F F F"
Rh       0.00000000       0.00000000       0.00000000       0.00000000       0.00000000 -852334.12500000
Rh       0.00000000       0.00000000       0.10000000       0.00000000       0.00000000  852334.12500000
2
Properties=species:S:1:pos:R:3:forces:R:3 energy=10605.528868246329 pbc="F F F"
Rh       0.00000000       0.00000000       0.00000000       0.00000000       0.00000000 -188119.71875000
Rh       0.00000000       0.00000000       0.15959596       0.00000000       0.00000000  188119.71875000
2
Properties=species:S:1:pos:R:3:forces:R:3 energy=4088.3303819182042 pbc="F F F"
Rh       0.00000000       0.00000000       0.00000000       0.00000000       0.00000000  -59464.10156250
Rh       0.00000000       0.00000000       0.21919192       0.00000000       0.00000000   59464.10156250
2
Properties=species:S:1:pos:R:3:forces:R:3 energy=1829.987364346415 pbc="F F F"
Rh       0.00000000       0.00000000       0.00000000       0.00000000       0.00000000  -22978.76562500
Rh       0.00000000       0.00000000       0.27878788       0.00000000       0.00000000   22978.76562500
2
Properties=species:S:1:pos:R:3:forces:R:3 energy=906.6439195221961 pbc="F F F"
Rh       0.00000000       0.00000000       0.00000000       0.00000000       0.00000000  -10024.60253906
Rh       0.00000000       0.00000000       0.33838384       0.00000000       0.00000000   10024.60253906
2
Properties=species:S:1:pos:R:3:forces:R:3 energy=488.6494432165081 pbc="F F F"
Rh       0.00000000       0.00000000       0.00000000       0.00000000       0.00000000   -4735.16357422
Rh       0.00000000       0.00000000       0.39797980       0.00000000       0.00000000    4735.16357422
2
Properties=species:S:1:pos:R:3:forces:R:3 energy=285.86178453777313 pbc="F F F"
Rh       0.00000000       0.00000000       0.00000000       0.00000000       0.00000000   -2369.55761719
Rh       0.00000000       0.00000000       0.45757576       0.00000000       0.00000000    2369.55761719
2
Properties=species:S:1:pos:R:3:forces:R:3 energy=182.2423387686701 pbc="F F F"
Rh       0.00000000       0.00000000       0.00000000       0.00000000       0.00000000   -1240.28759766
Rh       0.00000000       0.00000000       0.51717172       0.00000000       0.00000000    1240.28759766
2
Properties=species:S:1:pos:R:3:forces:R:3 energy=127.13413112305417 pbc="F F F"
Rh       0.00000000       0.00000000       0.00000000       0.00000000       0.00000000    -670.87982178
Rh       0.00000000       0.00000000       0.57676768       0.00000000       0.00000000     670.87982178
2
Properties=species:S:1:pos:R:3:forces:R:3 energy=97.11053350080368 pbc="F F F"
Rh       0.00000000       0.00000000       0.00000000       0.00000000       0.00000000    -366.58496094
Rh       0.00000000       0.00000000       0.63636364       0.00000000       0.00000000     366.58496094
2
Properties=species:S:1:pos:R:3:forces:R:3 energy=80.85690206106227 pbc="F F F"
Rh       0.00000000       0.00000000       0.00000000       0.00000000       0.00000000    -194.76260376
Rh       0.00000000       0.00000000       0.69595960       0.00000000       0.00000000     194.76260376
2
Properties=species:S:1:pos:R:3:forces:R:3 energy=72.41890637850094 pbc="F F F"
Rh       0.00000000       0.00000000       0.00000000       0.00000000       0.00000000     -98.11066437
Rh       0.00000000       0.00000000       0.75555556       0.00000000       0.00000000      98.11066437
2
Properties=species:S:1:pos:R:3:forces:R:3 energy=68.24581101750073 pbc="F F F"
Rh       0.00000000       0.00000000       0.00000000       0.00000000       0.00000000     -48.01200867
Rh       0.00000000       0.00000000       0.81515152       0.00000000       0.00000000      48.01200867
2
Properties=species:S:1:pos:R:3:forces:R:3 energy=66.09833532806321 pbc="F F F"
Rh       0.00000000       0.00000000       0.00000000       0.00000000       0.00000000     -28.29266167
Rh       0.00000000       0.00000000       0.87474747       0.00000000       0.00000000      28.29266167
2
Properties=species:S:1:pos:R:3:forces:R:3 energy=64.43261795904209 pbc="F F F"
Rh       0.00000000       0.00000000       0.00000000       0.00000000       0.00000000     -30.84791946
Rh       0.00000000       0.00000000       0.93434343       0.00000000       0.00000000      30.84791946
2
Properties=species:S:1:pos:R:3:forces:R:3 energy=62.08938010416491 pbc="F F F"
Rh       0.00000000       0.00000000       0.00000000       0.00000000       0.00000000     -50.03756332
Rh       0.00000000       0.00000000       0.99393939       0.00000000       0.00000000      50.03756332
2
Properties=species:S:1:pos:R:3:forces:R:3 energy=58.28624270174005 pbc="F F F"
Rh       0.00000000       0.00000000       0.00000000       0.00000000       0.00000000     -78.30873871
Rh       0.00000000       0.00000000       1.05353535       0.00000000       0.00000000      78.30873871
2
Properties=species:S:1:pos:R:3:forces:R:3 energy=52.77290067735659 pbc="F F F"
Rh       0.00000000       0.00000000       0.00000000       0.00000000       0.00000000    -105.72141266
Rh       0.00000000       0.00000000       1.11313131       0.00000000       0.00000000     105.72141266
2
Properties=species:S:1:pos:R:3:forces:R:3 energy=45.89551120635943 pbc="F F F"
Rh       0.00000000       0.00000000       0.00000000       0.00000000       0.00000000    -122.67701721
Rh       0.00000000       0.00000000       1.17272727       0.00000000       0.00000000     122.67701721
2
Properties=species:S:1:pos:R:3:forces:R:3 energy=38.46142459949545 pbc="F F F"
Rh       0.00000000       0.00000000       0.00000000       0.00000000       0.00000000    -124.44094849
Rh       0.00000000       0.00000000       1.23232323       0.00000000       0.00000000     124.44094849
2
Properties=species:S:1:pos:R:3:forces:R:3 energy=31.24698531447216 pbc="F F F"
Rh       0.00000000       0.00000000       0.00000000       0.00000000       0.00000000    -117.06100464
Rh       0.00000000       0.00000000       1.29191919       0.00000000       0.00000000     117.06100464
2
Properties=species:S:1:pos:R:3:forces:R:3 energy=24.512203300648245 pbc="F F F"
Rh       0.00000000       0.00000000       0.00000000       0.00000000       0.00000000    -109.09545898
Rh       0.00000000       0.00000000       1.35151515       0.00000000       0.00000000     109.09545898
2
Properties=species:S:1:pos:R:3:forces:R:3 energy=18.259522106041178 pbc="F F F"
Rh       0.00000000       0.00000000       0.00000000       0.00000000       0.00000000    -100.22531891
Rh       0.00000000       0.00000000       1.41111111       0.00000000       0.00000000     100.22531891
2
Properties=species:S:1:pos:R:3:forces:R:3 energy=12.664217786689031 pbc="F F F"
Rh       0.00000000       0.00000000       0.00000000       0.00000000       0.00000000     -86.58074951
Rh       0.00000000       0.00000000       1.47070707       0.00000000       0.00000000      86.58074951
2
Properties=species:S:1:pos:R:3:forces:R:3 energy=8.034536273899027 pbc="F F F"
Rh       0.00000000       0.00000000       0.00000000       0.00000000       0.00000000     -68.36988831
Rh       0.00000000       0.00000000       1.53030303       0.00000000       0.00000000      68.36988831
2
Properties=species:S:1:pos:R:3:forces:R:3 energy=4.502290011773686 pbc="F F F"
Rh       0.00000000       0.00000000       0.00000000       0.00000000       0.00000000     -50.75699615
Rh       0.00000000       0.00000000       1.58989899       0.00000000       0.00000000      50.75699615
2
Properties=species:S:1:pos:R:3:forces:R:3 energy=1.8865346169206922 pbc="F F F"
Rh       0.00000000       0.00000000       0.00000000       0.00000000       0.00000000     -37.88676071
Rh       0.00000000       0.00000000       1.64949495       0.00000000       0.00000000      37.88676071
2
Properties=species:S:1:pos:R:3:forces:R:3 energy=-0.09724861437224658 pbc="F F F"
Rh       0.00000000       0.00000000       0.00000000       0.00000000       0.00000000     -29.20392227
Rh       0.00000000       0.00000000       1.70909091       0.00000000       0.00000000      29.20392227
2
Properties=species:S:1:pos:R:3:forces:R:3 energy=-1.640261480669954 pbc="F F F"
Rh       0.00000000       0.00000000       0.00000000       0.00000000       0.00000000     -22.87866592
Rh       0.00000000       0.00000000       1.76868687       0.00000000       0.00000000      22.87866592
2
Properties=species:S:1:pos:R:3:forces:R:3 energy=-2.8536119245828417 pbc="F F F"
Rh       0.00000000       0.00000000       0.00000000       0.00000000       0.00000000     -18.03701019
Rh       0.00000000       0.00000000       1.82828283       0.00000000       0.00000000      18.03701019
2
Properties=species:S:1:pos:R:3:forces:R:3 energy=-3.8079189373702684 pbc="F F F"
Rh       0.00000000       0.00000000       0.00000000       0.00000000       0.00000000     -14.10030651
Rh       0.00000000       0.00000000       1.88787879       0.00000000       0.00000000      14.10030651
2
Properties=species:S:1:pos:R:3:forces:R:3 energy=-4.545137138119414 pbc="F F F"
Rh       0.00000000       0.00000000       0.00000000       0.00000000       0.00000000     -10.72058964
Rh       0.00000000       0.00000000       1.94747475       0.00000000       0.00000000      10.72058964
2
Properties=species:S:1:pos:R:3:forces:R:3 energy=-5.094731563661013 pbc="F F F"
Rh       0.00000000       0.00000000       0.00000000       0.00000000       0.00000000      -7.79473877
Rh       0.00000000       0.00000000       2.00707071       0.00000000       0.00000000       7.79473877
2
Properties=species:S:1:pos:R:3:forces:R:3 energy=-5.48224369133686 pbc="F F F"
Rh       0.00000000       0.00000000       0.00000000       0.00000000       0.00000000      -5.27383471
Rh       0.00000000       0.00000000       2.06666667       0.00000000       0.00000000       5.27383471
2
Properties=species:S:1:pos:R:3:forces:R:3 energy=-5.730704911401975 pbc="F F F"
Rh       0.00000000       0.00000000       0.00000000       0.00000000       0.00000000      -3.12531734
Rh       0.00000000       0.00000000       2.12626263       0.00000000       0.00000000       3.12531734
2
Properties=species:S:1:pos:R:3:forces:R:3 energy=-5.862027277314066 pbc="F F F"
Rh       0.00000000       0.00000000       0.00000000       0.00000000       0.00000000      -1.34323609
Rh       0.00000000       0.00000000       2.18585859       0.00000000       0.00000000       1.34323609
2
Properties=species:S:1:pos:R:3:forces:R:3 energy=-5.898182797430569 pbc="F F F"
Rh       0.00000000       0.00000000       0.00000000       0.00000000       0.00000000       0.06801198
Rh       0.00000000       0.00000000       2.24545455       0.00000000       0.00000000      -0.06801198
2
Properties=species:S:1:pos:R:3:forces:R:3 energy=-5.861224572636207 pbc="F F F"
Rh       0.00000000       0.00000000       0.00000000       0.00000000       0.00000000       1.11219573
Rh       0.00000000       0.00000000       2.30505051       0.00000000       0.00000000      -1.11219573
2
Properties=species:S:1:pos:R:3:forces:R:3 energy=-5.772539255833181 pbc="F F F"
Rh       0.00000000       0.00000000       0.00000000       0.00000000       0.00000000       1.80848587
Rh       0.00000000       0.00000000       2.36464646       0.00000000       0.00000000      -1.80848587
2
Properties=species:S:1:pos:R:3:forces:R:3 energy=-5.651888548715689 pbc="F F F"
Rh       0.00000000       0.00000000       0.00000000       0.00000000       0.00000000       2.19229484
Rh       0.00000000       0.00000000       2.42424242       0.00000000       0.00000000      -2.19229484
2
Properties=species:S:1:pos:R:3:forces:R:3 energy=-5.5164000771385355 pbc="F F F"
Rh       0.00000000       0.00000000       0.00000000       0.00000000       0.00000000       2.31684852
Rh       0.00000000       0.00000000       2.48383838       0.00000000       0.00000000      -2.31684852
2
Properties=species:S:1:pos:R:3:forces:R:3 energy=-5.37945848265966 pbc="F F F"
Rh       0.00000000       0.00000000       0.00000000       0.00000000       0.00000000       2.25464082
Rh       0.00000000       0.00000000       2.54343434       0.00000000       0.00000000      -2.25464082
2
Properties=species:S:1:pos:R:3:forces:R:3 energy=-5.249631100983315 pbc="F F F"
Rh       0.00000000       0.00000000       0.00000000       0.00000000       0.00000000       2.09358788
Rh       0.00000000       0.00000000       2.60303030       0.00000000       0.00000000      -2.09358788
2
Properties=species:S:1:pos:R:3:forces:R:3 energy=-5.130046130473908 pbc="F F F"
Rh       0.00000000       0.00000000       0.00000000       0.00000000       0.00000000       1.92568529
Rh       0.00000000       0.00000000       2.66262626       0.00000000       0.00000000      -1.92568529
2
Properties=species:S:1:pos:R:3:forces:R:3 energy=-5.018736465899043 pbc="F F F"
Rh       0.00000000       0.00000000       0.00000000       0.00000000       0.00000000       1.82476878
Rh       0.00000000       0.00000000       2.72222222       0.00000000       0.00000000      -1.82476878
2
Properties=species:S:1:pos:R:3:forces:R:3 energy=-4.910772684450914 pbc="F F F"
Rh       0.00000000       0.00000000       0.00000000       0.00000000       0.00000000       1.81098461
Rh       0.00000000       0.00000000       2.78181818       0.00000000       0.00000000      -1.81098461
2
Properties=species:S:1:pos:R:3:forces:R:3 energy=-4.801877593488095 pbc="F F F"
Rh       0.00000000       0.00000000       0.00000000       0.00000000       0.00000000       1.84765780
Rh       0.00000000       0.00000000       2.84141414       0.00000000       0.00000000      -1.84765780
2
Properties=species:S:1:pos:R:3:forces:R:3 energy=-4.690470394331161 pbc="F F F"
Rh       0.00000000       0.00000000       0.00000000       0.00000000       0.00000000       1.88881791
Rh       0.00000000       0.00000000       2.90101010       0.00000000       0.00000000      -1.88881791
2
Properties=species:S:1:pos:R:3:forces:R:3 energy=-4.577282761251154 pbc="F F F"
Rh       0.00000000       0.00000000       0.00000000       0.00000000       0.00000000       1.90325153
Rh       0.00000000       0.00000000       2.96060606       0.00000000       0.00000000      -1.90325153
2
Properties=species:S:1:pos:R:3:forces:R:3 energy=-4.46456715236334 pbc="F F F"
Rh       0.00000000       0.00000000       0.00000000       0.00000000       0.00000000       1.87027526
Rh       0.00000000       0.00000000       3.02020202       0.00000000       0.00000000      -1.87027526
2
Properties=species:S:1:pos:R:3:forces:R:3 energy=-4.355505911631337 pbc="F F F"
Rh       0.00000000       0.00000000       0.00000000       0.00000000       0.00000000       1.78017938
Rh       0.00000000       0.00000000       3.07979798       0.00000000       0.00000000      -1.78017938
2
Properties=species:S:1:pos:R:3:forces:R:3 energy=-4.253428730351492 pbc="F F F"
Rh       0.00000000       0.00000000       0.00000000       0.00000000       0.00000000       1.63796628
Rh       0.00000000       0.00000000       3.13939394       0.00000000       0.00000000      -1.63796628
2
Properties=species:S:1:pos:R:3:forces:R:3 energy=-4.16093955199455 pbc="F F F"
Rh       0.00000000       0.00000000       0.00000000       0.00000000       0.00000000       1.46245158
Rh       0.00000000       0.00000000       3.19898990       0.00000000       0.00000000      -1.46245158
2
Properties=species:S:1:pos:R:3:forces:R:3 energy=-4.079255021578157 pbc="F F F"
Rh       0.00000000       0.00000000       0.00000000       0.00000000       0.00000000       1.27992427
Rh       0.00000000       0.00000000       3.25858586       0.00000000       0.00000000      -1.27992427
2
Properties=species:S:1:pos:R:3:forces:R:3 energy=-4.008016268775311 pbc="F F F"
Rh       0.00000000       0.00000000       0.00000000       0.00000000       0.00000000       1.11556649
Rh       0.00000000       0.00000000       3.31818182       0.00000000       0.00000000      -1.11556649
2
Properties=species:S:1:pos:R:3:forces:R:3 energy=-3.9455784981413164 pbc="F F F"
Rh       0.00000000       0.00000000       0.00000000       0.00000000       0.00000000       0.98659533
Rh       0.00000000       0.00000000       3.37777778       0.00000000       0.00000000      -0.98659533
2
Properties=species:S:1:pos:R:3:forces:R:3 energy=-3.889587652972776 pbc="F F F"
Rh       0.00000000       0.00000000       0.00000000       0.00000000       0.00000000       0.89932913
Rh       0.00000000       0.00000000       3.43737374       0.00000000       0.00000000      -0.89932913
2
Properties=species:S:1:pos:R:3:forces:R:3 energy=-3.8376218563200393 pbc="F F F"
Rh       0.00000000       0.00000000       0.00000000       0.00000000       0.00000000       0.85026222
Rh       0.00000000       0.00000000       3.49696970       0.00000000       0.00000000      -0.85026222
2
Properties=species:S:1:pos:R:3:forces:R:3 energy=-3.7876778569165594 pbc="F F F"
Rh       0.00000000       0.00000000       0.00000000       0.00000000       0.00000000       0.82956725
Rh       0.00000000       0.00000000       3.55656566       0.00000000       0.00000000      -0.82956725
2
Properties=species:S:1:pos:R:3:forces:R:3 energy=-3.7384212316386813 pbc="F F F"
Rh       0.00000000       0.00000000       0.00000000       0.00000000       0.00000000       0.82517338
Rh       0.00000000       0.00000000       3.61616162       0.00000000       0.00000000      -0.82517338
2
Properties=species:S:1:pos:R:3:forces:R:3 energy=-3.689222612458376 pbc="F F F"
Rh       0.00000000       0.00000000       0.00000000       0.00000000       0.00000000       0.82595807
Rh       0.00000000       0.00000000       3.67575758       0.00000000       0.00000000      -0.82595807
2
Properties=species:S:1:pos:R:3:forces:R:3 energy=-3.6400394648421304 pbc="F F F"
Rh       0.00000000       0.00000000       0.00000000       0.00000000       0.00000000       0.82355225
Rh       0.00000000       0.00000000       3.73535354       0.00000000       0.00000000      -0.82355225
2
Properties=species:S:1:pos:R:3:forces:R:3 energy=-3.591228150554174 pbc="F F F"
Rh       0.00000000       0.00000000       0.00000000       0.00000000       0.00000000       0.81288218
Rh       0.00000000       0.00000000       3.79494949       0.00000000       0.00000000      -0.81288218
2
Properties=species:S:1:pos:R:3:forces:R:3 energy=-3.543356895784771 pbc="F F F"
Rh       0.00000000       0.00000000       0.00000000       0.00000000       0.00000000       0.79188335
Rh       0.00000000       0.00000000       3.85454545       0.00000000       0.00000000      -0.79188335
2
Properties=species:S:1:pos:R:3:forces:R:3 energy=-3.497043440769137 pbc="F F F"
Rh       0.00000000       0.00000000       0.00000000       0.00000000       0.00000000       0.76082325
Rh       0.00000000       0.00000000       3.91414141       0.00000000       0.00000000      -0.76082325
2
Properties=species:S:1:pos:R:3:forces:R:3 energy=-3.45283699724821 pbc="F F F"
Rh       0.00000000       0.00000000       0.00000000       0.00000000       0.00000000       0.72152138
Rh       0.00000000       0.00000000       3.97373737       0.00000000       0.00000000      -0.72152138
2
Properties=species:S:1:pos:R:3:forces:R:3 energy=-3.411155004188744 pbc="F F F"
Rh       0.00000000       0.00000000       0.00000000       0.00000000       0.00000000       0.67663151
Rh       0.00000000       0.00000000       4.03333333       0.00000000       0.00000000      -0.67663151
2
Properties=species:S:1:pos:R:3:forces:R:3 energy=-3.3722417063069896 pbc="F F F"
Rh       0.00000000       0.00000000       0.00000000       0.00000000       0.00000000       0.62904465
Rh       0.00000000       0.00000000       4.09292929       0.00000000       0.00000000      -0.62904465
2
Properties=species:S:1:pos:R:3:forces:R:3 energy=-3.3361776377907977 pbc="F F F"
Rh       0.00000000       0.00000000       0.00000000       0.00000000       0.00000000       0.58143288
Rh       0.00000000       0.00000000       4.15252525       0.00000000       0.00000000      -0.58143288
2
Properties=species:S:1:pos:R:3:forces:R:3 energy=-3.302897026855895 pbc="F F F"
Rh       0.00000000       0.00000000       0.00000000       0.00000000       0.00000000       0.53596187
Rh       0.00000000       0.00000000       4.21212121       0.00000000       0.00000000      -0.53596187
2
Properties=species:S:1:pos:R:3:forces:R:3 energy=-3.2722221130140814 pbc="F F F"
Rh       0.00000000       0.00000000       0.00000000       0.00000000       0.00000000       0.49414426
Rh       0.00000000       0.00000000       4.27171717       0.00000000       0.00000000      -0.49414426
2
Properties=species:S:1:pos:R:3:forces:R:3 energy=-3.2439090541530446 pbc="F F F"
Rh       0.00000000       0.00000000       0.00000000       0.00000000       0.00000000       0.45683345
Rh       0.00000000       0.00000000       4.33131313       0.00000000       0.00000000      -0.45683345
2
Properties=species:S:1:pos:R:3:forces:R:3 energy=-3.2176767538415936 pbc="F F F"
Rh       0.00000000       0.00000000       0.00000000       0.00000000       0.00000000       0.42428148
Rh       0.00000000       0.00000000       4.39090909       0.00000000       0.00000000      -0.42428148
2
Properties=species:S:1:pos:R:3:forces:R:3 energy=-3.193247456676466 pbc="F F F"
Rh       0.00000000       0.00000000       0.00000000       0.00000000       0.00000000       0.39625117
Rh       0.00000000       0.00000000       4.45050505       0.00000000       0.00000000      -0.39625117
2
Properties=species:S:1:pos:R:3:forces:R:3 energy=-3.1703692143136593 pbc="F F F"
Rh       0.00000000       0.00000000       0.00000000       0.00000000       0.00000000       0.37212250
Rh       0.00000000       0.00000000       4.51010101       0.00000000       0.00000000      -0.37212250
2
Properties=species:S:1:pos:R:3:forces:R:3 energy=-3.1488332275001816 pbc="F F F"
Rh       0.00000000       0.00000000       0.00000000       0.00000000       0.00000000       0.35100889
Rh       0.00000000       0.00000000       4.56969697       0.00000000       0.00000000      -0.35100889
2
Properties=species:S:1:pos:R:3:forces:R:3 energy=-3.1284925060796613 pbc="F F F"
Rh       0.00000000       0.00000000       0.00000000       0.00000000       0.00000000       0.33184052
Rh       0.00000000       0.00000000       4.62929293       0.00000000       0.00000000      -0.33184052
2
Properties=species:S:1:pos:R:3:forces:R:3 energy=-3.1092648013712214 pbc="F F F"
Rh       0.00000000       0.00000000       0.00000000       0.00000000       0.00000000       0.31348413
Rh       0.00000000       0.00000000       4.68888889       0.00000000       0.00000000      -0.31348413
2
Properties=species:S:1:pos:R:3:forces:R:3 energy=-3.0911336770532163 pbc="F F F"
Rh       0.00000000       0.00000000       0.00000000       0.00000000       0.00000000       0.29483312
Rh       0.00000000       0.00000000       4.74848485       0.00000000       0.00000000      -0.29483312
2
Properties=species:S:1:pos:R:3:forces:R:3 energy=-3.0741472545458093 pbc="F F F"
Rh       0.00000000       0.00000000       0.00000000       0.00000000       0.00000000       0.27497631
Rh       0.00000000       0.00000000       4.80808081       0.00000000       0.00000000      -0.27497631
2
Properties=species:S:1:pos:R:3:forces:R:3 energy=-3.0583940780495906 pbc="F F F"
Rh       0.00000000       0.00000000       0.00000000       0.00000000       0.00000000       0.25336027
Rh       0.00000000       0.00000000       4.86767677       0.00000000       0.00000000      -0.25336027
2
Properties=species:S:1:pos:R:3:forces:R:3 energy=-3.0439833868240487 pbc="F F F"
Rh       0.00000000       0.00000000       0.00000000       0.00000000       0.00000000       0.22999337
Rh       0.00000000       0.00000000       4.92727273       0.00000000       0.00000000      -0.22999337
2
Properties=species:S:1:pos:R:3:forces:R:3 energy=-3.031002018445554 pbc="F F F"
Rh       0.00000000       0.00000000       0.00000000       0.00000000       0.00000000       0.20557930
Rh       0.00000000       0.00000000       4.98686869       0.00000000       0.00000000      -0.20557930
2
Properties=species:S:1:pos:R:3:forces:R:3 energy=-3.0194739536766413 pbc="F F F"
Rh       0.00000000       0.00000000       0.00000000       0.00000000       0.00000000       0.18154250
Rh       0.00000000       0.00000000       5.04646465       0.00000000       0.00000000      -0.18154250
2
Properties=species:S:1:pos:R:3:forces:R:3 energy=-3.009318994024095 pbc="F F F"
Rh       0.00000000       0.00000000       0.00000000       0.00000000       0.00000000       0.15978852
Rh       0.00000000       0.00000000       5.10606061       0.00000000       0.00000000      -0.15978852
2
Properties=species:S:1:pos:R:3:forces:R:3 energy=-3.000345106169921 pbc="F F F"
Rh       0.00000000       0.00000000       0.00000000       0.00000000       0.00000000       0.14212205
Rh       0.00000000       0.00000000       5.16565657       0.00000000       0.00000000      -0.14212205
2
Properties=species:S:1:pos:R:3:forces:R:3 energy=-2.992282760582384 pbc="F F F"
Rh       0.00000000       0.00000000       0.00000000       0.00000000       0.00000000       0.12918878
Rh       0.00000000       0.00000000       5.22525253       0.00000000       0.00000000      -0.12918878
2
Properties=species:S:1:pos:R:3:forces:R:3 energy=-2.9848853564229607 pbc="F F F"
Rh       0.00000000       0.00000000       0.00000000       0.00000000       0.00000000       0.11930358
Rh       0.00000000       0.00000000       5.28484848       0.00000000       0.00000000      -0.11930358
2
Properties=species:S:1:pos:R:3:forces:R:3 energy=-2.978076948366625 pbc="F F F"
Rh       0.00000000       0.00000000       0.00000000       0.00000000       0.00000000       0.10872772
Rh       0.00000000       0.00000000       5.34444444       0.00000000       0.00000000      -0.10872772
2
Properties=species:S:1:pos:R:3:forces:R:3 energy=-2.9720021077631005 pbc="F F F"
Rh       0.00000000       0.00000000       0.00000000       0.00000000       0.00000000       0.09442823
Rh       0.00000000       0.00000000       5.40404040       0.00000000       0.00000000      -0.09442823
2
Properties=species:S:1:pos:R:3:forces:R:3 energy=-2.9668882291558263 pbc="F F F"
Rh       0.00000000       0.00000000       0.00000000       0.00000000       0.00000000       0.07684986
Rh       0.00000000       0.00000000       5.46363636       0.00000000       0.00000000      -0.07684986
2
Properties=species:S:1:pos:R:3:forces:R:3 energy=-2.962840536237351 pbc="F F F"
Rh       0.00000000       0.00000000       0.00000000       0.00000000       0.00000000       0.05939545
Rh       0.00000000       0.00000000       5.52323232       0.00000000       0.00000000      -0.05939545
2
Properties=species:S:1:pos:R:3:forces:R:3 energy=-2.9597375206312364 pbc="F F F"
Rh       0.00000000       0.00000000       0.00000000       0.00000000       0.00000000       0.04550109
Rh       0.00000000       0.00000000       5.58282828       0.00000000       0.00000000      -0.04550109
2
Properties=species:S:1:pos:R:3:forces:R:3 energy=-2.957322729877193 pbc="F F F"
Rh       0.00000000       0.00000000       0.00000000       0.00000000       0.00000000       0.03625439
Rh       0.00000000       0.00000000       5.64242424       0.00000000       0.00000000      -0.03625439
2
Properties=species:S:1:pos:R:3:forces:R:3 energy=-2.9553524799961592 pbc="F F F"
Rh       0.00000000       0.00000000       0.00000000       0.00000000       0.00000000       0.03017819
Rh       0.00000000       0.00000000       5.70202020       0.00000000       0.00000000      -0.03017819
2
Properties=species:S:1:pos:R:3:forces:R:3 energy=-2.953704575946285 pbc="F F F"
Rh       0.00000000       0.00000000       0.00000000       0.00000000       0.00000000       0.02522665
Rh       0.00000000       0.00000000       5.76161616       0.00000000       0.00000000      -0.02522665
2
Properties=species:S:1:pos:R:3:forces:R:3 energy=-2.9523406763334763 pbc="F F F"
Rh       0.00000000       0.00000000       0.00000000       0.00000000       0.00000000       0.02059118
Rh       0.00000000       0.00000000       5.82121212       0.00000000       0.00000000      -0.02059118
2
Properties=species:S:1:pos:R:3:forces:R:3 energy=-2.9512386553948415 pbc="F F F"
Rh       0.00000000       0.00000000       0.00000000       0.00000000       0.00000000       0.01657227
Rh       0.00000000       0.00000000       5.88080808       0.00000000       0.00000000      -0.01657227
2
Properties=species:S:1:pos:R:3:forces:R:3 energy=-2.950342756092634 pbc="F F F"
Rh       0.00000000       0.00000000       0.00000000       0.00000000       0.00000000       0.01366639
Rh       0.00000000       0.00000000       5.94040404       0.00000000       0.00000000      -0.01366639
2
Properties=species:S:1:pos:R:3:forces:R:3 energy=-2.949580825944038 pbc="F F F"
Rh       0.00000000       0.00000000       0.00000000       0.00000000       0.00000000       0.01216704
Rh       0.00000000       0.00000000       6.00000000       0.00000000       0.00000000      -0.01216704
