2
Properties=species:S:1:pos:R:3:forces:R:3 energy=5888.436680615729 pbc="F F F"
Sr       0.00000000       0.00000000       0.00000000       0.00000000       0.00000000  -94999.03125000
Sr       0.00000000       0.00000000       0.18000000       0.00000000       0.00000000   94999.03125000
2
Properties=species:S:1:pos:R:3:forces:R:3 energy=2477.6131942876036 pbc="F F F"
Sr       0.00000000       0.00000000       0.00000000       0.00000000       0.00000000  -33526.51953125
Sr       0.00000000       0.00000000       0.23878788       0.00000000       0.00000000   33526.51953125
2
Properties=species:S:1:pos:R:3:forces:R:3 energy=1179.1197860844786 pbc="F F F"
Sr       0.00000000       0.00000000       0.00000000       0.00000000       0.00000000  -13942.99707031
Sr       0.00000000       0.00000000       0.29757576       0.00000000       0.00000000   13942.99707031
2
Properties=species:S:1:pos:R:3:forces:R:3 energy=612.4979599126037 pbc="F F F"
Sr       0.00000000       0.00000000       0.00000000       0.00000000       0.00000000   -6426.47265625
Sr       0.00000000       0.00000000       0.35636364       0.00000000       0.00000000    6426.47265625
2
Properties=species:S:1:pos:R:3:forces:R:3 energy=342.7504013188537 pbc="F F F"
Sr       0.00000000       0.00000000       0.00000000       0.00000000       0.00000000   -3173.87255859
Sr       0.00000000       0.00000000       0.41515152       0.00000000       0.00000000    3173.87255859
2
Properties=species:S:1:pos:R:3:forces:R:3 energy=206.3709915414859 pbc="F F F"
Sr       0.00000000       0.00000000       0.00000000       0.00000000       0.00000000   -1647.98291016
Sr       0.00000000       0.00000000       0.47393939       0.00000000       0.00000000    1647.98291016
2
Properties=species:S:1:pos:R:3:forces:R:3 energy=134.29732212056345 pbc="F F F"
Sr       0.00000000       0.00000000       0.00000000       0.00000000       0.00000000    -888.20166016
Sr       0.00000000       0.00000000       0.53272727       0.00000000       0.00000000     888.20166016
2
Properties=species:S:1:pos:R:3:forces:R:3 energy=94.97132573430895 pbc="F F F"
Sr       0.00000000       0.00000000       0.00000000       0.00000000       0.00000000    -490.73535156
Sr       0.00000000       0.00000000       0.59151515       0.00000000       0.00000000     490.73535156
2
Properties=species:S:1:pos:R:3:forces:R:3 energy=73.12856759361188 pbc="F F F"
Sr       0.00000000       0.00000000       0.00000000       0.00000000       0.00000000    -273.30523682
Sr       0.00000000       0.00000000       0.65030303       0.00000000       0.00000000     273.30523682
2
Properties=species:S:1:pos:R:3:forces:R:3 energy=61.02600569994908 pbc="F F F"
Sr       0.00000000       0.00000000       0.00000000       0.00000000       0.00000000    -149.68690491
Sr       0.00000000       0.00000000       0.70909091       0.00000000       0.00000000     149.68690491
2
Properties=species:S:1:pos:R:3:forces:R:3 energy=54.52298072738082 pbc="F F F"
Sr       0.00000000       0.00000000       0.00000000       0.00000000       0.00000000     -78.07872009
Sr       0.00000000       0.00000000       0.76787879       0.00000000       0.00000000      78.07872009
2
Properties=species:S:1:pos:R:3:forces:R:3 energy=51.23590961339507 pbc="F F F"
Sr       0.00000000       0.00000000       0.00000000       0.00000000       0.00000000     -37.88624573
Sr       0.00000000       0.00000000       0.82666667       0.00000000       0.00000000      37.88624573
2
Properties=species:S:1:pos:R:3:forces:R:3 energy=49.67628606619575 pbc="F F F"
Sr       0.00000000       0.00000000       0.00000000       0.00000000       0.00000000     -17.77852058
Sr       0.00000000       0.00000000       0.88545455       0.00000000       0.00000000      17.77852058
2
Properties=species:S:1:pos:R:3:forces:R:3 energy=48.91898498271947 pbc="F F F"
Sr       0.00000000       0.00000000       0.00000000       0.00000000       0.00000000      -9.27590656
Sr       0.00000000       0.00000000       0.94424242       0.00000000       0.00000000       9.27590656
2
Properties=species:S:1:pos:R:3:forces:R:3 energy=48.49331086102512 pbc="F F F"
Sr       0.00000000       0.00000000       0.00000000       0.00000000       0.00000000      -5.62637043
Sr       0.00000000       0.00000000       1.00303030       0.00000000       0.00000000       5.62637043
2
Properties=species:S:1:pos:R:3:forces:R:3 energy=48.22369994587765 pbc="F F F"
Sr       0.00000000       0.00000000       0.00000000       0.00000000       0.00000000      -3.82799125
Sr       0.00000000       0.00000000       1.06181818       0.00000000       0.00000000       3.82799125
2
Properties=species:S:1:pos:R:3:forces:R:3 energy=47.99890804828817 pbc="F F F"
Sr       0.00000000       0.00000000       0.00000000       0.00000000       0.00000000      -4.31248379
Sr       0.00000000       0.00000000       1.12060606       0.00000000       0.00000000       4.31248379
2
Properties=species:S:1:pos:R:3:forces:R:3 energy=47.646514723568515 pbc="F F F"
Sr       0.00000000       0.00000000       0.00000000       0.00000000       0.00000000      -8.34668350
Sr       0.00000000       0.00000000       1.17939394       0.00000000       0.00000000       8.34668350
2
Properties=species:S:1:pos:R:3:forces:R:3 energy=46.936066499514666 pbc="F F F"
Sr       0.00000000       0.00000000       0.00000000       0.00000000       0.00000000     -16.49081802
Sr       0.00000000       0.00000000       1.23818182       0.00000000       0.00000000      16.49081802
2
Properties=species:S:1:pos:R:3:forces:R:3 energy=45.64137477347946 pbc="F F F"
Sr       0.00000000       0.00000000       0.00000000       0.00000000       0.00000000     -27.96843529
Sr       0.00000000       0.00000000       1.29696970       0.00000000       0.00000000      27.96843529
2
Properties=species:S:1:pos:R:3:forces:R:3 energy=43.620628250641026 pbc="F F F"
Sr       0.00000000       0.00000000       0.00000000       0.00000000       0.00000000     -40.83775711
Sr       0.00000000       0.00000000       1.35575758       0.00000000       0.00000000      40.83775711
2
Properties=species:S:1:pos:R:3:forces:R:3 energy=40.84718132761976 pbc="F F F"
Sr       0.00000000       0.00000000       0.00000000       0.00000000       0.00000000     -53.35482025
Sr       0.00000000       0.00000000       1.41454545       0.00000000       0.00000000      53.35482025
2
Properties=species:S:1:pos:R:3:forces:R:3 energy=37.37711012391244 pbc="F F F"
Sr       0.00000000       0.00000000       0.00000000       0.00000000       0.00000000     -64.34497833
Sr       0.00000000       0.00000000       1.47333333       0.00000000       0.00000000      64.34497833
2
Properties=species:S:1:pos:R:3:forces:R:3 energy=33.33808123328498 pbc="F F F"
Sr       0.00000000       0.00000000       0.00000000       0.00000000       0.00000000     -72.44965363
Sr       0.00000000       0.00000000       1.53212121       0.00000000       0.00000000      72.44965363
2
Properties=species:S:1:pos:R:3:forces:R:3 energy=28.94699080156531 pbc="F F F"
Sr       0.00000000       0.00000000       0.00000000       0.00000000       0.00000000     -76.07601929
Sr       0.00000000       0.00000000       1.59090909       0.00000000       0.00000000      76.07601929
2
Properties=species:S:1:pos:R:3:forces:R:3 energy=24.50087798111309 pbc="F F F"
Sr       0.00000000       0.00000000       0.00000000       0.00000000       0.00000000     -74.27387238
Sr       0.00000000       0.00000000       1.64969697       0.00000000       0.00000000      74.27387238
2
Properties=species:S:1:pos:R:3:forces:R:3 energy=20.30976527177411 pbc="F F F"
Sr       0.00000000       0.00000000       0.00000000       0.00000000       0.00000000     -67.65222931
Sr       0.00000000       0.00000000       1.70848485       0.00000000       0.00000000      67.65222931
2
Properties=species:S:1:pos:R:3:forces:R:3 energy=16.599679360638028 pbc="F F F"
Sr       0.00000000       0.00000000       0.00000000       0.00000000       0.00000000     -58.32450104
Sr       0.00000000       0.00000000       1.76727273       0.00000000       0.00000000      58.32450104
2
Properties=species:S:1:pos:R:3:forces:R:3 energy=13.461392100212732 pbc="F F F"
Sr       0.00000000       0.00000000       0.00000000       0.00000000       0.00000000     -48.48086929
Sr       0.00000000       0.00000000       1.82606061       0.00000000       0.00000000      48.48086929
2
Properties=species:S:1:pos:R:3:forces:R:3 energy=10.887710121534552 pbc="F F F"
Sr       0.00000000       0.00000000       0.00000000       0.00000000       0.00000000     -39.21587372
Sr       0.00000000       0.00000000       1.88484848       0.00000000       0.00000000      39.21587372
2
Properties=species:S:1:pos:R:3:forces:R:3 energy=8.831089179652206 pbc="F F F"
Sr       0.00000000       0.00000000       0.00000000       0.00000000       0.00000000     -30.94592667
Sr       0.00000000       0.00000000       1.94363636       0.00000000       0.00000000      30.94592667
2
Properties=species:S:1:pos:R:3:forces:R:3 energy=7.223109582001086 pbc="F F F"
Sr       0.00000000       0.00000000       0.00000000       0.00000000       0.00000000     -24.00507355
Sr       0.00000000       0.00000000       2.00242424       0.00000000       0.00000000      24.00507355
2
Properties=species:S:1:pos:R:3:forces:R:3 energy=5.978250856690167 pbc="F F F"
Sr       0.00000000       0.00000000       0.00000000       0.00000000       0.00000000     -18.60572243
Sr       0.00000000       0.00000000       2.06121212       0.00000000       0.00000000      18.60572243
2
Properties=species:S:1:pos:R:3:forces:R:3 energy=5.006792588152836 pbc="F F F"
Sr       0.00000000       0.00000000       0.00000000       0.00000000       0.00000000     -14.66456699
Sr       0.00000000       0.00000000       2.12000000       0.00000000       0.00000000      14.66456699
2
Properties=species:S:1:pos:R:3:forces:R:3 energy=4.231704478798893 pbc="F F F"
Sr       0.00000000       0.00000000       0.00000000       0.00000000       0.00000000     -11.86278057
Sr       0.00000000       0.00000000       2.17878788       0.00000000       0.00000000      11.86278057
2
Properties=species:S:1:pos:R:3:forces:R:3 energy=3.596805420929547 pbc="F F F"
Sr       0.00000000       0.00000000       0.00000000       0.00000000       0.00000000      -9.84066200
Sr       0.00000000       0.00000000       2.23757576       0.00000000       0.00000000       9.84066200
2
Properties=species:S:1:pos:R:3:forces:R:3 energy=3.0647635996823053 pbc="F F F"
Sr       0.00000000       0.00000000       0.00000000       0.00000000       0.00000000      -8.32811356
Sr       0.00000000       0.00000000       2.29636364       0.00000000       0.00000000       8.32811356
2
Properties=species:S:1:pos:R:3:forces:R:3 energy=2.610903825528416 pbc="F F F"
Sr       0.00000000       0.00000000       0.00000000       0.00000000       0.00000000      -7.16058350
Sr       0.00000000       0.00000000       2.35515152       0.00000000       0.00000000       7.16058350
2
Properties=species:S:1:pos:R:3:forces:R:3 energy=2.218054281412343 pbc="F F F"
Sr       0.00000000       0.00000000       0.00000000       0.00000000       0.00000000      -6.23886776
Sr       0.00000000       0.00000000       2.41393939       0.00000000       0.00000000       6.23886776
2
Properties=species:S:1:pos:R:3:forces:R:3 energy=1.8739986867808194 pbc="F F F"
Sr       0.00000000       0.00000000       0.00000000       0.00000000       0.00000000      -5.48907518
Sr       0.00000000       0.00000000       2.47272727       0.00000000       0.00000000       5.48907518
2
Properties=species:S:1:pos:R:3:forces:R:3 energy=1.5705380392786603 pbc="F F F"
Sr       0.00000000       0.00000000       0.00000000       0.00000000       0.00000000      -4.84868813
Sr       0.00000000       0.00000000       2.53151515       0.00000000       0.00000000       4.84868813
2
Properties=species:S:1:pos:R:3:forces:R:3 energy=1.3026622484026076 pbc="F F F"
Sr       0.00000000       0.00000000       0.00000000       0.00000000       0.00000000      -4.27297115
Sr       0.00000000       0.00000000       2.59030303       0.00000000       0.00000000       4.27297115
2
Properties=species:S:1:pos:R:3:forces:R:3 energy=1.0672941464266221 pbc="F F F"
Sr       0.00000000       0.00000000       0.00000000       0.00000000       0.00000000      -3.74105024
Sr       0.00000000       0.00000000       2.64909091       0.00000000       0.00000000       3.74105024
2
Properties=species:S:1:pos:R:3:forces:R:3 energy=0.8619724820099078 pbc="F F F"
Sr       0.00000000       0.00000000       0.00000000       0.00000000       0.00000000      -3.25181556
Sr       0.00000000       0.00000000       2.70787879       0.00000000       0.00000000       3.25181556
2
Properties=species:S:1:pos:R:3:forces:R:3 energy=0.6839528322317834 pbc="F F F"
Sr       0.00000000       0.00000000       0.00000000       0.00000000       0.00000000      -2.81396866
Sr       0.00000000       0.00000000       2.76666667       0.00000000       0.00000000       2.81396866
2
Properties=species:S:1:pos:R:3:forces:R:3 energy=0.529913722598564 pbc="F F F"
Sr       0.00000000       0.00000000       0.00000000       0.00000000       0.00000000      -2.43745160
Sr       0.00000000       0.00000000       2.82545455       0.00000000       0.00000000       2.43745160
2
Properties=species:S:1:pos:R:3:forces:R:3 energy=0.39603690816442944 pbc="F F F"
Sr       0.00000000       0.00000000       0.00000000       0.00000000       0.00000000      -2.12862873
Sr       0.00000000       0.00000000       2.88424242       0.00000000       0.00000000       2.12862873
2
Properties=species:S:1:pos:R:3:forces:R:3 energy=0.27830056244343043 pbc="F F F"
Sr       0.00000000       0.00000000       0.00000000       0.00000000       0.00000000      -1.88774705
Sr       0.00000000       0.00000000       2.94303030       0.00000000       0.00000000       1.88774705
2
Properties=species:S:1:pos:R:3:forces:R:3 energy=0.1728895312597266 pbc="F F F"
Sr       0.00000000       0.00000000       0.00000000       0.00000000       0.00000000      -1.70757473
Sr       0.00000000       0.00000000       3.00181818       0.00000000       0.00000000       1.70757473
2
Properties=species:S:1:pos:R:3:forces:R:3 energy=0.07662115993923053 pbc="F F F"
Sr       0.00000000       0.00000000       0.00000000       0.00000000       0.00000000      -1.57379234
Sr       0.00000000       0.00000000       3.06060606       0.00000000       0.00000000       1.57379234
2
Properties=species:S:1:pos:R:3:forces:R:3 energy=-0.012702495092876298 pbc="F F F"
Sr       0.00000000       0.00000000       0.00000000       0.00000000       0.00000000      -1.46823800
Sr       0.00000000       0.00000000       3.11939394       0.00000000       0.00000000       1.46823800
2
Properties=species:S:1:pos:R:3:forces:R:3 energy=-0.09622902234337102 pbc="F F F"
Sr       0.00000000       0.00000000       0.00000000       0.00000000       0.00000000      -1.37417531
Sr       0.00000000       0.00000000       3.17818182       0.00000000       0.00000000       1.37417531
2
Properties=species:S:1:pos:R:3:forces:R:3 energy=-0.17428148153490347 pbc="F F F"
Sr       0.00000000       0.00000000       0.00000000       0.00000000       0.00000000      -1.28084636
Sr       0.00000000       0.00000000       3.23696970       0.00000000       0.00000000       1.28084636
2
Properties=species:S:1:pos:R:3:forces:R:3 energy=-0.24676847545653902 pbc="F F F"
Sr       0.00000000       0.00000000       0.00000000       0.00000000       0.00000000      -1.18478727
Sr       0.00000000       0.00000000       3.29575758       0.00000000       0.00000000       1.18478727
2
Properties=species:S:1:pos:R:3:forces:R:3 energy=-0.3135637102178474 pbc="F F F"
Sr       0.00000000       0.00000000       0.00000000       0.00000000       0.00000000      -1.08772194
Sr       0.00000000       0.00000000       3.35454545       0.00000000       0.00000000       1.08772194
2
Properties=species:S:1:pos:R:3:forces:R:3 energy=-0.3747060947310312 pbc="F F F"
Sr       0.00000000       0.00000000       0.00000000       0.00000000       0.00000000      -0.99305189
Sr       0.00000000       0.00000000       3.41333333       0.00000000       0.00000000       0.99305189
2
Properties=species:S:1:pos:R:3:forces:R:3 energy=-0.4304211216473667 pbc="F F F"
Sr       0.00000000       0.00000000       0.00000000       0.00000000       0.00000000      -0.90337825
Sr       0.00000000       0.00000000       3.47212121       0.00000000       0.00000000       0.90337825
2
Properties=species:S:1:pos:R:3:forces:R:3 energy=-0.4810417560305049 pbc="F F F"
Sr       0.00000000       0.00000000       0.00000000       0.00000000       0.00000000      -0.81983411
Sr       0.00000000       0.00000000       3.53090909       0.00000000       0.00000000       0.81983411
2
Properties=species:S:1:pos:R:3:forces:R:3 energy=-0.526933487931301 pbc="F F F"
Sr       0.00000000       0.00000000       0.00000000       0.00000000       0.00000000      -0.74237412
Sr       0.00000000       0.00000000       3.58969697       0.00000000       0.00000000       0.74237412
2
Properties=species:S:1:pos:R:3:forces:R:3 energy=-0.5684279021972337 pbc="F F F"
Sr       0.00000000       0.00000000       0.00000000       0.00000000       0.00000000      -0.67003012
Sr       0.00000000       0.00000000       3.64848485       0.00000000       0.00000000       0.67003012
2
Properties=species:S:1:pos:R:3:forces:R:3 energy=-0.6057780008272842 pbc="F F F"
Sr       0.00000000       0.00000000       0.00000000       0.00000000       0.00000000      -0.60100937
Sr       0.00000000       0.00000000       3.70727273       0.00000000       0.00000000       0.60100937
2
Properties=species:S:1:pos:R:3:forces:R:3 energy=-0.6391148187900205 pbc="F F F"
Sr       0.00000000       0.00000000       0.00000000       0.00000000       0.00000000      -0.53312761
Sr       0.00000000       0.00000000       3.76606061       0.00000000       0.00000000       0.53312761
2
Properties=species:S:1:pos:R:3:forces:R:3 energy=-0.6684471778534802 pbc="F F F"
Sr       0.00000000       0.00000000       0.00000000       0.00000000       0.00000000      -0.46457326
Sr       0.00000000       0.00000000       3.82484848       0.00000000       0.00000000       0.46457326
2
Properties=species:S:1:pos:R:3:forces:R:3 energy=-0.6937066657573703 pbc="F F F"
Sr       0.00000000       0.00000000       0.00000000       0.00000000       0.00000000      -0.39450246
Sr       0.00000000       0.00000000       3.88363636       0.00000000       0.00000000       0.39450246
2
Properties=species:S:1:pos:R:3:forces:R:3 energy=-0.7148045585053127 pbc="F F F"
Sr       0.00000000       0.00000000       0.00000000       0.00000000       0.00000000      -0.32310945
Sr       0.00000000       0.00000000       3.94242424       0.00000000       0.00000000       0.32310945
2
Properties=species:S:1:pos:R:3:forces:R:3 energy=-0.7316864336834459 pbc="F F F"
Sr       0.00000000       0.00000000       0.00000000       0.00000000       0.00000000      -0.25123328
Sr       0.00000000       0.00000000       4.00121212       0.00000000       0.00000000       0.25123328
2
Properties=species:S:1:pos:R:3:forces:R:3 energy=-0.7443550488698553 pbc="F F F"
Sr       0.00000000       0.00000000       0.00000000       0.00000000       0.00000000      -0.17994155
Sr       0.00000000       0.00000000       4.06000000       0.00000000       0.00000000       0.17994155
2
Properties=species:S:1:pos:R:3:forces:R:3 energy=-0.7528775948837667 pbc="F F F"
Sr       0.00000000       0.00000000       0.00000000       0.00000000       0.00000000      -0.11038011
Sr       0.00000000       0.00000000       4.11878788       0.00000000       0.00000000       0.11038011
2
Properties=species:S:1:pos:R:3:forces:R:3 energy=-0.7573914043772406 pbc="F F F"
Sr       0.00000000       0.00000000       0.00000000       0.00000000       0.00000000      -0.04380255
Sr       0.00000000       0.00000000       4.17757576       0.00000000       0.00000000       0.04380255
2
Properties=species:S:1:pos:R:3:forces:R:3 energy=-0.7581113350986759 pbc="F F F"
Sr       0.00000000       0.00000000       0.00000000       0.00000000       0.00000000       0.01850826
Sr       0.00000000       0.00000000       4.23636364       0.00000000       0.00000000      -0.01850826
2
Properties=species:S:1:pos:R:3:forces:R:3 energy=-0.7553159233713758 pbc="F F F"
Sr       0.00000000       0.00000000       0.00000000       0.00000000       0.00000000       0.07572500
Sr       0.00000000       0.00000000       4.29515152       0.00000000       0.00000000      -0.07572500
2
Properties=species:S:1:pos:R:3:forces:R:3 energy=-0.7493024275097486 pbc="F F F"
Sr       0.00000000       0.00000000       0.00000000       0.00000000       0.00000000       0.12816943
Sr       0.00000000       0.00000000       4.35393939       0.00000000       0.00000000      -0.12816943
2
Properties=species:S:1:pos:R:3:forces:R:3 energy=-0.7403099285352954 pbc="F F F"
Sr       0.00000000       0.00000000       0.00000000       0.00000000       0.00000000       0.17738165
Sr       0.00000000       0.00000000       4.41272727       0.00000000       0.00000000      -0.17738165
2
Properties=species:S:1:pos:R:3:forces:R:3 energy=-0.7284810613583209 pbc="F F F"
Sr       0.00000000       0.00000000       0.00000000       0.00000000       0.00000000       0.22476158
Sr       0.00000000       0.00000000       4.47151515       0.00000000       0.00000000      -0.22476158
2
Properties=species:S:1:pos:R:3:forces:R:3 energy=-0.7139274564115203 pbc="F F F"
Sr       0.00000000       0.00000000       0.00000000       0.00000000       0.00000000       0.26978695
Sr       0.00000000       0.00000000       4.53030303       0.00000000       0.00000000      -0.26978695
2
Properties=species:S:1:pos:R:3:forces:R:3 energy=-0.696855608349203 pbc="F F F"
Sr       0.00000000       0.00000000       0.00000000       0.00000000       0.00000000       0.30996758
Sr       0.00000000       0.00000000       4.58909091       0.00000000       0.00000000      -0.30996758
2
Properties=species:S:1:pos:R:3:forces:R:3 energy=-0.6776312160097563 pbc="F F F"
Sr       0.00000000       0.00000000       0.00000000       0.00000000       0.00000000       0.34266594
Sr       0.00000000       0.00000000       4.64787879       0.00000000       0.00000000      -0.34266594
2
Properties=species:S:1:pos:R:3:forces:R:3 energy=-0.6567379229451351 pbc="F F F"
Sr       0.00000000       0.00000000       0.00000000       0.00000000       0.00000000       0.36665559
Sr       0.00000000       0.00000000       4.70666667       0.00000000       0.00000000      -0.36665559
2
Properties=species:S:1:pos:R:3:forces:R:3 energy=-0.6346856780486145 pbc="F F F"
Sr       0.00000000       0.00000000       0.00000000       0.00000000       0.00000000       0.38226548
Sr       0.00000000       0.00000000       4.76545455       0.00000000       0.00000000      -0.38226548
2
Properties=species:S:1:pos:R:3:forces:R:3 energy=-0.6119342550498594 pbc="F F F"
Sr       0.00000000       0.00000000       0.00000000       0.00000000       0.00000000       0.39064217
Sr       0.00000000       0.00000000       4.82424242       0.00000000       0.00000000      -0.39064217
2
Properties=species:S:1:pos:R:3:forces:R:3 energy=-0.5888749562832326 pbc="F F F"
Sr       0.00000000       0.00000000       0.00000000       0.00000000       0.00000000       0.39300257
Sr       0.00000000       0.00000000       4.88303030       0.00000000       0.00000000      -0.39300257
2
Properties=species:S:1:pos:R:3:forces:R:3 energy=-0.5658273079999815 pbc="F F F"
Sr       0.00000000       0.00000000       0.00000000       0.00000000       0.00000000       0.39023590
Sr       0.00000000       0.00000000       4.94181818       0.00000000       0.00000000      -0.39023590
2
Properties=species:S:1:pos:R:3:forces:R:3 energy=-0.5430798993894096 pbc="F F F"
Sr       0.00000000       0.00000000       0.00000000       0.00000000       0.00000000       0.38290209
Sr       0.00000000       0.00000000       5.00060606       0.00000000       0.00000000      -0.38290209
2
Properties=species:S:1:pos:R:3:forces:R:3 energy=-0.5208813999012232 pbc="F F F"
Sr       0.00000000       0.00000000       0.00000000       0.00000000       0.00000000       0.37178537
Sr       0.00000000       0.00000000       5.05939394       0.00000000       0.00000000      -0.37178537
2
Properties=species:S:1:pos:R:3:forces:R:3 energy=-0.49939946983922834 pbc="F F F"
Sr       0.00000000       0.00000000       0.00000000       0.00000000       0.00000000       0.35908282
Sr       0.00000000       0.00000000       5.11818182       0.00000000       0.00000000      -0.35908282
2
Properties=species:S:1:pos:R:3:forces:R:3 energy=-0.47860927061389463 pbc="F F F"
Sr       0.00000000       0.00000000       0.00000000       0.00000000       0.00000000       0.34915501
Sr       0.00000000       0.00000000       5.17696970       0.00000000       0.00000000      -0.34915501
2
Properties=species:S:1:pos:R:3:forces:R:3 energy=-0.45820543091028915 pbc="F F F"
Sr       0.00000000       0.00000000       0.00000000       0.00000000       0.00000000       0.34638959
Sr       0.00000000       0.00000000       5.23575758       0.00000000       0.00000000      -0.34638959
2
Properties=species:S:1:pos:R:3:forces:R:3 energy=-0.43775598637096175 pbc="F F F"
Sr       0.00000000       0.00000000       0.00000000       0.00000000       0.00000000       0.34979919
Sr       0.00000000       0.00000000       5.29454545       0.00000000       0.00000000      -0.34979919
2
Properties=species:S:1:pos:R:3:forces:R:3 energy=-0.4171429355406451 pbc="F F F"
Sr       0.00000000       0.00000000       0.00000000       0.00000000       0.00000000       0.34971434
Sr       0.00000000       0.00000000       5.35333333       0.00000000       0.00000000      -0.34971434
2
Properties=species:S:1:pos:R:3:forces:R:3 energy=-0.3969331778337988 pbc="F F F"
Sr       0.00000000       0.00000000       0.00000000       0.00000000       0.00000000       0.33498186
Sr       0.00000000       0.00000000       5.41212121       0.00000000       0.00000000      -0.33498186
2
Properties=species:S:1:pos:R:3:forces:R:3 energy=-0.37798349405086606 pbc="F F F"
Sr       0.00000000       0.00000000       0.00000000       0.00000000       0.00000000       0.30953363
Sr       0.00000000       0.00000000       5.47090909       0.00000000       0.00000000      -0.30953363
2
Properties=species:S:1:pos:R:3:forces:R:3 energy=-0.3602391065609889 pbc="F F F"
Sr       0.00000000       0.00000000       0.00000000       0.00000000       0.00000000       0.29971403
Sr       0.00000000       0.00000000       5.52969697       0.00000000       0.00000000      -0.29971403
2
Properties=species:S:1:pos:R:3:forces:R:3 energy=-0.3417727294671408 pbc="F F F"
Sr       0.00000000       0.00000000       0.00000000       0.00000000       0.00000000       0.33856687
Sr       0.00000000       0.00000000       5.58848485       0.00000000       0.00000000      -0.33856687
2
Properties=species:S:1:pos:R:3:forces:R:3 energy=-0.3193228605950293 pbc="F F F"
Sr       0.00000000       0.00000000       0.00000000       0.00000000       0.00000000       0.43197030
Sr       0.00000000       0.00000000       5.64727273       0.00000000       0.00000000      -0.43197030
2
Properties=species:S:1:pos:R:3:forces:R:3 energy=-0.2908861237286693 pbc="F F F"
Sr       0.00000000       0.00000000       0.00000000       0.00000000       0.00000000       0.52942413
Sr       0.00000000       0.00000000       5.70606061       0.00000000       0.00000000      -0.52942413
2
Properties=species:S:1:pos:R:3:forces:R:3 energy=-0.25865598702804504 pbc="F F F"
Sr       0.00000000       0.00000000       0.00000000       0.00000000       0.00000000       0.54521471
Sr       0.00000000       0.00000000       5.76484848       0.00000000       0.00000000      -0.54521471
2
Properties=species:S:1:pos:R:3:forces:R:3 energy=-0.22927553294836722 pbc="F F F"
Sr       0.00000000       0.00000000       0.00000000       0.00000000       0.00000000       0.43679550
Sr       0.00000000       0.00000000       5.82363636       0.00000000       0.00000000      -0.43679550
2
Properties=species:S:1:pos:R:3:forces:R:3 energy=-0.20883710902634228 pbc="F F F"
Sr       0.00000000       0.00000000       0.00000000       0.00000000       0.00000000       0.25602621
Sr       0.00000000       0.00000000       5.88242424       0.00000000       0.00000000      -0.25602621
2
Properties=species:S:1:pos:R:3:forces:R:3 energy=-0.19865859080195683 pbc="F F F"
Sr       0.00000000       0.00000000       0.00000000       0.00000000       0.00000000       0.10026859
Sr       0.00000000       0.00000000       5.94121212       0.00000000       0.00000000      -0.10026859
2
Properties=species:S:1:pos:R:3:forces:R:3 energy=-0.19511252475025537 pbc="F F F"
Sr       0.00000000       0.00000000       0.00000000       0.00000000       0.00000000       0.04012058
Sr       0.00000000       0.00000000       6.00000000       0.00000000       0.00000000      -0.04012058
