2
Properties=species:S:1:pos:R:3:forces:R:3 energy=7010.923489237887 pbc="F F F"
Tc       0.00000000       0.00000000       0.00000000       0.00000000       0.00000000 -114828.11718750
Tc       0.00000000       0.00000000       0.18000000       0.00000000       0.00000000  114828.11718750
2
Properties=species:S:1:pos:R:3:forces:R:3 energy=2908.1412626753877 pbc="F F F"
Tc       0.00000000       0.00000000       0.00000000       0.00000000       0.00000000  -40061.58593750
Tc       0.00000000       0.00000000       0.23878788       0.00000000       0.00000000   40061.58593750
2
Properties=species:S:1:pos:R:3:forces:R:3 energy=1363.986355448825 pbc="F F F"
Tc       0.00000000       0.00000000       0.00000000       0.00000000       0.00000000  -16472.33007812
Tc       0.00000000       0.00000000       0.29757576       0.00000000       0.00000000   16472.33007812
2
Properties=species:S:1:pos:R:3:forces:R:3 energy=698.0394560410982 pbc="F F F"
Tc       0.00000000       0.00000000       0.00000000       0.00000000       0.00000000   -7501.63232422
Tc       0.00000000       0.00000000       0.35636364       0.00000000       0.00000000    7501.63232422
2
Properties=species:S:1:pos:R:3:forces:R:3 energy=384.8676726001682 pbc="F F F"
Tc       0.00000000       0.00000000       0.00000000       0.00000000       0.00000000   -3659.37353516
Tc       0.00000000       0.00000000       0.41515152       0.00000000       0.00000000    3659.37353516
2
Properties=species:S:1:pos:R:3:forces:R:3 energy=228.5194365415264 pbc="F F F"
Tc       0.00000000       0.00000000       0.00000000       0.00000000       0.00000000   -1875.40197754
Tc       0.00000000       0.00000000       0.47393939       0.00000000       0.00000000    1875.40197754
2
Properties=species:S:1:pos:R:3:forces:R:3 energy=147.06948540766527 pbc="F F F"
Tc       0.00000000       0.00000000       0.00000000       0.00000000       0.00000000    -993.98748779
Tc       0.00000000       0.00000000       0.53272727       0.00000000       0.00000000     993.98748779
2
Properties=species:S:1:pos:R:3:forces:R:3 energy=103.55126648955238 pbc="F F F"
Tc       0.00000000       0.00000000       0.00000000       0.00000000       0.00000000    -534.04656982
Tc       0.00000000       0.00000000       0.59151515       0.00000000       0.00000000     534.04656982
2
Properties=species:S:1:pos:R:3:forces:R:3 energy=80.24300091122318 pbc="F F F"
Tc       0.00000000       0.00000000       0.00000000       0.00000000       0.00000000    -283.57797241
Tc       0.00000000       0.00000000       0.65030303       0.00000000       0.00000000     283.57797241
2
Properties=species:S:1:pos:R:3:forces:R:3 energy=68.05177032103109 pbc="F F F"
Tc       0.00000000       0.00000000       0.00000000       0.00000000       0.00000000    -144.53463745
Tc       0.00000000       0.00000000       0.70909091       0.00000000       0.00000000     144.53463745
2
Properties=species:S:1:pos:R:3:forces:R:3 energy=62.09487667256535 pbc="F F F"
Tc       0.00000000       0.00000000       0.00000000       0.00000000       0.00000000     -65.28357697
Tc       0.00000000       0.00000000       0.76787879       0.00000000       0.00000000      65.28357697
2
Properties=species:S:1:pos:R:3:forces:R:3 energy=59.70863134417188 pbc="F F F"
Tc       0.00000000       0.00000000       0.00000000       0.00000000       0.00000000     -20.65102196
Tc       0.00000000       0.00000000       0.82666667       0.00000000       0.00000000      20.65102196
2
Properties=species:S:1:pos:R:3:forces:R:3 energy=59.159643584765995 pbc="F F F"
Tc       0.00000000       0.00000000       0.00000000       0.00000000       0.00000000      -2.04631209
Tc       0.00000000       0.00000000       0.88545455       0.00000000       0.00000000       2.04631209
2
Properties=species:S:1:pos:R:3:forces:R:3 energy=59.02181938352143 pbc="F F F"
Tc       0.00000000       0.00000000       0.00000000       0.00000000       0.00000000      -6.16155195
Tc       0.00000000       0.00000000       0.94424242       0.00000000       0.00000000       6.16155195
2
Properties=species:S:1:pos:R:3:forces:R:3 energy=58.07218976762579 pbc="F F F"
Tc       0.00000000       0.00000000       0.00000000       0.00000000       0.00000000     -28.69924545
Tc       0.00000000       0.00000000       1.00303030       0.00000000       0.00000000      28.69924545
2
Properties=species:S:1:pos:R:3:forces:R:3 energy=55.42154505945668 pbc="F F F"
Tc       0.00000000       0.00000000       0.00000000       0.00000000       0.00000000     -62.73324203
Tc       0.00000000       0.00000000       1.06181818       0.00000000       0.00000000      62.73324203
2
Properties=species:S:1:pos:R:3:forces:R:3 energy=50.63290799291677 pbc="F F F"
Tc       0.00000000       0.00000000       0.00000000       0.00000000       0.00000000     -99.96470642
Tc       0.00000000       0.00000000       1.12060606       0.00000000       0.00000000      99.96470642
2
Properties=species:S:1:pos:R:3:forces:R:3 energy=43.7855213946821 pbc="F F F"
Tc       0.00000000       0.00000000       0.00000000       0.00000000       0.00000000    -131.21531677
Tc       0.00000000       0.00000000       1.17939394       0.00000000       0.00000000     131.21531677
2
Properties=species:S:1:pos:R:3:forces:R:3 energy=35.48891299202748 pbc="F F F"
Tc       0.00000000       0.00000000       0.00000000       0.00000000       0.00000000    -148.18327332
Tc       0.00000000       0.00000000       1.23818182       0.00000000       0.00000000     148.18327332
2
Properties=species:S:1:pos:R:3:forces:R:3 energy=26.69678018594773 pbc="F F F"
Tc       0.00000000       0.00000000       0.00000000       0.00000000       0.00000000    -148.44026184
Tc       0.00000000       0.00000000       1.29696970       0.00000000       0.00000000     148.44026184
2
Properties=species:S:1:pos:R:3:forces:R:3 energy=18.25467751198317 pbc="F F F"
Tc       0.00000000       0.00000000       0.00000000       0.00000000       0.00000000    -137.49699402
Tc       0.00000000       0.00000000       1.35575758       0.00000000       0.00000000     137.49699402
2
Properties=species:S:1:pos:R:3:forces:R:3 energy=10.6415671744753 pbc="F F F"
Tc       0.00000000       0.00000000       0.00000000       0.00000000       0.00000000    -120.69390106
Tc       0.00000000       0.00000000       1.41454545       0.00000000       0.00000000     120.69390106
2
Properties=species:S:1:pos:R:3:forces:R:3 energy=4.161022081574005 pbc="F F F"
Tc       0.00000000       0.00000000       0.00000000       0.00000000       0.00000000     -98.97166443
Tc       0.00000000       0.00000000       1.47333333       0.00000000       0.00000000      98.97166443
2
Properties=species:S:1:pos:R:3:forces:R:3 energy=-0.9299970516045585 pbc="F F F"
Tc       0.00000000       0.00000000       0.00000000       0.00000000       0.00000000     -74.12612152
Tc       0.00000000       0.00000000       1.53212121       0.00000000       0.00000000      74.12612152
2
Properties=species:S:1:pos:R:3:forces:R:3 energy=-4.604807480731452 pbc="F F F"
Tc       0.00000000       0.00000000       0.00000000       0.00000000       0.00000000     -51.69456100
Tc       0.00000000       0.00000000       1.59090909       0.00000000       0.00000000      51.69456100
2
Properties=species:S:1:pos:R:3:forces:R:3 energy=-7.106027844289258 pbc="F F F"
Tc       0.00000000       0.00000000       0.00000000       0.00000000       0.00000000     -34.13903046
Tc       0.00000000       0.00000000       1.64969697       0.00000000       0.00000000      34.13903046
2
Properties=species:S:1:pos:R:3:forces:R:3 energy=-8.69880445012013 pbc="F F F"
Tc       0.00000000       0.00000000       0.00000000       0.00000000       0.00000000     -20.74139977
Tc       0.00000000       0.00000000       1.70848485       0.00000000       0.00000000      20.74139977
2
Properties=species:S:1:pos:R:3:forces:R:3 energy=-9.629889562003385 pbc="F F F"
Tc       0.00000000       0.00000000       0.00000000       0.00000000       0.00000000     -11.64428616
Tc       0.00000000       0.00000000       1.76727273       0.00000000       0.00000000      11.64428616
2
Properties=species:S:1:pos:R:3:forces:R:3 energy=-10.140776978572335 pbc="F F F"
Tc       0.00000000       0.00000000       0.00000000       0.00000000       0.00000000      -6.24076843
Tc       0.00000000       0.00000000       1.82606061       0.00000000       0.00000000       6.24076843
2
Properties=species:S:1:pos:R:3:forces:R:3 energy=-10.409314213610198 pbc="F F F"
Tc       0.00000000       0.00000000       0.00000000       0.00000000       0.00000000      -3.18142986
Tc       0.00000000       0.00000000       1.88484848       0.00000000       0.00000000       3.18142986
2
Properties=species:S:1:pos:R:3:forces:R:3 energy=-10.53940974257889 pbc="F F F"
Tc       0.00000000       0.00000000       0.00000000       0.00000000       0.00000000      -1.39039111
Tc       0.00000000       0.00000000       1.94363636       0.00000000       0.00000000       1.39039111
2
Properties=species:S:1:pos:R:3:forces:R:3 energy=-10.58443163005525 pbc="F F F"
Tc       0.00000000       0.00000000       0.00000000       0.00000000       0.00000000      -0.20203714
Tc       0.00000000       0.00000000       2.00242424       0.00000000       0.00000000       0.20203714
2
Properties=species:S:1:pos:R:3:forces:R:3 energy=-10.567204514922237 pbc="F F F"
Tc       0.00000000       0.00000000       0.00000000       0.00000000       0.00000000       0.77255946
Tc       0.00000000       0.00000000       2.06121212       0.00000000       0.00000000      -0.77255946
2
Properties=species:S:1:pos:R:3:forces:R:3 energy=-10.494362133070467 pbc="F F F"
Tc       0.00000000       0.00000000       0.00000000       0.00000000       0.00000000       1.70345342
Tc       0.00000000       0.00000000       2.12000000       0.00000000       0.00000000      -1.70345342
2
Properties=species:S:1:pos:R:3:forces:R:3 energy=-10.367060834320254 pbc="F F F"
Tc       0.00000000       0.00000000       0.00000000       0.00000000       0.00000000       2.62670922
Tc       0.00000000       0.00000000       2.17878788       0.00000000       0.00000000      -2.62670922
2
Properties=species:S:1:pos:R:3:forces:R:3 energy=-10.18557392879196 pbc="F F F"
Tc       0.00000000       0.00000000       0.00000000       0.00000000       0.00000000       3.54728007
Tc       0.00000000       0.00000000       2.23757576       0.00000000       0.00000000      -3.54728007
2
Properties=species:S:1:pos:R:3:forces:R:3 energy=-9.950196118298692 pbc="F F F"
Tc       0.00000000       0.00000000       0.00000000       0.00000000       0.00000000       4.45550823
Tc       0.00000000       0.00000000       2.29636364       0.00000000       0.00000000      -4.45550823
2
Properties=species:S:1:pos:R:3:forces:R:3 energy=-9.662971528225643 pbc="F F F"
Tc       0.00000000       0.00000000       0.00000000       0.00000000       0.00000000       5.29771614
Tc       0.00000000       0.00000000       2.35515152       0.00000000       0.00000000      -5.29771614
2
Properties=species:S:1:pos:R:3:forces:R:3 energy=-9.33064504014862 pbc="F F F"
Tc       0.00000000       0.00000000       0.00000000       0.00000000       0.00000000       5.96889544
Tc       0.00000000       0.00000000       2.41393939       0.00000000       0.00000000      -5.96889544
2
Properties=species:S:1:pos:R:3:forces:R:3 energy=-8.967131739195302 pbc="F F F"
Tc       0.00000000       0.00000000       0.00000000       0.00000000       0.00000000       6.33648491
Tc       0.00000000       0.00000000       2.47272727       0.00000000       0.00000000      -6.33648491
2
Properties=species:S:1:pos:R:3:forces:R:3 energy=-8.593925567652933 pbc="F F F"
Tc       0.00000000       0.00000000       0.00000000       0.00000000       0.00000000       6.28273964
Tc       0.00000000       0.00000000       2.53151515       0.00000000       0.00000000      -6.28273964
2
Properties=species:S:1:pos:R:3:forces:R:3 energy=-8.237888270045651 pbc="F F F"
Tc       0.00000000       0.00000000       0.00000000       0.00000000       0.00000000       5.74966717
Tc       0.00000000       0.00000000       2.59030303       0.00000000       0.00000000      -5.74966717
2
Properties=species:S:1:pos:R:3:forces:R:3 energy=-7.9267595556437485 pbc="F F F"
Tc       0.00000000       0.00000000       0.00000000       0.00000000       0.00000000       4.76769781
Tc       0.00000000       0.00000000       2.64909091       0.00000000       0.00000000      -4.76769781
2
Properties=species:S:1:pos:R:3:forces:R:3 energy=-7.6838505166124405 pbc="F F F"
Tc       0.00000000       0.00000000       0.00000000       0.00000000       0.00000000       3.45474005
Tc       0.00000000       0.00000000       2.70787879       0.00000000       0.00000000      -3.45474005
2
Properties=species:S:1:pos:R:3:forces:R:3 energy=-7.523488100876254 pbc="F F F"
Tc       0.00000000       0.00000000       0.00000000       0.00000000       0.00000000       1.99413514
Tc       0.00000000       0.00000000       2.76666667       0.00000000       0.00000000      -1.99413514
2
Properties=species:S:1:pos:R:3:forces:R:3 energy=-7.447867434138592 pbc="F F F"
Tc       0.00000000       0.00000000       0.00000000       0.00000000       0.00000000       0.61115736
Tc       0.00000000       0.00000000       2.82545455       0.00000000       0.00000000      -0.61115736
2
Properties=species:S:1:pos:R:3:forces:R:3 energy=-7.445850667414279 pbc="F F F"
Tc       0.00000000       0.00000000       0.00000000       0.00000000       0.00000000      -0.48126230
Tc       0.00000000       0.00000000       2.88424242       0.00000000       0.00000000       0.48126230
2
Properties=species:S:1:pos:R:3:forces:R:3 energy=-7.496709339560097 pbc="F F F"
Tc       0.00000000       0.00000000       0.00000000       0.00000000       0.00000000      -1.18257391
Tc       0.00000000       0.00000000       2.94303030       0.00000000       0.00000000       1.18257391
2
Properties=species:S:1:pos:R:3:forces:R:3 energy=-7.577442573745513 pbc="F F F"
Tc       0.00000000       0.00000000       0.00000000       0.00000000       0.00000000      -1.50497234
Tc       0.00000000       0.00000000       3.00181818       0.00000000       0.00000000       1.50497234
2
Properties=species:S:1:pos:R:3:forces:R:3 energy=-7.6674114537937 pbc="F F F"
Tc       0.00000000       0.00000000       0.00000000       0.00000000       0.00000000      -1.50984156
Tc       0.00000000       0.00000000       3.06060606       0.00000000       0.00000000       1.50984156
2
Properties=species:S:1:pos:R:3:forces:R:3 energy=-7.750526661541268 pbc="F F F"
Tc       0.00000000       0.00000000       0.00000000       0.00000000       0.00000000      -1.28862214
Tc       0.00000000       0.00000000       3.11939394       0.00000000       0.00000000       1.28862214
2
Properties=species:S:1:pos:R:3:forces:R:3 energy=-7.816463672829986 pbc="F F F"
Tc       0.00000000       0.00000000       0.00000000       0.00000000       0.00000000      -0.94134277
Tc       0.00000000       0.00000000       3.17818182       0.00000000       0.00000000       0.94134277
2
Properties=species:S:1:pos:R:3:forces:R:3 energy=-7.860408523661292 pbc="F F F"
Tc       0.00000000       0.00000000       0.00000000       0.00000000       0.00000000      -0.55247217
Tc       0.00000000       0.00000000       3.23696970       0.00000000       0.00000000       0.55247217
2
Properties=species:S:1:pos:R:3:forces:R:3 energy=-7.881774093173094 pbc="F F F"
Tc       0.00000000       0.00000000       0.00000000       0.00000000       0.00000000      -0.18078041
Tc       0.00000000       0.00000000       3.29575758       0.00000000       0.00000000       0.18078041
2
Properties=species:S:1:pos:R:3:forces:R:3 energy=-7.882681908024181 pbc="F F F"
Tc       0.00000000       0.00000000       0.00000000       0.00000000       0.00000000       0.13962749
Tc       0.00000000       0.00000000       3.35454545       0.00000000       0.00000000      -0.13962749
2
Properties=species:S:1:pos:R:3:forces:R:3 energy=-7.866659300088806 pbc="F F F"
Tc       0.00000000       0.00000000       0.00000000       0.00000000       0.00000000       0.39404261
Tc       0.00000000       0.00000000       3.41333333       0.00000000       0.00000000      -0.39404261
2
Properties=species:S:1:pos:R:3:forces:R:3 energy=-7.837676819683265 pbc="F F F"
Tc       0.00000000       0.00000000       0.00000000       0.00000000       0.00000000       0.58109510
Tc       0.00000000       0.00000000       3.47212121       0.00000000       0.00000000      -0.58109510
2
Properties=species:S:1:pos:R:3:forces:R:3 energy=-7.799533633171118 pbc="F F F"
Tc       0.00000000       0.00000000       0.00000000       0.00000000       0.00000000       0.70717859
Tc       0.00000000       0.00000000       3.53090909       0.00000000       0.00000000      -0.70717859
2
Properties=species:S:1:pos:R:3:forces:R:3 energy=-7.755532010918851 pbc="F F F"
Tc       0.00000000       0.00000000       0.00000000       0.00000000       0.00000000       0.78212208
Tc       0.00000000       0.00000000       3.58969697       0.00000000       0.00000000      -0.78212208
2
Properties=species:S:1:pos:R:3:forces:R:3 energy=-7.708368625766912 pbc="F F F"
Tc       0.00000000       0.00000000       0.00000000       0.00000000       0.00000000       0.81652188
Tc       0.00000000       0.00000000       3.64848485       0.00000000       0.00000000      -0.81652188
2
Properties=species:S:1:pos:R:3:forces:R:3 energy=-7.660124685169199 pbc="F F F"
Tc       0.00000000       0.00000000       0.00000000       0.00000000       0.00000000       0.82051808
Tc       0.00000000       0.00000000       3.70727273       0.00000000       0.00000000      -0.82051808
2
Properties=species:S:1:pos:R:3:forces:R:3 energy=-7.612311172038462 pbc="F F F"
Tc       0.00000000       0.00000000       0.00000000       0.00000000       0.00000000       0.80324322
Tc       0.00000000       0.00000000       3.76606061       0.00000000       0.00000000      -0.80324322
2
Properties=species:S:1:pos:R:3:forces:R:3 energy=-7.5659472884585615 pbc="F F F"
Tc       0.00000000       0.00000000       0.00000000       0.00000000       0.00000000       0.77240682
Tc       0.00000000       0.00000000       3.82484848       0.00000000       0.00000000      -0.77240682
2
Properties=species:S:1:pos:R:3:forces:R:3 energy=-7.521643341322788 pbc="F F F"
Tc       0.00000000       0.00000000       0.00000000       0.00000000       0.00000000       0.73393279
Tc       0.00000000       0.00000000       3.88363636       0.00000000       0.00000000      -0.73393279
2
Properties=species:S:1:pos:R:3:forces:R:3 energy=-7.4797223358092015 pbc="F F F"
Tc       0.00000000       0.00000000       0.00000000       0.00000000       0.00000000       0.69191957
Tc       0.00000000       0.00000000       3.94242424       0.00000000       0.00000000      -0.69191957
2
Properties=species:S:1:pos:R:3:forces:R:3 energy=-7.440310034247091 pbc="F F F"
Tc       0.00000000       0.00000000       0.00000000       0.00000000       0.00000000       0.64890665
Tc       0.00000000       0.00000000       4.00121212       0.00000000       0.00000000      -0.64890665
2
Properties=species:S:1:pos:R:3:forces:R:3 energy=-7.403417086149781 pbc="F F F"
Tc       0.00000000       0.00000000       0.00000000       0.00000000       0.00000000       0.60637283
Tc       0.00000000       0.00000000       4.06000000       0.00000000       0.00000000      -0.60637283
2
Properties=species:S:1:pos:R:3:forces:R:3 energy=-7.3689881234349945 pbc="F F F"
Tc       0.00000000       0.00000000       0.00000000       0.00000000       0.00000000       0.56521893
Tc       0.00000000       0.00000000       4.11878788       0.00000000       0.00000000      -0.56521893
2
Properties=species:S:1:pos:R:3:forces:R:3 energy=-7.336919835887354 pbc="F F F"
Tc       0.00000000       0.00000000       0.00000000       0.00000000       0.00000000       0.52614892
Tc       0.00000000       0.00000000       4.17757576       0.00000000       0.00000000      -0.52614892
2
Properties=species:S:1:pos:R:3:forces:R:3 energy=-7.307070305160929 pbc="F F F"
Tc       0.00000000       0.00000000       0.00000000       0.00000000       0.00000000       0.48989210
Tc       0.00000000       0.00000000       4.23636364       0.00000000       0.00000000      -0.48989210
2
Properties=species:S:1:pos:R:3:forces:R:3 energy=-7.279249932201941 pbc="F F F"
Tc       0.00000000       0.00000000       0.00000000       0.00000000       0.00000000       0.45722395
Tc       0.00000000       0.00000000       4.29515152       0.00000000       0.00000000      -0.45722395
2
Properties=species:S:1:pos:R:3:forces:R:3 energy=-7.25322756643973 pbc="F F F"
Tc       0.00000000       0.00000000       0.00000000       0.00000000       0.00000000       0.42884549
Tc       0.00000000       0.00000000       4.35393939       0.00000000       0.00000000      -0.42884549
2
Properties=species:S:1:pos:R:3:forces:R:3 energy=-7.228737259198544 pbc="F F F"
Tc       0.00000000       0.00000000       0.00000000       0.00000000       0.00000000       0.40512204
Tc       0.00000000       0.00000000       4.41272727       0.00000000       0.00000000      -0.40512204
2
Properties=species:S:1:pos:R:3:forces:R:3 energy=-7.205507281072095 pbc="F F F"
Tc       0.00000000       0.00000000       0.00000000       0.00000000       0.00000000       0.38587046
Tc       0.00000000       0.00000000       4.47151515       0.00000000       0.00000000      -0.38587046
2
Properties=species:S:1:pos:R:3:forces:R:3 energy=-7.183296152471327 pbc="F F F"
Tc       0.00000000       0.00000000       0.00000000       0.00000000       0.00000000       0.37024438
Tc       0.00000000       0.00000000       4.53030303       0.00000000       0.00000000      -0.37024438
2
Properties=species:S:1:pos:R:3:forces:R:3 energy=-7.161931535195118 pbc="F F F"
Tc       0.00000000       0.00000000       0.00000000       0.00000000       0.00000000       0.35683292
Tc       0.00000000       0.00000000       4.58909091       0.00000000       0.00000000      -0.35683292
2
Properties=species:S:1:pos:R:3:forces:R:3 energy=-7.141331843821708 pbc="F F F"
Tc       0.00000000       0.00000000       0.00000000       0.00000000       0.00000000       0.34394449
Tc       0.00000000       0.00000000       4.64787879       0.00000000       0.00000000      -0.34394449
2
Properties=species:S:1:pos:R:3:forces:R:3 energy=-7.1215134172729995 pbc="F F F"
Tc       0.00000000       0.00000000       0.00000000       0.00000000       0.00000000       0.32997528
Tc       0.00000000       0.00000000       4.70666667       0.00000000       0.00000000      -0.32997528
2
Properties=species:S:1:pos:R:3:forces:R:3 energy=-7.102578631227661 pbc="F F F"
Tc       0.00000000       0.00000000       0.00000000       0.00000000       0.00000000       0.31377584
Tc       0.00000000       0.00000000       4.76545455       0.00000000       0.00000000      -0.31377584
2
Properties=species:S:1:pos:R:3:forces:R:3 energy=-7.084675004167117 pbc="F F F"
Tc       0.00000000       0.00000000       0.00000000       0.00000000       0.00000000       0.29483938
Tc       0.00000000       0.00000000       4.82424242       0.00000000       0.00000000      -0.29483938
2
Properties=species:S:1:pos:R:3:forces:R:3 energy=-7.067964432707302 pbc="F F F"
Tc       0.00000000       0.00000000       0.00000000       0.00000000       0.00000000       0.27332753
Tc       0.00000000       0.00000000       4.88303030       0.00000000       0.00000000      -0.27332753
2
Properties=species:S:1:pos:R:3:forces:R:3 energy=-7.052576773667554 pbc="F F F"
Tc       0.00000000       0.00000000       0.00000000       0.00000000       0.00000000       0.24986947
Tc       0.00000000       0.00000000       4.94181818       0.00000000       0.00000000      -0.24986947
2
Properties=species:S:1:pos:R:3:forces:R:3 energy=-7.038606073722866 pbc="F F F"
Tc       0.00000000       0.00000000       0.00000000       0.00000000       0.00000000       0.22530246
Tc       0.00000000       0.00000000       5.00060606       0.00000000       0.00000000      -0.22530246
2
Properties=species:S:1:pos:R:3:forces:R:3 energy=-7.026091076101194 pbc="F F F"
Tc       0.00000000       0.00000000       0.00000000       0.00000000       0.00000000       0.20050499
Tc       0.00000000       0.00000000       5.05939394       0.00000000       0.00000000      -0.20050499
2
Properties=species:S:1:pos:R:3:forces:R:3 energy=-7.015013123165498 pbc="F F F"
Tc       0.00000000       0.00000000       0.00000000       0.00000000       0.00000000       0.17665902
Tc       0.00000000       0.00000000       5.11818182       0.00000000       0.00000000      -0.17665902
2
Properties=species:S:1:pos:R:3:forces:R:3 energy=-7.005262424520573 pbc="F F F"
Tc       0.00000000       0.00000000       0.00000000       0.00000000       0.00000000       0.15581127
Tc       0.00000000       0.00000000       5.17696970       0.00000000       0.00000000      -0.15581127
2
Properties=species:S:1:pos:R:3:forces:R:3 energy=-6.996582842105182 pbc="F F F"
Tc       0.00000000       0.00000000       0.00000000       0.00000000       0.00000000       0.14060697
Tc       0.00000000       0.00000000       5.23575758       0.00000000       0.00000000      -0.14060697
2
Properties=species:S:1:pos:R:3:forces:R:3 energy=-6.988601419249823 pbc="F F F"
Tc       0.00000000       0.00000000       0.00000000       0.00000000       0.00000000       0.13182855
Tc       0.00000000       0.00000000       5.29454545       0.00000000       0.00000000      -0.13182855
2
Properties=species:S:1:pos:R:3:forces:R:3 energy=-6.981025008648306 pbc="F F F"
Tc       0.00000000       0.00000000       0.00000000       0.00000000       0.00000000       0.12591220
Tc       0.00000000       0.00000000       5.35333333       0.00000000       0.00000000      -0.12591220
2
Properties=species:S:1:pos:R:3:forces:R:3 energy=-6.9738438374747895 pbc="F F F"
Tc       0.00000000       0.00000000       0.00000000       0.00000000       0.00000000       0.11775910
Tc       0.00000000       0.00000000       5.41212121       0.00000000       0.00000000      -0.11775910
2
Properties=species:S:1:pos:R:3:forces:R:3 energy=-6.967235408025382 pbc="F F F"
Tc       0.00000000       0.00000000       0.00000000       0.00000000       0.00000000       0.10697538
Tc       0.00000000       0.00000000       5.47090909       0.00000000       0.00000000      -0.10697538
2
Properties=species:S:1:pos:R:3:forces:R:3 energy=-6.961209273042208 pbc="F F F"
Tc       0.00000000       0.00000000       0.00000000       0.00000000       0.00000000       0.09911999
Tc       0.00000000       0.00000000       5.52969697       0.00000000       0.00000000      -0.09911999
2
Properties=species:S:1:pos:R:3:forces:R:3 energy=-6.955400113729326 pbc="F F F"
Tc       0.00000000       0.00000000       0.00000000       0.00000000       0.00000000       0.10024966
Tc       0.00000000       0.00000000       5.58848485       0.00000000       0.00000000      -0.10024966
2
Properties=species:S:1:pos:R:3:forces:R:3 energy=-6.949263512252478 pbc="F F F"
Tc       0.00000000       0.00000000       0.00000000       0.00000000       0.00000000       0.10913286
Tc       0.00000000       0.00000000       5.64727273       0.00000000       0.00000000      -0.10913286
2
Properties=species:S:1:pos:R:3:forces:R:3 energy=-6.942631788642261 pbc="F F F"
Tc       0.00000000       0.00000000       0.00000000       0.00000000       0.00000000       0.11486931
Tc       0.00000000       0.00000000       5.70606061       0.00000000       0.00000000      -0.11486931
2
Properties=species:S:1:pos:R:3:forces:R:3 energy=-6.936041787494618 pbc="F F F"
Tc       0.00000000       0.00000000       0.00000000       0.00000000       0.00000000       0.10606368
Tc       0.00000000       0.00000000       5.76484848       0.00000000       0.00000000      -0.10606368
2
Properties=species:S:1:pos:R:3:forces:R:3 energy=-6.930472715736306 pbc="F F F"
Tc       0.00000000       0.00000000       0.00000000       0.00000000       0.00000000       0.08163744
Tc       0.00000000       0.00000000       5.82363636       0.00000000       0.00000000      -0.08163744
2
Properties=species:S:1:pos:R:3:forces:R:3 energy=-6.926569303618185 pbc="F F F"
Tc       0.00000000       0.00000000       0.00000000       0.00000000       0.00000000       0.05148411
Tc       0.00000000       0.00000000       5.88242424       0.00000000       0.00000000      -0.05148411
2
Properties=species:S:1:pos:R:3:forces:R:3 energy=-6.924290998286602 pbc="F F F"
Tc       0.00000000       0.00000000       0.00000000       0.00000000       0.00000000       0.02770516
Tc       0.00000000       0.00000000       5.94121212       0.00000000       0.00000000      -0.02770516
2
Properties=species:S:1:pos:R:3:forces:R:3 energy=-6.923024999532464 pbc="F F F"
Tc       0.00000000       0.00000000       0.00000000       0.00000000       0.00000000       0.01818999
Tc       0.00000000       0.00000000       6.00000000       0.00000000       0.00000000      -0.01818999
