2
Properties=species:S:1:pos:R:3:forces:R:3 energy=19296.758411663737 pbc="F F F"
Th       0.00000000       0.00000000       0.00000000       0.00000000       0.00000000 -345789.90625000
Th       0.00000000       0.00000000       0.18000000       0.00000000       0.00000000  345789.90625000
2
Properties=species:S:1:pos:R:3:forces:R:3 energy=7326.019642132486 pbc="F F F"
Th       0.00000000       0.00000000       0.00000000       0.00000000       0.00000000 -111709.75000000
Th       0.00000000       0.00000000       0.23878788       0.00000000       0.00000000  111709.75000000
2
Properties=species:S:1:pos:R:3:forces:R:3 energy=3162.2227671324863 pbc="F F F"
Th       0.00000000       0.00000000       0.00000000       0.00000000       0.00000000  -42404.60156250
Th       0.00000000       0.00000000       0.29757576       0.00000000       0.00000000   42404.60156250
2
Properties=species:S:1:pos:R:3:forces:R:3 energy=1506.811390179361 pbc="F F F"
Th       0.00000000       0.00000000       0.00000000       0.00000000       0.00000000  -17818.18359375
Th       0.00000000       0.00000000       0.35636364       0.00000000       0.00000000   17818.18359375
2
Properties=species:S:1:pos:R:3:forces:R:3 energy=787.1951182193761 pbc="F F F"
Th       0.00000000       0.00000000       0.00000000       0.00000000       0.00000000   -8073.46142578
Th       0.00000000       0.00000000       0.41515152       0.00000000       0.00000000    8073.46142578
2
Properties=species:S:1:pos:R:3:forces:R:3 energy=451.7941172428136 pbc="F F F"
Th       0.00000000       0.00000000       0.00000000       0.00000000       0.00000000   -3895.50048828
Th       0.00000000       0.00000000       0.47393939       0.00000000       0.00000000    3895.50048828
2
Properties=species:S:1:pos:R:3:forces:R:3 energy=285.88322858360993 pbc="F F F"
Th       0.00000000       0.00000000       0.00000000       0.00000000       0.00000000   -1985.82495117
Th       0.00000000       0.00000000       0.53272727       0.00000000       0.00000000    1985.82495117
2
Properties=species:S:1:pos:R:3:forces:R:3 energy=199.4326213091478 pbc="F F F"
Th       0.00000000       0.00000000       0.00000000       0.00000000       0.00000000   -1061.77062988
Th       0.00000000       0.00000000       0.59151515       0.00000000       0.00000000    1061.77062988
2
Properties=species:S:1:pos:R:3:forces:R:3 energy=152.35580861569233 pbc="F F F"
Th       0.00000000       0.00000000       0.00000000       0.00000000       0.00000000    -590.15222168
Th       0.00000000       0.00000000       0.65030303       0.00000000       0.00000000     590.15222168
2
Properties=species:S:1:pos:R:3:forces:R:3 energy=125.84993404525972 pbc="F F F"
Th       0.00000000       0.00000000       0.00000000       0.00000000       0.00000000    -336.46243286
Th       0.00000000       0.00000000       0.70909091       0.00000000       0.00000000     336.46243286
2
Properties=species:S:1:pos:R:3:forces:R:3 energy=110.68346838735268 pbc="F F F"
Th       0.00000000       0.00000000       0.00000000       0.00000000       0.00000000    -192.32312012
Th       0.00000000       0.00000000       0.76787879       0.00000000       0.00000000     192.32312012
2
Properties=species:S:1:pos:R:3:forces:R:3 energy=102.11964865415423 pbc="F F F"
Th       0.00000000       0.00000000       0.00000000       0.00000000       0.00000000    -106.09092712
Th       0.00000000       0.00000000       0.82666667       0.00000000       0.00000000     106.09092712
2
Properties=species:S:1:pos:R:3:forces:R:3 energy=97.55627150186633 pbc="F F F"
Th       0.00000000       0.00000000       0.00000000       0.00000000       0.00000000     -53.63205338
Th       0.00000000       0.00000000       0.88545455       0.00000000       0.00000000      53.63205338
2
Properties=species:S:1:pos:R:3:forces:R:3 energy=95.36761213800851 pbc="F F F"
Th       0.00000000       0.00000000       0.00000000       0.00000000       0.00000000     -24.06383324
Th       0.00000000       0.00000000       0.94424242       0.00000000       0.00000000      24.06383324
2
Properties=species:S:1:pos:R:3:forces:R:3 energy=94.40418787354385 pbc="F F F"
Th       0.00000000       0.00000000       0.00000000       0.00000000       0.00000000     -10.97494125
Th       0.00000000       0.00000000       1.00303030       0.00000000       0.00000000      10.97494125
2
Properties=species:S:1:pos:R:3:forces:R:3 energy=93.86180714445946 pbc="F F F"
Th       0.00000000       0.00000000       0.00000000       0.00000000       0.00000000      -8.96158886
Th       0.00000000       0.00000000       1.06181818       0.00000000       0.00000000       8.96158886
2
Properties=species:S:1:pos:R:3:forces:R:3 energy=93.19994265769049 pbc="F F F"
Th       0.00000000       0.00000000       0.00000000       0.00000000       0.00000000     -14.71491528
Th       0.00000000       0.00000000       1.12060606       0.00000000       0.00000000      14.71491528
2
Properties=species:S:1:pos:R:3:forces:R:3 energy=92.00220499859006 pbc="F F F"
Th       0.00000000       0.00000000       0.00000000       0.00000000       0.00000000     -27.08897400
Th       0.00000000       0.00000000       1.17939394       0.00000000       0.00000000      27.08897400
2
Properties=species:S:1:pos:R:3:forces:R:3 energy=89.89820235946891 pbc="F F F"
Th       0.00000000       0.00000000       0.00000000       0.00000000       0.00000000     -45.39397430
Th       0.00000000       0.00000000       1.23818182       0.00000000       0.00000000      45.39397430
2
Properties=species:S:1:pos:R:3:forces:R:3 energy=86.5747786884251 pbc="F F F"
Th       0.00000000       0.00000000       0.00000000       0.00000000       0.00000000     -68.26630402
Th       0.00000000       0.00000000       1.29696970       0.00000000       0.00000000      68.26630402
2
Properties=species:S:1:pos:R:3:forces:R:3 energy=81.82895400731115 pbc="F F F"
Th       0.00000000       0.00000000       0.00000000       0.00000000       0.00000000     -93.29032898
Th       0.00000000       0.00000000       1.35575758       0.00000000       0.00000000      93.29032898
2
Properties=species:S:1:pos:R:3:forces:R:3 energy=75.62758635299622 pbc="F F F"
Th       0.00000000       0.00000000       0.00000000       0.00000000       0.00000000    -117.22466278
Th       0.00000000       0.00000000       1.41454545       0.00000000       0.00000000     117.22466278
2
Properties=species:S:1:pos:R:3:forces:R:3 energy=68.12746746317715 pbc="F F F"
Th       0.00000000       0.00000000       0.00000000       0.00000000       0.00000000    -137.05618286
Th       0.00000000       0.00000000       1.47333333       0.00000000       0.00000000     137.05618286
2
Properties=species:S:1:pos:R:3:forces:R:3 energy=59.628585282878184 pbc="F F F"
Th       0.00000000       0.00000000       0.00000000       0.00000000       0.00000000    -151.05000305
Th       0.00000000       0.00000000       1.53212121       0.00000000       0.00000000     151.05000305
2
Properties=species:S:1:pos:R:3:forces:R:3 energy=50.48705718734734 pbc="F F F"
Th       0.00000000       0.00000000       0.00000000       0.00000000       0.00000000    -158.96600342
Th       0.00000000       0.00000000       1.59090909       0.00000000       0.00000000     158.96600342
2
Properties=species:S:1:pos:R:3:forces:R:3 energy=41.0581613564481 pbc="F F F"
Th       0.00000000       0.00000000       0.00000000       0.00000000       0.00000000    -160.63014221
Th       0.00000000       0.00000000       1.64969697       0.00000000       0.00000000     160.63014221
2
Properties=species:S:1:pos:R:3:forces:R:3 energy=31.77731894489745 pbc="F F F"
Th       0.00000000       0.00000000       0.00000000       0.00000000       0.00000000    -153.31747437
Th       0.00000000       0.00000000       1.70848485       0.00000000       0.00000000     153.31747437
2
Properties=species:S:1:pos:R:3:forces:R:3 energy=23.23570903680768 pbc="F F F"
Th       0.00000000       0.00000000       0.00000000       0.00000000       0.00000000    -135.87133789
Th       0.00000000       0.00000000       1.76727273       0.00000000       0.00000000     135.87133789
2
Properties=species:S:1:pos:R:3:forces:R:3 energy=15.917889991073322 pbc="F F F"
Th       0.00000000       0.00000000       0.00000000       0.00000000       0.00000000    -112.40801239
Th       0.00000000       0.00000000       1.82606061       0.00000000       0.00000000     112.40801239
2
Properties=species:S:1:pos:R:3:forces:R:3 energy=10.066053350474832 pbc="F F F"
Th       0.00000000       0.00000000       0.00000000       0.00000000       0.00000000     -86.68515778
Th       0.00000000       0.00000000       1.88484848       0.00000000       0.00000000      86.68515778
2
Properties=species:S:1:pos:R:3:forces:R:3 energy=5.661485442669717 pbc="F F F"
Th       0.00000000       0.00000000       0.00000000       0.00000000       0.00000000     -64.16282654
Th       0.00000000       0.00000000       1.94363636       0.00000000       0.00000000      64.16282654
2
Properties=species:S:1:pos:R:3:forces:R:3 energy=2.387097064806355 pbc="F F F"
Th       0.00000000       0.00000000       0.00000000       0.00000000       0.00000000     -48.32054520
Th       0.00000000       0.00000000       2.00242424       0.00000000       0.00000000      48.32054520
2
Properties=species:S:1:pos:R:3:forces:R:3 energy=-0.1213636633251416 pbc="F F F"
Th       0.00000000       0.00000000       0.00000000       0.00000000       0.00000000     -37.64863205
Th       0.00000000       0.00000000       2.06121212       0.00000000       0.00000000      37.64863205
2
Properties=species:S:1:pos:R:3:forces:R:3 energy=-2.0919986879792436 pbc="F F F"
Th       0.00000000       0.00000000       0.00000000       0.00000000       0.00000000     -29.70083046
Th       0.00000000       0.00000000       2.12000000       0.00000000       0.00000000      29.70083046
2
Properties=species:S:1:pos:R:3:forces:R:3 energy=-3.6393737599216287 pbc="F F F"
Th       0.00000000       0.00000000       0.00000000       0.00000000       0.00000000     -23.10328102
Th       0.00000000       0.00000000       2.17878788       0.00000000       0.00000000      23.10328102
2
Properties=species:S:1:pos:R:3:forces:R:3 energy=-4.824559210142195 pbc="F F F"
Th       0.00000000       0.00000000       0.00000000       0.00000000       0.00000000     -17.34819603
Th       0.00000000       0.00000000       2.23757576       0.00000000       0.00000000      17.34819603
2
Properties=species:S:1:pos:R:3:forces:R:3 energy=-5.6954499379653765 pbc="F F F"
Th       0.00000000       0.00000000       0.00000000       0.00000000       0.00000000     -12.43011570
Th       0.00000000       0.00000000       2.29636364       0.00000000       0.00000000      12.43011570
2
Properties=species:S:1:pos:R:3:forces:R:3 energy=-6.304422107643246 pbc="F F F"
Th       0.00000000       0.00000000       0.00000000       0.00000000       0.00000000      -8.44459343
Th       0.00000000       0.00000000       2.35515152       0.00000000       0.00000000       8.44459343
2
Properties=species:S:1:pos:R:3:forces:R:3 energy=-6.705754400332663 pbc="F F F"
Th       0.00000000       0.00000000       0.00000000       0.00000000       0.00000000      -5.34288502
Th       0.00000000       0.00000000       2.41393939       0.00000000       0.00000000       5.34288502
2
Properties=species:S:1:pos:R:3:forces:R:3 energy=-6.946179008968321 pbc="F F F"
Th       0.00000000       0.00000000       0.00000000       0.00000000       0.00000000      -2.93237233
Th       0.00000000       0.00000000       2.47272727       0.00000000       0.00000000       2.93237233
2
Properties=species:S:1:pos:R:3:forces:R:3 energy=-7.059741359039897 pbc="F F F"
Th       0.00000000       0.00000000       0.00000000       0.00000000       0.00000000      -0.99491447
Th       0.00000000       0.00000000       2.53151515       0.00000000       0.00000000       0.99491447
2
Properties=species:S:1:pos:R:3:forces:R:3 energy=-7.069564832229405 pbc="F F F"
Th       0.00000000       0.00000000       0.00000000       0.00000000       0.00000000       0.61193091
Th       0.00000000       0.00000000       2.59030303       0.00000000       0.00000000      -0.61193091
2
Properties=species:S:1:pos:R:3:forces:R:3 energy=-6.993388753166567 pbc="F F F"
Th       0.00000000       0.00000000       0.00000000       0.00000000       0.00000000       1.93116200
Th       0.00000000       0.00000000       2.64909091       0.00000000       0.00000000      -1.93116200
2
Properties=species:S:1:pos:R:3:forces:R:3 energy=-6.848491294263966 pbc="F F F"
Th       0.00000000       0.00000000       0.00000000       0.00000000       0.00000000       2.94479108
Th       0.00000000       0.00000000       2.70787879       0.00000000       0.00000000      -2.94479108
2
Properties=species:S:1:pos:R:3:forces:R:3 energy=-6.653708830396889 pbc="F F F"
Th       0.00000000       0.00000000       0.00000000       0.00000000       0.00000000       3.62458897
Th       0.00000000       0.00000000       2.76666667       0.00000000       0.00000000      -3.62458897
2
Properties=species:S:1:pos:R:3:forces:R:3 energy=-6.429076441699897 pbc="F F F"
Th       0.00000000       0.00000000       0.00000000       0.00000000       0.00000000       3.96106577
Th       0.00000000       0.00000000       2.82545455       0.00000000       0.00000000      -3.96106577
2
Properties=species:S:1:pos:R:3:forces:R:3 energy=-6.194272458085488 pbc="F F F"
Th       0.00000000       0.00000000       0.00000000       0.00000000       0.00000000       3.97810650
Th       0.00000000       0.00000000       2.88424242       0.00000000       0.00000000      -3.97810650
2
Properties=species:S:1:pos:R:3:forces:R:3 energy=-5.9663233659739285 pbc="F F F"
Th       0.00000000       0.00000000       0.00000000       0.00000000       0.00000000       3.74253154
Th       0.00000000       0.00000000       2.94303030       0.00000000       0.00000000      -3.74253154
2
Properties=species:S:1:pos:R:3:forces:R:3 energy=-5.757203021900719 pbc="F F F"
Th       0.00000000       0.00000000       0.00000000       0.00000000       0.00000000       3.35594559
Th       0.00000000       0.00000000       3.00181818       0.00000000       0.00000000      -3.35594559
2
Properties=species:S:1:pos:R:3:forces:R:3 energy=-5.572590002211034 pbc="F F F"
Th       0.00000000       0.00000000       0.00000000       0.00000000       0.00000000       2.92529845
Th       0.00000000       0.00000000       3.06060606       0.00000000       0.00000000      -2.92529845
2
Properties=species:S:1:pos:R:3:forces:R:3 energy=-5.412500340626075 pbc="F F F"
Th       0.00000000       0.00000000       0.00000000       0.00000000       0.00000000       2.53206539
Th       0.00000000       0.00000000       3.11939394       0.00000000       0.00000000      -2.53206539
2
Properties=species:S:1:pos:R:3:forces:R:3 energy=-5.273303068225645 pbc="F F F"
Th       0.00000000       0.00000000       0.00000000       0.00000000       0.00000000       2.21809840
Th       0.00000000       0.00000000       3.17818182       0.00000000       0.00000000      -2.21809840
2
Properties=species:S:1:pos:R:3:forces:R:3 energy=-5.150014855223726 pbc="F F F"
Th       0.00000000       0.00000000       0.00000000       0.00000000       0.00000000       1.98959649
Th       0.00000000       0.00000000       3.23696970       0.00000000       0.00000000      -1.98959649
2
Properties=species:S:1:pos:R:3:forces:R:3 energy=-5.037998880392852 pbc="F F F"
Th       0.00000000       0.00000000       0.00000000       0.00000000       0.00000000       1.83112454
Th       0.00000000       0.00000000       3.29575758       0.00000000       0.00000000      -1.83112454
2
Properties=species:S:1:pos:R:3:forces:R:3 energy=-4.933779872480363 pbc="F F F"
Th       0.00000000       0.00000000       0.00000000       0.00000000       0.00000000       1.72078836
Th       0.00000000       0.00000000       3.35454545       0.00000000       0.00000000      -1.72078836
2
Properties=species:S:1:pos:R:3:forces:R:3 energy=-4.835100148909878 pbc="F F F"
Th       0.00000000       0.00000000       0.00000000       0.00000000       0.00000000       1.64007330
Th       0.00000000       0.00000000       3.41333333       0.00000000       0.00000000      -1.64007330
2
Properties=species:S:1:pos:R:3:forces:R:3 energy=-4.740610954756281 pbc="F F F"
Th       0.00000000       0.00000000       0.00000000       0.00000000       0.00000000       1.57660365
Th       0.00000000       0.00000000       3.47212121       0.00000000       0.00000000      -1.57660365
2
Properties=species:S:1:pos:R:3:forces:R:3 energy=-4.649547846010777 pbc="F F F"
Th       0.00000000       0.00000000       0.00000000       0.00000000       0.00000000       1.52255559
Th       0.00000000       0.00000000       3.53090909       0.00000000       0.00000000      -1.52255559
2
Properties=species:S:1:pos:R:3:forces:R:3 energy=-4.561517434001385 pbc="F F F"
Th       0.00000000       0.00000000       0.00000000       0.00000000       0.00000000       1.47256279
Th       0.00000000       0.00000000       3.58969697       0.00000000       0.00000000      -1.47256279
2
Properties=species:S:1:pos:R:3:forces:R:3 energy=-4.476403157033132 pbc="F F F"
Th       0.00000000       0.00000000       0.00000000       0.00000000       0.00000000       1.42290473
Th       0.00000000       0.00000000       3.64848485       0.00000000       0.00000000      -1.42290473
2
Properties=species:S:1:pos:R:3:forces:R:3 energy=-4.394252523407334 pbc="F F F"
Th       0.00000000       0.00000000       0.00000000       0.00000000       0.00000000       1.37161505
Th       0.00000000       0.00000000       3.70727273       0.00000000       0.00000000      -1.37161505
2
Properties=species:S:1:pos:R:3:forces:R:3 energy=-4.315167312162322 pbc="F F F"
Th       0.00000000       0.00000000       0.00000000       0.00000000       0.00000000       1.31870377
Th       0.00000000       0.00000000       3.76606061       0.00000000       0.00000000      -1.31870377
2
Properties=species:S:1:pos:R:3:forces:R:3 energy=-4.239199723943264 pbc="F F F"
Th       0.00000000       0.00000000       0.00000000       0.00000000       0.00000000       1.26609135
Th       0.00000000       0.00000000       3.82484848       0.00000000       0.00000000      -1.26609135
2
Properties=species:S:1:pos:R:3:forces:R:3 energy=-4.166234513525062 pbc="F F F"
Th       0.00000000       0.00000000       0.00000000       0.00000000       0.00000000       1.21710443
Th       0.00000000       0.00000000       3.88363636       0.00000000       0.00000000      -1.21710443
2
Properties=species:S:1:pos:R:3:forces:R:3 energy=-4.095949112889114 pbc="F F F"
Th       0.00000000       0.00000000       0.00000000       0.00000000       0.00000000       1.17567182
Th       0.00000000       0.00000000       3.94242424       0.00000000       0.00000000      -1.17567182
2
Properties=species:S:1:pos:R:3:forces:R:3 energy=-4.027784392101192 pbc="F F F"
Th       0.00000000       0.00000000       0.00000000       0.00000000       0.00000000       1.14548326
Th       0.00000000       0.00000000       4.00121212       0.00000000       0.00000000      -1.14548326
2
Properties=species:S:1:pos:R:3:forces:R:3 energy=-3.9609924824114406 pbc="F F F"
Th       0.00000000       0.00000000       0.00000000       0.00000000       0.00000000       1.12930763
Th       0.00000000       0.00000000       4.06000000       0.00000000       0.00000000      -1.12930763
2
Properties=species:S:1:pos:R:3:forces:R:3 energy=-3.8947049512967102 pbc="F F F"
Th       0.00000000       0.00000000       0.00000000       0.00000000       0.00000000       1.12842834
Th       0.00000000       0.00000000       4.11878788       0.00000000       0.00000000      -1.12842834
2
Properties=species:S:1:pos:R:3:forces:R:3 energy=-3.8280286657362894 pbc="F F F"
Th       0.00000000       0.00000000       0.00000000       0.00000000       0.00000000       1.14215636
Th       0.00000000       0.00000000       4.17757576       0.00000000       0.00000000      -1.14215636
2
Properties=species:S:1:pos:R:3:forces:R:3 energy=-3.760180631757627 pbc="F F F"
Th       0.00000000       0.00000000       0.00000000       0.00000000       0.00000000       1.16769576
Th       0.00000000       0.00000000       4.23636364       0.00000000       0.00000000      -1.16769576
2
Properties=species:S:1:pos:R:3:forces:R:3 energy=-3.6905906578092607 pbc="F F F"
Th       0.00000000       0.00000000       0.00000000       0.00000000       0.00000000       1.20055592
Th       0.00000000       0.00000000       4.29515152       0.00000000       0.00000000      -1.20055592
2
Properties=species:S:1:pos:R:3:forces:R:3 energy=-3.6189835671570014 pbc="F F F"
Th       0.00000000       0.00000000       0.00000000       0.00000000       0.00000000       1.23558867
Th       0.00000000       0.00000000       4.35393939       0.00000000       0.00000000      -1.23558867
2
Properties=species:S:1:pos:R:3:forces:R:3 energy=-3.5453659581491954 pbc="F F F"
Th       0.00000000       0.00000000       0.00000000       0.00000000       0.00000000       1.26816118
Th       0.00000000       0.00000000       4.41272727       0.00000000       0.00000000      -1.26816118
2
Properties=species:S:1:pos:R:3:forces:R:3 energy=-3.4699899289147416 pbc="F F F"
Th       0.00000000       0.00000000       0.00000000       0.00000000       0.00000000       1.29505813
Th       0.00000000       0.00000000       4.47151515       0.00000000       0.00000000      -1.29505813
2
Properties=species:S:1:pos:R:3:forces:R:3 energy=-3.3932385794243225 pbc="F F F"
Th       0.00000000       0.00000000       0.00000000       0.00000000       0.00000000       1.31478667
Th       0.00000000       0.00000000       4.53030303       0.00000000       0.00000000      -1.31478667
2
Properties=species:S:1:pos:R:3:forces:R:3 energy=-3.3155459598686243 pbc="F F F"
Th       0.00000000       0.00000000       0.00000000       0.00000000       0.00000000       1.32726479
Th       0.00000000       0.00000000       4.58909091       0.00000000       0.00000000      -1.32726479
2
Properties=species:S:1:pos:R:3:forces:R:3 energy=-3.2373168376387786 pbc="F F F"
Th       0.00000000       0.00000000       0.00000000       0.00000000       0.00000000       1.33311749
Th       0.00000000       0.00000000       4.64787879       0.00000000       0.00000000      -1.33311749
2
Properties=species:S:1:pos:R:3:forces:R:3 energy=-3.1589225681827853 pbc="F F F"
Th       0.00000000       0.00000000       0.00000000       0.00000000       0.00000000       1.33279467
Th       0.00000000       0.00000000       4.70666667       0.00000000       0.00000000      -1.33279467
2
Properties=species:S:1:pos:R:3:forces:R:3 energy=-3.080740309694082 pbc="F F F"
Th       0.00000000       0.00000000       0.00000000       0.00000000       0.00000000       1.32590818
Th       0.00000000       0.00000000       4.76545455       0.00000000       0.00000000      -1.32590818
2
Properties=species:S:1:pos:R:3:forces:R:3 energy=-3.0031840048555396 pbc="F F F"
Th       0.00000000       0.00000000       0.00000000       0.00000000       0.00000000       1.31089759
Th       0.00000000       0.00000000       4.82424242       0.00000000       0.00000000      -1.31089759
2
Properties=species:S:1:pos:R:3:forces:R:3 energy=-2.9268250776612854 pbc="F F F"
Th       0.00000000       0.00000000       0.00000000       0.00000000       0.00000000       1.28507650
Th       0.00000000       0.00000000       4.88303030       0.00000000       0.00000000      -1.28507650
2
Properties=species:S:1:pos:R:3:forces:R:3 energy=-2.85237162764388 pbc="F F F"
Th       0.00000000       0.00000000       0.00000000       0.00000000       0.00000000       1.24503922
Th       0.00000000       0.00000000       4.94181818       0.00000000       0.00000000      -1.24503922
2
Properties=species:S:1:pos:R:3:forces:R:3 energy=-2.780768352601536 pbc="F F F"
Th       0.00000000       0.00000000       0.00000000       0.00000000       0.00000000       1.18812859
Th       0.00000000       0.00000000       5.00060606       0.00000000       0.00000000      -1.18812859
2
Properties=species:S:1:pos:R:3:forces:R:3 energy=-2.712978665695041 pbc="F F F"
Th       0.00000000       0.00000000       0.00000000       0.00000000       0.00000000       1.11596084
Th       0.00000000       0.00000000       5.05939394       0.00000000       0.00000000      -1.11596084
2
Properties=species:S:1:pos:R:3:forces:R:3 energy=-2.6496398534833587 pbc="F F F"
Th       0.00000000       0.00000000       0.00000000       0.00000000       0.00000000       1.04007566
Th       0.00000000       0.00000000       5.11818182       0.00000000       0.00000000      -1.04007566
2
Properties=species:S:1:pos:R:3:forces:R:3 energy=-2.590305369007953 pbc="F F F"
Th       0.00000000       0.00000000       0.00000000       0.00000000       0.00000000       0.98412639
Th       0.00000000       0.00000000       5.17696970       0.00000000       0.00000000      -0.98412639
2
Properties=species:S:1:pos:R:3:forces:R:3 energy=-2.5330945505505778 pbc="F F F"
Th       0.00000000       0.00000000       0.00000000       0.00000000       0.00000000       0.96981943
Th       0.00000000       0.00000000       5.23575758       0.00000000       0.00000000      -0.96981943
2
Properties=species:S:1:pos:R:3:forces:R:3 energy=-2.475621141621639 pbc="F F F"
Th       0.00000000       0.00000000       0.00000000       0.00000000       0.00000000       0.98759484
Th       0.00000000       0.00000000       5.29454545       0.00000000       0.00000000      -0.98759484
2
Properties=species:S:1:pos:R:3:forces:R:3 energy=-2.4172630738471037 pbc="F F F"
Th       0.00000000       0.00000000       0.00000000       0.00000000       0.00000000       0.99100822
Th       0.00000000       0.00000000       5.35333333       0.00000000       0.00000000      -0.99100822
2
Properties=species:S:1:pos:R:3:forces:R:3 energy=-2.360123914063353 pbc="F F F"
Th       0.00000000       0.00000000       0.00000000       0.00000000       0.00000000       0.94485062
Th       0.00000000       0.00000000       5.41212121       0.00000000       0.00000000      -0.94485062
2
Properties=species:S:1:pos:R:3:forces:R:3 energy=-2.3066432242411676 pbc="F F F"
Th       0.00000000       0.00000000       0.00000000       0.00000000       0.00000000       0.87660652
Th       0.00000000       0.00000000       5.47090909       0.00000000       0.00000000      -0.87660652
2
Properties=species:S:1:pos:R:3:forces:R:3 energy=-2.2558860911530303 pbc="F F F"
Th       0.00000000       0.00000000       0.00000000       0.00000000       0.00000000       0.86726820
Th       0.00000000       0.00000000       5.52969697       0.00000000       0.00000000      -0.86726820
2
Properties=species:S:1:pos:R:3:forces:R:3 energy=-2.2021669046424694 pbc="F F F"
Th       0.00000000       0.00000000       0.00000000       0.00000000       0.00000000       0.98202634
Th       0.00000000       0.00000000       5.58848485       0.00000000       0.00000000      -0.98202634
2
Properties=species:S:1:pos:R:3:forces:R:3 energy=-2.138735401555728 pbc="F F F"
Th       0.00000000       0.00000000       0.00000000       0.00000000       0.00000000       1.18042278
Th       0.00000000       0.00000000       5.64727273       0.00000000       0.00000000      -1.18042278
2
Properties=species:S:1:pos:R:3:forces:R:3 energy=-2.0648492451848557 pbc="F F F"
Th       0.00000000       0.00000000       0.00000000       0.00000000       0.00000000       1.30433941
Th       0.00000000       0.00000000       5.70606061       0.00000000       0.00000000      -1.30433941
2
Properties=species:S:1:pos:R:3:forces:R:3 energy=-1.989702969382239 pbc="F F F"
Th       0.00000000       0.00000000       0.00000000       0.00000000       0.00000000       1.20434105
Th       0.00000000       0.00000000       5.76484848       0.00000000       0.00000000      -1.20434105
2
Properties=species:S:1:pos:R:3:forces:R:3 energy=-1.927668527500396 pbc="F F F"
Th       0.00000000       0.00000000       0.00000000       0.00000000       0.00000000       0.87909603
Th       0.00000000       0.00000000       5.82363636       0.00000000       0.00000000      -0.87909603
2
Properties=species:S:1:pos:R:3:forces:R:3 energy=-1.8881546591416778 pbc="F F F"
Th       0.00000000       0.00000000       0.00000000       0.00000000       0.00000000       0.47190735
Th       0.00000000       0.00000000       5.88242424       0.00000000       0.00000000      -0.47190735
2
Properties=species:S:1:pos:R:3:forces:R:3 energy=-1.8704569993324713 pbc="F F F"
Th       0.00000000       0.00000000       0.00000000       0.00000000       0.00000000       0.15362187
Th       0.00000000       0.00000000       5.94121212       0.00000000       0.00000000      -0.15362187
2
Properties=species:S:1:pos:R:3:forces:R:3 energy=-1.8661054021332155 pbc="F F F"
Th       0.00000000       0.00000000       0.00000000       0.00000000       0.00000000       0.03418691
Th       0.00000000       0.00000000       6.00000000       0.00000000       0.00000000      -0.03418691
