2
Properties=species:S:1:pos:R:3:forces:R:3 energy=13471.250435662792 pbc="F F F"
Tm       0.00000000       0.00000000       0.00000000       0.00000000       0.00000000 -234020.42187500
Tm       0.00000000       0.00000000       0.18000000       0.00000000       0.00000000  234020.42187500
2
Properties=species:S:1:pos:R:3:forces:R:3 energy=5271.789498162792 pbc="F F F"
Tm       0.00000000       0.00000000       0.00000000       0.00000000       0.00000000  -77879.52343750
Tm       0.00000000       0.00000000       0.23878788       0.00000000       0.00000000   77879.52343750
2
Properties=species:S:1:pos:R:3:forces:R:3 energy=2330.6869591002924 pbc="F F F"
Tm       0.00000000       0.00000000       0.00000000       0.00000000       0.00000000  -30502.39453125
Tm       0.00000000       0.00000000       0.29757576       0.00000000       0.00000000   30502.39453125
2
Properties=species:S:1:pos:R:3:forces:R:3 energy=1123.8441856627924 pbc="F F F"
Tm       0.00000000       0.00000000       0.00000000       0.00000000       0.00000000  -13218.32031250
Tm       0.00000000       0.00000000       0.35636364       0.00000000       0.00000000   13218.32031250
2
Properties=species:S:1:pos:R:3:forces:R:3 energy=583.3344200504637 pbc="F F F"
Tm       0.00000000       0.00000000       0.00000000       0.00000000       0.00000000   -6157.60742188
Tm       0.00000000       0.00000000       0.41515152       0.00000000       0.00000000    6157.60742188
2
Properties=species:S:1:pos:R:3:forces:R:3 energy=324.78315051921373 pbc="F F F"
Tm       0.00000000       0.00000000       0.00000000       0.00000000       0.00000000   -3041.28466797
Tm       0.00000000       0.00000000       0.47393939       0.00000000       0.00000000    3041.28466797
2
Properties=species:S:1:pos:R:3:forces:R:3 energy=194.1006554146975 pbc="F F F"
Tm       0.00000000       0.00000000       0.00000000       0.00000000       0.00000000   -1580.51525879
Tm       0.00000000       0.00000000       0.53272727       0.00000000       0.00000000    1580.51525879
2
Properties=species:S:1:pos:R:3:forces:R:3 energy=124.76778496931294 pbc="F F F"
Tm       0.00000000       0.00000000       0.00000000       0.00000000       0.00000000    -859.33605957
Tm       0.00000000       0.00000000       0.59151515       0.00000000       0.00000000     859.33605957
2
Properties=species:S:1:pos:R:3:forces:R:3 energy=86.37646573242446 pbc="F F F"
Tm       0.00000000       0.00000000       0.00000000       0.00000000       0.00000000    -485.94268799
Tm       0.00000000       0.00000000       0.65030303       0.00000000       0.00000000     485.94268799
2
Properties=species:S:1:pos:R:3:forces:R:3 energy=64.33806706577641 pbc="F F F"
Tm       0.00000000       0.00000000       0.00000000       0.00000000       0.00000000    -283.53594971
Tm       0.00000000       0.00000000       0.70909091       0.00000000       0.00000000     283.53594971
2
Properties=species:S:1:pos:R:3:forces:R:3 energy=51.35355483804516 pbc="F F F"
Tm       0.00000000       0.00000000       0.00000000       0.00000000       0.00000000    -168.48294067
Tm       0.00000000       0.00000000       0.76787879       0.00000000       0.00000000     168.48294067
2
Properties=species:S:1:pos:R:3:forces:R:3 energy=43.63444259386039 pbc="F F F"
Tm       0.00000000       0.00000000       0.00000000       0.00000000       0.00000000     -99.71032715
Tm       0.00000000       0.00000000       0.82666667       0.00000000       0.00000000      99.71032715
2
Properties=species:S:1:pos:R:3:forces:R:3 energy=39.12733222624046 pbc="F F F"
Tm       0.00000000       0.00000000       0.00000000       0.00000000       0.00000000     -56.93090439
Tm       0.00000000       0.00000000       0.88545455       0.00000000       0.00000000      56.93090439
2
Properties=species:S:1:pos:R:3:forces:R:3 energy=36.623403392167795 pbc="F F F"
Tm       0.00000000       0.00000000       0.00000000       0.00000000       0.00000000     -30.49845505
Tm       0.00000000       0.00000000       0.94424242       0.00000000       0.00000000      30.49845505
2
Properties=species:S:1:pos:R:3:forces:R:3 energy=35.31564930639004 pbc="F F F"
Tm       0.00000000       0.00000000       0.00000000       0.00000000       0.00000000     -15.63600063
Tm       0.00000000       0.00000000       1.00303030       0.00000000       0.00000000      15.63600063
2
Properties=species:S:1:pos:R:3:forces:R:3 energy=34.61929979161307 pbc="F F F"
Tm       0.00000000       0.00000000       0.00000000       0.00000000       0.00000000      -9.25547886
Tm       0.00000000       0.00000000       1.06181818       0.00000000       0.00000000       9.25547886
2
Properties=species:S:1:pos:R:3:forces:R:3 energy=34.10552187803824 pbc="F F F"
Tm       0.00000000       0.00000000       0.00000000       0.00000000       0.00000000      -9.12231064
Tm       0.00000000       0.00000000       1.12060606       0.00000000       0.00000000       9.12231064
2
Properties=species:S:1:pos:R:3:forces:R:3 energy=33.45446469471984 pbc="F F F"
Tm       0.00000000       0.00000000       0.00000000       0.00000000       0.00000000     -13.70518875
Tm       0.00000000       0.00000000       1.17939394       0.00000000       0.00000000      13.70518875
2
Properties=species:S:1:pos:R:3:forces:R:3 energy=32.42620290782155 pbc="F F F"
Tm       0.00000000       0.00000000       0.00000000       0.00000000       0.00000000     -21.75467873
Tm       0.00000000       0.00000000       1.23818182       0.00000000       0.00000000      21.75467873
2
Properties=species:S:1:pos:R:3:forces:R:3 energy=30.85289754307813 pbc="F F F"
Tm       0.00000000       0.00000000       0.00000000       0.00000000       0.00000000     -32.02531433
Tm       0.00000000       0.00000000       1.29696970       0.00000000       0.00000000      32.02531433
2
Properties=species:S:1:pos:R:3:forces:R:3 energy=28.647689914456368 pbc="F F F"
Tm       0.00000000       0.00000000       0.00000000       0.00000000       0.00000000     -42.93892670
Tm       0.00000000       0.00000000       1.35575758       0.00000000       0.00000000      42.93892670
2
Properties=species:S:1:pos:R:3:forces:R:3 energy=25.83573042239885 pbc="F F F"
Tm       0.00000000       0.00000000       0.00000000       0.00000000       0.00000000     -52.23022842
Tm       0.00000000       0.00000000       1.41454545       0.00000000       0.00000000      52.23022842
2
Properties=species:S:1:pos:R:3:forces:R:3 energy=22.59162360951201 pbc="F F F"
Tm       0.00000000       0.00000000       0.00000000       0.00000000       0.00000000     -57.22925186
Tm       0.00000000       0.00000000       1.47333333       0.00000000       0.00000000      57.22925186
2
Properties=species:S:1:pos:R:3:forces:R:3 energy=19.219063323185882 pbc="F F F"
Tm       0.00000000       0.00000000       0.00000000       0.00000000       0.00000000     -56.64242172
Tm       0.00000000       0.00000000       1.53212121       0.00000000       0.00000000      56.64242172
2
Properties=species:S:1:pos:R:3:forces:R:3 energy=16.00272343161441 pbc="F F F"
Tm       0.00000000       0.00000000       0.00000000       0.00000000       0.00000000     -52.47488403
Tm       0.00000000       0.00000000       1.59090909       0.00000000       0.00000000      52.47488403
2
Properties=species:S:1:pos:R:3:forces:R:3 energy=13.061780951477077 pbc="F F F"
Tm       0.00000000       0.00000000       0.00000000       0.00000000       0.00000000     -47.54227448
Tm       0.00000000       0.00000000       1.64969697       0.00000000       0.00000000      47.54227448
2
Properties=species:S:1:pos:R:3:forces:R:3 energy=10.423510179275539 pbc="F F F"
Tm       0.00000000       0.00000000       0.00000000       0.00000000       0.00000000     -42.06867599
Tm       0.00000000       0.00000000       1.70848485       0.00000000       0.00000000      42.06867599
2
Properties=species:S:1:pos:R:3:forces:R:3 energy=8.129607891554903 pbc="F F F"
Tm       0.00000000       0.00000000       0.00000000       0.00000000       0.00000000     -35.93009567
Tm       0.00000000       0.00000000       1.76727273       0.00000000       0.00000000      35.93009567
2
Properties=species:S:1:pos:R:3:forces:R:3 energy=6.192430597678883 pbc="F F F"
Tm       0.00000000       0.00000000       0.00000000       0.00000000       0.00000000     -30.10167503
Tm       0.00000000       0.00000000       1.82606061       0.00000000       0.00000000      30.10167503
2
Properties=species:S:1:pos:R:3:forces:R:3 energy=4.572895534404158 pbc="F F F"
Tm       0.00000000       0.00000000       0.00000000       0.00000000       0.00000000     -25.13928604
Tm       0.00000000       0.00000000       1.88484848       0.00000000       0.00000000      25.13928604
2
Properties=species:S:1:pos:R:3:forces:R:3 energy=3.222328660825176 pbc="F F F"
Tm       0.00000000       0.00000000       0.00000000       0.00000000       0.00000000     -20.90980911
Tm       0.00000000       0.00000000       1.94363636       0.00000000       0.00000000      20.90980911
2
Properties=species:S:1:pos:R:3:forces:R:3 energy=2.1038138246972213 pbc="F F F"
Tm       0.00000000       0.00000000       0.00000000       0.00000000       0.00000000     -17.22613525
Tm       0.00000000       0.00000000       2.00242424       0.00000000       0.00000000      17.22613525
2
Properties=species:S:1:pos:R:3:forces:R:3 energy=1.1874586851159112 pbc="F F F"
Tm       0.00000000       0.00000000       0.00000000       0.00000000       0.00000000     -14.02760029
Tm       0.00000000       0.00000000       2.06121212       0.00000000       0.00000000      14.02760029
2
Properties=species:S:1:pos:R:3:forces:R:3 energy=0.4455332422318227 pbc="F F F"
Tm       0.00000000       0.00000000       0.00000000       0.00000000       0.00000000     -11.28714085
Tm       0.00000000       0.00000000       2.12000000       0.00000000       0.00000000      11.28714085
2
Properties=species:S:1:pos:R:3:forces:R:3 energy=-0.1481123935909619 pbc="F F F"
Tm       0.00000000       0.00000000       0.00000000       0.00000000       0.00000000      -8.98010159
Tm       0.00000000       0.00000000       2.17878788       0.00000000       0.00000000       8.98010159
2
Properties=species:S:1:pos:R:3:forces:R:3 energy=-0.6186759493788526 pbc="F F F"
Tm       0.00000000       0.00000000       0.00000000       0.00000000       0.00000000      -7.10017967
Tm       0.00000000       0.00000000       2.23757576       0.00000000       0.00000000       7.10017967
2
Properties=species:S:1:pos:R:3:forces:R:3 energy=-0.9912559193441989 pbc="F F F"
Tm       0.00000000       0.00000000       0.00000000       0.00000000       0.00000000      -5.64415026
Tm       0.00000000       0.00000000       2.29636364       0.00000000       0.00000000       5.64415026
2
Properties=species:S:1:pos:R:3:forces:R:3 energy=-1.2898835258494923 pbc="F F F"
Tm       0.00000000       0.00000000       0.00000000       0.00000000       0.00000000      -4.57372808
Tm       0.00000000       0.00000000       2.35515152       0.00000000       0.00000000       4.57372808
2
Properties=species:S:1:pos:R:3:forces:R:3 energy=-1.5348552923443781 pbc="F F F"
Tm       0.00000000       0.00000000       0.00000000       0.00000000       0.00000000      -3.80045295
Tm       0.00000000       0.00000000       2.41393939       0.00000000       0.00000000       3.80045295
2
Properties=species:S:1:pos:R:3:forces:R:3 energy=-1.7402871034108554 pbc="F F F"
Tm       0.00000000       0.00000000       0.00000000       0.00000000       0.00000000      -3.20953798
Tm       0.00000000       0.00000000       2.47272727       0.00000000       0.00000000       3.20953798
2
Properties=species:S:1:pos:R:3:forces:R:3 energy=-1.913807831721437 pbc="F F F"
Tm       0.00000000       0.00000000       0.00000000       0.00000000       0.00000000      -2.70141029
Tm       0.00000000       0.00000000       2.53151515       0.00000000       0.00000000       2.70141029
2
Properties=species:S:1:pos:R:3:forces:R:3 energy=-2.0584104377262777 pbc="F F F"
Tm       0.00000000       0.00000000       0.00000000       0.00000000       0.00000000      -2.22051239
Tm       0.00000000       0.00000000       2.59030303       0.00000000       0.00000000       2.22051239
2
Properties=species:S:1:pos:R:3:forces:R:3 energy=-2.175201676468527 pbc="F F F"
Tm       0.00000000       0.00000000       0.00000000       0.00000000       0.00000000      -1.75647044
Tm       0.00000000       0.00000000       2.64909091       0.00000000       0.00000000       1.75647044
2
Properties=species:S:1:pos:R:3:forces:R:3 energy=-2.265559811067778 pbc="F F F"
Tm       0.00000000       0.00000000       0.00000000       0.00000000       0.00000000      -1.32474041
Tm       0.00000000       0.00000000       2.70787879       0.00000000       0.00000000       1.32474041
2
Properties=species:S:1:pos:R:3:forces:R:3 energy=-2.3319797432265363 pbc="F F F"
Tm       0.00000000       0.00000000       0.00000000       0.00000000       0.00000000      -0.94479722
Tm       0.00000000       0.00000000       2.76666667       0.00000000       0.00000000       0.94479722
2
Properties=species:S:1:pos:R:3:forces:R:3 energy=-2.377883031636546 pbc="F F F"
Tm       0.00000000       0.00000000       0.00000000       0.00000000       0.00000000      -0.62763840
Tm       0.00000000       0.00000000       2.82545455       0.00000000       0.00000000       0.62763840
2
Properties=species:S:1:pos:R:3:forces:R:3 energy=-2.4070077408209993 pbc="F F F"
Tm       0.00000000       0.00000000       0.00000000       0.00000000       0.00000000      -0.37307179
Tm       0.00000000       0.00000000       2.88424242       0.00000000       0.00000000       0.37307179
2
Properties=species:S:1:pos:R:3:forces:R:3 energy=-2.4228027335666384 pbc="F F F"
Tm       0.00000000       0.00000000       0.00000000       0.00000000       0.00000000      -0.17219117
Tm       0.00000000       0.00000000       2.94303030       0.00000000       0.00000000       0.17219117
2
Properties=species:S:1:pos:R:3:forces:R:3 energy=-2.428043124762338 pbc="F F F"
Tm       0.00000000       0.00000000       0.00000000       0.00000000       0.00000000      -0.01168805
Tm       0.00000000       0.00000000       3.00181818       0.00000000       0.00000000       0.01168805
2
Properties=species:S:1:pos:R:3:forces:R:3 energy=-2.424714587367701 pbc="F F F"
Tm       0.00000000       0.00000000       0.00000000       0.00000000       0.00000000       0.12123378
Tm       0.00000000       0.00000000       3.06060606       0.00000000       0.00000000      -0.12123378
2
Properties=species:S:1:pos:R:3:forces:R:3 energy=-2.4141582665596433 pbc="F F F"
Tm       0.00000000       0.00000000       0.00000000       0.00000000       0.00000000       0.23514818
Tm       0.00000000       0.00000000       3.11939394       0.00000000       0.00000000      -0.23514818
2
Properties=species:S:1:pos:R:3:forces:R:3 energy=-2.3973649058956297 pbc="F F F"
Tm       0.00000000       0.00000000       0.00000000       0.00000000       0.00000000       0.33373123
Tm       0.00000000       0.00000000       3.17818182       0.00000000       0.00000000      -0.33373123
2
Properties=species:S:1:pos:R:3:forces:R:3 energy=-2.3752007500853223 pbc="F F F"
Tm       0.00000000       0.00000000       0.00000000       0.00000000       0.00000000       0.41793922
Tm       0.00000000       0.00000000       3.23696970       0.00000000       0.00000000      -0.41793922
2
Properties=species:S:1:pos:R:3:forces:R:3 energy=-2.348488197826503 pbc="F F F"
Tm       0.00000000       0.00000000       0.00000000       0.00000000       0.00000000       0.48877436
Tm       0.00000000       0.00000000       3.29575758       0.00000000       0.00000000      -0.48877436
2
Properties=species:S:1:pos:R:3:forces:R:3 energy=-2.3179528688807705 pbc="F F F"
Tm       0.00000000       0.00000000       0.00000000       0.00000000       0.00000000       0.54843616
Tm       0.00000000       0.00000000       3.35454545       0.00000000       0.00000000      -0.54843616
2
Properties=species:S:1:pos:R:3:forces:R:3 energy=-2.2841723480787746 pbc="F F F"
Tm       0.00000000       0.00000000       0.00000000       0.00000000       0.00000000       0.59956461
Tm       0.00000000       0.00000000       3.41333333       0.00000000       0.00000000      -0.59956461
2
Properties=species:S:1:pos:R:3:forces:R:3 energy=-2.247584262209589 pbc="F F F"
Tm       0.00000000       0.00000000       0.00000000       0.00000000       0.00000000       0.64422411
Tm       0.00000000       0.00000000       3.47212121       0.00000000       0.00000000      -0.64422411
2
Properties=species:S:1:pos:R:3:forces:R:3 energy=-2.208520316856722 pbc="F F F"
Tm       0.00000000       0.00000000       0.00000000       0.00000000       0.00000000       0.68419445
Tm       0.00000000       0.00000000       3.53090909       0.00000000       0.00000000      -0.68419445
2
Properties=species:S:1:pos:R:3:forces:R:3 energy=-2.1671780743067646 pbc="F F F"
Tm       0.00000000       0.00000000       0.00000000       0.00000000       0.00000000       0.72231191
Tm       0.00000000       0.00000000       3.58969697       0.00000000       0.00000000      -0.72231191
2
Properties=species:S:1:pos:R:3:forces:R:3 energy=-2.1235441724315343 pbc="F F F"
Tm       0.00000000       0.00000000       0.00000000       0.00000000       0.00000000       0.76294869
Tm       0.00000000       0.00000000       3.64848485       0.00000000       0.00000000      -0.76294869
2
Properties=species:S:1:pos:R:3:forces:R:3 energy=-2.077335162866333 pbc="F F F"
Tm       0.00000000       0.00000000       0.00000000       0.00000000       0.00000000       0.81055182
Tm       0.00000000       0.00000000       3.70727273       0.00000000       0.00000000      -0.81055182
2
Properties=species:S:1:pos:R:3:forces:R:3 energy=-2.0280643148975077 pbc="F F F"
Tm       0.00000000       0.00000000       0.00000000       0.00000000       0.00000000       0.86707658
Tm       0.00000000       0.00000000       3.76606061       0.00000000       0.00000000      -0.86707658
2
Properties=species:S:1:pos:R:3:forces:R:3 energy=-1.9752550357687104 pbc="F F F"
Tm       0.00000000       0.00000000       0.00000000       0.00000000       0.00000000       0.93025512
Tm       0.00000000       0.00000000       3.82484848       0.00000000       0.00000000      -0.93025512
2
Properties=species:S:1:pos:R:3:forces:R:3 energy=-1.9186784876411458 pbc="F F F"
Tm       0.00000000       0.00000000       0.00000000       0.00000000       0.00000000       0.99393547
Tm       0.00000000       0.00000000       3.88363636       0.00000000       0.00000000      -0.99393547
2
Properties=species:S:1:pos:R:3:forces:R:3 energy=-1.8585385940753085 pbc="F F F"
Tm       0.00000000       0.00000000       0.00000000       0.00000000       0.00000000       1.05017912
Tm       0.00000000       0.00000000       3.94242424       0.00000000       0.00000000      -1.05017912
2
Properties=species:S:1:pos:R:3:forces:R:3 energy=-1.7954880330827172 pbc="F F F"
Tm       0.00000000       0.00000000       0.00000000       0.00000000       0.00000000       1.09201598
Tm       0.00000000       0.00000000       4.00121212       0.00000000       0.00000000      -1.09201598
2
Properties=species:S:1:pos:R:3:forces:R:3 energy=-1.7305074032558192 pbc="F F F"
Tm       0.00000000       0.00000000       0.00000000       0.00000000       0.00000000       1.11543238
Tm       0.00000000       0.00000000       4.06000000       0.00000000       0.00000000      -1.11543238
2
Properties=species:S:1:pos:R:3:forces:R:3 energy=-1.6647121300614964 pbc="F F F"
Tm       0.00000000       0.00000000       0.00000000       0.00000000       0.00000000       1.11996210
Tm       0.00000000       0.00000000       4.11878788       0.00000000       0.00000000      -1.11996210
2
Properties=species:S:1:pos:R:3:forces:R:3 energy=-1.599151761746971 pbc="F F F"
Tm       0.00000000       0.00000000       0.00000000       0.00000000       0.00000000       1.10796642
Tm       0.00000000       0.00000000       4.17757576       0.00000000       0.00000000      -1.10796642
2
Properties=species:S:1:pos:R:3:forces:R:3 energy=-1.5346917644097255 pbc="F F F"
Tm       0.00000000       0.00000000       0.00000000       0.00000000       0.00000000       1.08319926
Tm       0.00000000       0.00000000       4.23636364       0.00000000       0.00000000      -1.08319926
2
Properties=species:S:1:pos:R:3:forces:R:3 energy=-1.4719677392946715 pbc="F F F"
Tm       0.00000000       0.00000000       0.00000000       0.00000000       0.00000000       1.04944372
Tm       0.00000000       0.00000000       4.29515152       0.00000000       0.00000000      -1.04944372
2
Properties=species:S:1:pos:R:3:forces:R:3 energy=-1.4114203966334495 pbc="F F F"
Tm       0.00000000       0.00000000       0.00000000       0.00000000       0.00000000       1.00966537
Tm       0.00000000       0.00000000       4.35393939       0.00000000       0.00000000      -1.00966537
2
Properties=species:S:1:pos:R:3:forces:R:3 energy=-1.3533384824920047 pbc="F F F"
Tm       0.00000000       0.00000000       0.00000000       0.00000000       0.00000000       0.96572065
Tm       0.00000000       0.00000000       4.41272727       0.00000000       0.00000000      -0.96572065
2
Properties=species:S:1:pos:R:3:forces:R:3 energy=-1.2979356445877208 pbc="F F F"
Tm       0.00000000       0.00000000       0.00000000       0.00000000       0.00000000       0.91862875
Tm       0.00000000       0.00000000       4.47151515       0.00000000       0.00000000      -0.91862875
2
Properties=species:S:1:pos:R:3:forces:R:3 energy=-1.2453788242752195 pbc="F F F"
Tm       0.00000000       0.00000000       0.00000000       0.00000000       0.00000000       0.86898315
Tm       0.00000000       0.00000000       4.53030303       0.00000000       0.00000000      -0.86898315
2
Properties=species:S:1:pos:R:3:forces:R:3 energy=-1.1958030626728884 pbc="F F F"
Tm       0.00000000       0.00000000       0.00000000       0.00000000       0.00000000       0.81739354
Tm       0.00000000       0.00000000       4.58909091       0.00000000       0.00000000      -0.81739354
2
Properties=species:S:1:pos:R:3:forces:R:3 energy=-1.1492951384799446 pbc="F F F"
Tm       0.00000000       0.00000000       0.00000000       0.00000000       0.00000000       0.76476872
Tm       0.00000000       0.00000000       4.64787879       0.00000000       0.00000000      -0.76476872
2
Properties=species:S:1:pos:R:3:forces:R:3 energy=-1.105880047809512 pbc="F F F"
Tm       0.00000000       0.00000000       0.00000000       0.00000000       0.00000000       0.71234882
Tm       0.00000000       0.00000000       4.70666667       0.00000000       0.00000000      -0.71234882
2
Properties=species:S:1:pos:R:3:forces:R:3 energy=-1.06550781513904 pbc="F F F"
Tm       0.00000000       0.00000000       0.00000000       0.00000000       0.00000000       0.66153967
Tm       0.00000000       0.00000000       4.76545455       0.00000000       0.00000000      -0.66153967
2
Properties=species:S:1:pos:R:3:forces:R:3 energy=-1.0280440300110243 pbc="F F F"
Tm       0.00000000       0.00000000       0.00000000       0.00000000       0.00000000       0.61348945
Tm       0.00000000       0.00000000       4.82424242       0.00000000       0.00000000      -0.61348945
2
Properties=species:S:1:pos:R:3:forces:R:3 energy=-0.9933136463594744 pbc="F F F"
Tm       0.00000000       0.00000000       0.00000000       0.00000000       0.00000000       0.56868732
Tm       0.00000000       0.00000000       4.88303030       0.00000000       0.00000000      -0.56868732
2
Properties=species:S:1:pos:R:3:forces:R:3 energy=-0.9611265212243012 pbc="F F F"
Tm       0.00000000       0.00000000       0.00000000       0.00000000       0.00000000       0.52662617
Tm       0.00000000       0.00000000       4.94181818       0.00000000       0.00000000      -0.52662617
2
Properties=species:S:1:pos:R:3:forces:R:3 energy=-0.9313623234436983 pbc="F F F"
Tm       0.00000000       0.00000000       0.00000000       0.00000000       0.00000000       0.48609930
Tm       0.00000000       0.00000000       5.00060606       0.00000000       0.00000000      -0.48609930
2
Properties=species:S:1:pos:R:3:forces:R:3 energy=-0.9039520029452611 pbc="F F F"
Tm       0.00000000       0.00000000       0.00000000       0.00000000       0.00000000       0.44671300
Tm       0.00000000       0.00000000       5.05939394       0.00000000       0.00000000      -0.44671300
2
Properties=species:S:1:pos:R:3:forces:R:3 energy=-0.8787543826207727 pbc="F F F"
Tm       0.00000000       0.00000000       0.00000000       0.00000000       0.00000000       0.41187495
Tm       0.00000000       0.00000000       5.11818182       0.00000000       0.00000000      -0.41187495
2
Properties=species:S:1:pos:R:3:forces:R:3 energy=-0.8552656985565688 pbc="F F F"
Tm       0.00000000       0.00000000       0.00000000       0.00000000       0.00000000       0.39041060
Tm       0.00000000       0.00000000       5.17696970       0.00000000       0.00000000      -0.39041060
2
Properties=species:S:1:pos:R:3:forces:R:3 energy=-0.8324181173272645 pbc="F F F"
Tm       0.00000000       0.00000000       0.00000000       0.00000000       0.00000000       0.39068115
Tm       0.00000000       0.00000000       5.23575758       0.00000000       0.00000000      -0.39068115
2
Properties=species:S:1:pos:R:3:forces:R:3 energy=-0.8090115704791992 pbc="F F F"
Tm       0.00000000       0.00000000       0.00000000       0.00000000       0.00000000       0.40658849
Tm       0.00000000       0.00000000       5.29454545       0.00000000       0.00000000      -0.40658849
2
Properties=species:S:1:pos:R:3:forces:R:3 energy=-0.784787719939491 pbc="F F F"
Tm       0.00000000       0.00000000       0.00000000       0.00000000       0.00000000       0.41367003
Tm       0.00000000       0.00000000       5.35333333       0.00000000       0.00000000      -0.41367003
2
Properties=species:S:1:pos:R:3:forces:R:3 energy=-0.760955418725135 pbc="F F F"
Tm       0.00000000       0.00000000       0.00000000       0.00000000       0.00000000       0.39216048
Tm       0.00000000       0.00000000       5.41212121       0.00000000       0.00000000      -0.39216048
2
Properties=species:S:1:pos:R:3:forces:R:3 energy=-0.7390222341581153 pbc="F F F"
Tm       0.00000000       0.00000000       0.00000000       0.00000000       0.00000000       0.35424593
Tm       0.00000000       0.00000000       5.47090909       0.00000000       0.00000000      -0.35424593
2
Properties=species:S:1:pos:R:3:forces:R:3 energy=-0.7188108003675301 pbc="F F F"
Tm       0.00000000       0.00000000       0.00000000       0.00000000       0.00000000       0.34144321
Tm       0.00000000       0.00000000       5.52969697       0.00000000       0.00000000      -0.34144321
2
Properties=species:S:1:pos:R:3:forces:R:3 energy=-0.6976243621822263 pbc="F F F"
Tm       0.00000000       0.00000000       0.00000000       0.00000000       0.00000000       0.39083013
Tm       0.00000000       0.00000000       5.58848485       0.00000000       0.00000000      -0.39083013
2
Properties=species:S:1:pos:R:3:forces:R:3 energy=-0.6718217809356335 pbc="F F F"
Tm       0.00000000       0.00000000       0.00000000       0.00000000       0.00000000       0.49083695
Tm       0.00000000       0.00000000       5.64727273       0.00000000       0.00000000      -0.49083695
2
Properties=species:S:1:pos:R:3:forces:R:3 energy=-0.6403469932438104 pbc="F F F"
Tm       0.00000000       0.00000000       0.00000000       0.00000000       0.00000000       0.56914967
Tm       0.00000000       0.00000000       5.70606061       0.00000000       0.00000000      -0.56914967
2
Properties=species:S:1:pos:R:3:forces:R:3 energy=-0.6068435923168537 pbc="F F F"
Tm       0.00000000       0.00000000       0.00000000       0.00000000       0.00000000       0.54825217
Tm       0.00000000       0.00000000       5.76484848       0.00000000       0.00000000      -0.54825217
2
Properties=species:S:1:pos:R:3:forces:R:3 energy=-0.578120024779018 pbc="F F F"
Tm       0.00000000       0.00000000       0.00000000       0.00000000       0.00000000       0.41533375
Tm       0.00000000       0.00000000       5.82363636       0.00000000       0.00000000      -0.41533375
2
Properties=species:S:1:pos:R:3:forces:R:3 energy=-0.5590627427981016 pbc="F F F"
Tm       0.00000000       0.00000000       0.00000000       0.00000000       0.00000000       0.23351231
Tm       0.00000000       0.00000000       5.88242424       0.00000000       0.00000000      -0.23351231
2
Properties=species:S:1:pos:R:3:forces:R:3 energy=-0.5499513482915581 pbc="F F F"
Tm       0.00000000       0.00000000       0.00000000       0.00000000       0.00000000       0.08678002
Tm       0.00000000       0.00000000       5.94121212       0.00000000       0.00000000      -0.08678002
2
Properties=species:S:1:pos:R:3:forces:R:3 energy=-0.5470303676125388 pbc="F F F"
Tm       0.00000000       0.00000000       0.00000000       0.00000000       0.00000000       0.03099215
Tm       0.00000000       0.00000000       6.00000000       0.00000000       0.00000000      -0.03099215
