2
Properties=species:S:1:pos:R:3:forces:R:3 energy=2850.7654976961326 pbc="F F F"
V        0.00000000       0.00000000       0.00000000       0.00000000       0.00000000  -43361.04687500
V        0.00000000       0.00000000       0.18000000       0.00000000       0.00000000   43361.04687500
2
Properties=species:S:1:pos:R:3:forces:R:3 energy=1263.6652779695703 pbc="F F F"
V        0.00000000       0.00000000       0.00000000       0.00000000       0.00000000  -16002.12500000
V        0.00000000       0.00000000       0.23878788       0.00000000       0.00000000   16002.12500000
2
Properties=species:S:1:pos:R:3:forces:R:3 energy=632.7597603914452 pbc="F F F"
V        0.00000000       0.00000000       0.00000000       0.00000000       0.00000000   -6937.68164062
V        0.00000000       0.00000000       0.29757576       0.00000000       0.00000000    6937.68164062
2
Properties=species:S:1:pos:R:3:forces:R:3 energy=345.4750313938746 pbc="F F F"
V        0.00000000       0.00000000       0.00000000       0.00000000       0.00000000   -3339.22070312
V        0.00000000       0.00000000       0.35636364       0.00000000       0.00000000    3339.22070312
2
Properties=species:S:1:pos:R:3:forces:R:3 energy=202.51798488508555 pbc="F F F"
V        0.00000000       0.00000000       0.00000000       0.00000000       0.00000000   -1724.37231445
V        0.00000000       0.00000000       0.41515152       0.00000000       0.00000000    1724.37231445
2
Properties=species:S:1:pos:R:3:forces:R:3 energy=126.94025663260811 pbc="F F F"
V        0.00000000       0.00000000       0.00000000       0.00000000       0.00000000    -935.64367676
V        0.00000000       0.00000000       0.47393939       0.00000000       0.00000000     935.64367676
2
Properties=species:S:1:pos:R:3:forces:R:3 energy=85.22427612816553 pbc="F F F"
V        0.00000000       0.00000000       0.00000000       0.00000000       0.00000000    -526.17724609
V        0.00000000       0.00000000       0.53272727       0.00000000       0.00000000     526.17724609
2
Properties=species:S:1:pos:R:3:forces:R:3 energy=61.481970416899806 pbc="F F F"
V        0.00000000       0.00000000       0.00000000       0.00000000       0.00000000    -303.15002441
V        0.00000000       0.00000000       0.59151515       0.00000000       0.00000000     303.15002441
2
Properties=species:S:1:pos:R:3:forces:R:3 energy=47.725275699226366 pbc="F F F"
V        0.00000000       0.00000000       0.00000000       0.00000000       0.00000000    -176.25770569
V        0.00000000       0.00000000       0.65030303       0.00000000       0.00000000     176.25770569
2
Properties=species:S:1:pos:R:3:forces:R:3 energy=39.751429390392374 pbc="F F F"
V        0.00000000       0.00000000       0.00000000       0.00000000       0.00000000    -101.52050781
V        0.00000000       0.00000000       0.70909091       0.00000000       0.00000000     101.52050781
2
Properties=species:S:1:pos:R:3:forces:R:3 energy=35.16887953163358 pbc="F F F"
V        0.00000000       0.00000000       0.00000000       0.00000000       0.00000000     -58.75397873
V        0.00000000       0.00000000       0.76787879       0.00000000       0.00000000      58.75397873
2
Properties=species:S:1:pos:R:3:forces:R:3 energy=32.40876323325349 pbc="F F F"
V        0.00000000       0.00000000       0.00000000       0.00000000       0.00000000     -38.22396088
V        0.00000000       0.00000000       0.82666667       0.00000000       0.00000000      38.22396088
2
Properties=species:S:1:pos:R:3:forces:R:3 energy=30.375024542433263 pbc="F F F"
V        0.00000000       0.00000000       0.00000000       0.00000000       0.00000000     -33.05762482
V        0.00000000       0.00000000       0.88545455       0.00000000       0.00000000      33.05762482
2
Properties=species:S:1:pos:R:3:forces:R:3 energy=28.317224813336853 pbc="F F F"
V        0.00000000       0.00000000       0.00000000       0.00000000       0.00000000     -38.38973618
V        0.00000000       0.00000000       0.94424242       0.00000000       0.00000000      38.38973618
2
Properties=species:S:1:pos:R:3:forces:R:3 energy=25.723200921746688 pbc="F F F"
V        0.00000000       0.00000000       0.00000000       0.00000000       0.00000000     -50.76967239
V        0.00000000       0.00000000       1.00303030       0.00000000       0.00000000      50.76967239
2
Properties=species:S:1:pos:R:3:forces:R:3 energy=22.27676411876335 pbc="F F F"
V        0.00000000       0.00000000       0.00000000       0.00000000       0.00000000     -66.75138855
V        0.00000000       0.00000000       1.06181818       0.00000000       0.00000000      66.75138855
2
Properties=species:S:1:pos:R:3:forces:R:3 energy=17.884032879694548 pbc="F F F"
V        0.00000000       0.00000000       0.00000000       0.00000000       0.00000000     -82.27330017
V        0.00000000       0.00000000       1.12060606       0.00000000       0.00000000      82.27330017
2
Properties=species:S:1:pos:R:3:forces:R:3 energy=12.692456773976218 pbc="F F F"
V        0.00000000       0.00000000       0.00000000       0.00000000       0.00000000     -93.23126221
V        0.00000000       0.00000000       1.17939394       0.00000000       0.00000000      93.23126221
2
Properties=species:S:1:pos:R:3:forces:R:3 energy=7.102433680536044 pbc="F F F"
V        0.00000000       0.00000000       0.00000000       0.00000000       0.00000000     -94.97170258
V        0.00000000       0.00000000       1.23818182       0.00000000       0.00000000      94.97170258
2
Properties=species:S:1:pos:R:3:forces:R:3 energy=1.794359806104 pbc="F F F"
V        0.00000000       0.00000000       0.00000000       0.00000000       0.00000000     -83.30740356
V        0.00000000       0.00000000       1.29696970       0.00000000       0.00000000      83.30740356
2
Properties=species:S:1:pos:R:3:forces:R:3 energy=-2.493657505498484 pbc="F F F"
V        0.00000000       0.00000000       0.00000000       0.00000000       0.00000000     -61.83500671
V        0.00000000       0.00000000       1.35575758       0.00000000       0.00000000      61.83500671
2
Properties=species:S:1:pos:R:3:forces:R:3 energy=-5.497953850274832 pbc="F F F"
V        0.00000000       0.00000000       0.00000000       0.00000000       0.00000000     -41.16572952
V        0.00000000       0.00000000       1.41454545       0.00000000       0.00000000      41.16572952
2
Properties=species:S:1:pos:R:3:forces:R:3 energy=-7.441467563082081 pbc="F F F"
V        0.00000000       0.00000000       0.00000000       0.00000000       0.00000000     -25.82266045
V        0.00000000       0.00000000       1.47333333       0.00000000       0.00000000      25.82266045
2
Properties=species:S:1:pos:R:3:forces:R:3 energy=-8.624246792467458 pbc="F F F"
V        0.00000000       0.00000000       0.00000000       0.00000000       0.00000000     -15.09734726
V        0.00000000       0.00000000       1.53212121       0.00000000       0.00000000      15.09734726
2
Properties=species:S:1:pos:R:3:forces:R:3 energy=-9.28753276542589 pbc="F F F"
V        0.00000000       0.00000000       0.00000000       0.00000000       0.00000000      -7.98877811
V        0.00000000       0.00000000       1.59090909       0.00000000       0.00000000       7.98877811
2
Properties=species:S:1:pos:R:3:forces:R:3 energy=-9.614712476363884 pbc="F F F"
V        0.00000000       0.00000000       0.00000000       0.00000000       0.00000000      -3.49784422
V        0.00000000       0.00000000       1.64969697       0.00000000       0.00000000       3.49784422
2
Properties=species:S:1:pos:R:3:forces:R:3 energy=-9.732744436538193 pbc="F F F"
V        0.00000000       0.00000000       0.00000000       0.00000000       0.00000000      -0.74674672
V        0.00000000       0.00000000       1.70848485       0.00000000       0.00000000       0.74674672
2
Properties=species:S:1:pos:R:3:forces:R:3 energy=-9.723631108321278 pbc="F F F"
V        0.00000000       0.00000000       0.00000000       0.00000000       0.00000000       0.91929406
V        0.00000000       0.00000000       1.76727273       0.00000000       0.00000000      -0.91929406
2
Properties=species:S:1:pos:R:3:forces:R:3 energy=-9.637219980515788 pbc="F F F"
V        0.00000000       0.00000000       0.00000000       0.00000000       0.00000000       1.93656576
V        0.00000000       0.00000000       1.82606061       0.00000000       0.00000000      -1.93656576
2
Properties=species:S:1:pos:R:3:forces:R:3 energy=-9.504206981015171 pbc="F F F"
V        0.00000000       0.00000000       0.00000000       0.00000000       0.00000000       2.52717471
V        0.00000000       0.00000000       1.88484848       0.00000000       0.00000000      -2.52717471
2
Properties=species:S:1:pos:R:3:forces:R:3 energy=-9.346781966067065 pbc="F F F"
V        0.00000000       0.00000000       0.00000000       0.00000000       0.00000000       2.77510285
V        0.00000000       0.00000000       1.94363636       0.00000000       0.00000000      -2.77510285
2
Properties=species:S:1:pos:R:3:forces:R:3 energy=-9.183783463001973 pbc="F F F"
V        0.00000000       0.00000000       0.00000000       0.00000000       0.00000000       2.72455907
V        0.00000000       0.00000000       2.00242424       0.00000000       0.00000000      -2.72455907
2
Properties=species:S:1:pos:R:3:forces:R:3 energy=-9.031146982533343 pbc="F F F"
V        0.00000000       0.00000000       0.00000000       0.00000000       0.00000000       2.43431664
V        0.00000000       0.00000000       2.06121212       0.00000000       0.00000000      -2.43431664
2
Properties=species:S:1:pos:R:3:forces:R:3 energy=-8.900790410908494 pbc="F F F"
V        0.00000000       0.00000000       0.00000000       0.00000000       0.00000000       1.97995114
V        0.00000000       0.00000000       2.12000000       0.00000000       0.00000000      -1.97995114
2
Properties=species:S:1:pos:R:3:forces:R:3 energy=-8.799952910547026 pbc="F F F"
V        0.00000000       0.00000000       0.00000000       0.00000000       0.00000000       1.44397581
V        0.00000000       0.00000000       2.17878788       0.00000000       0.00000000      -1.44397581
2
Properties=species:S:1:pos:R:3:forces:R:3 energy=-8.730971062690513 pbc="F F F"
V        0.00000000       0.00000000       0.00000000       0.00000000       0.00000000       0.90972042
V        0.00000000       0.00000000       2.23757576       0.00000000       0.00000000      -0.90972042
2
Properties=species:S:1:pos:R:3:forces:R:3 energy=-8.691525358231836 pbc="F F F"
V        0.00000000       0.00000000       0.00000000       0.00000000       0.00000000       0.44951481
V        0.00000000       0.00000000       2.29636364       0.00000000       0.00000000      -0.44951481
2
Properties=species:S:1:pos:R:3:forces:R:3 energy=-8.675694909864871 pbc="F F F"
V        0.00000000       0.00000000       0.00000000       0.00000000       0.00000000       0.11200273
V        0.00000000       0.00000000       2.35515152       0.00000000       0.00000000      -0.11200273
2
Properties=species:S:1:pos:R:3:forces:R:3 energy=-8.675526314428575 pbc="F F F"
V        0.00000000       0.00000000       0.00000000       0.00000000       0.00000000      -0.08196514
V        0.00000000       0.00000000       2.41393939       0.00000000       0.00000000       0.08196514
2
Properties=species:S:1:pos:R:3:forces:R:3 energy=-8.682586432188833 pbc="F F F"
V        0.00000000       0.00000000       0.00000000       0.00000000       0.00000000      -0.13643885
V        0.00000000       0.00000000       2.47272727       0.00000000       0.00000000       0.13643885
2
Properties=species:S:1:pos:R:3:forces:R:3 energy=-8.689300226988601 pbc="F F F"
V        0.00000000       0.00000000       0.00000000       0.00000000       0.00000000      -0.07570918
V        0.00000000       0.00000000       2.53151515       0.00000000       0.00000000       0.07570918
2
Properties=species:S:1:pos:R:3:forces:R:3 energy=-8.689997861165637 pbc="F F F"
V        0.00000000       0.00000000       0.00000000       0.00000000       0.00000000       0.06079227
V        0.00000000       0.00000000       2.59030303       0.00000000       0.00000000      -0.06079227
2
Properties=species:S:1:pos:R:3:forces:R:3 energy=-8.681604849219717 pbc="F F F"
V        0.00000000       0.00000000       0.00000000       0.00000000       0.00000000       0.22534408
V        0.00000000       0.00000000       2.64909091       0.00000000       0.00000000      -0.22534408
2
Properties=species:S:1:pos:R:3:forces:R:3 energy=-8.663861562386305 pbc="F F F"
V        0.00000000       0.00000000       0.00000000       0.00000000       0.00000000       0.37209284
V        0.00000000       0.00000000       2.70787879       0.00000000       0.00000000      -0.37209284
2
Properties=species:S:1:pos:R:3:forces:R:3 energy=-8.638830822868128 pbc="F F F"
V        0.00000000       0.00000000       0.00000000       0.00000000       0.00000000       0.47011322
V        0.00000000       0.00000000       2.76666667       0.00000000       0.00000000      -0.47011322
2
Properties=species:S:1:pos:R:3:forces:R:3 energy=-8.60961664277859 pbc="F F F"
V        0.00000000       0.00000000       0.00000000       0.00000000       0.00000000       0.51680881
V        0.00000000       0.00000000       2.82545455       0.00000000       0.00000000      -0.51680881
2
Properties=species:S:1:pos:R:3:forces:R:3 energy=-8.578517898710553 pbc="F F F"
V        0.00000000       0.00000000       0.00000000       0.00000000       0.00000000       0.54064059
V        0.00000000       0.00000000       2.88424242       0.00000000       0.00000000      -0.54064059
2
Properties=species:S:1:pos:R:3:forces:R:3 energy=-8.545856408162674 pbc="F F F"
V        0.00000000       0.00000000       0.00000000       0.00000000       0.00000000       0.57291806
V        0.00000000       0.00000000       2.94303030       0.00000000       0.00000000      -0.57291806
2
Properties=species:S:1:pos:R:3:forces:R:3 energy=-8.511032292507489 pbc="F F F"
V        0.00000000       0.00000000       0.00000000       0.00000000       0.00000000       0.61093134
V        0.00000000       0.00000000       3.00181818       0.00000000       0.00000000      -0.61093134
2
Properties=species:S:1:pos:R:3:forces:R:3 energy=-8.474292178719589 pbc="F F F"
V        0.00000000       0.00000000       0.00000000       0.00000000       0.00000000       0.63617629
V        0.00000000       0.00000000       3.06060606       0.00000000       0.00000000      -0.63617629
2
Properties=species:S:1:pos:R:3:forces:R:3 energy=-8.436494521053035 pbc="F F F"
V        0.00000000       0.00000000       0.00000000       0.00000000       0.00000000       0.64842075
V        0.00000000       0.00000000       3.11939394       0.00000000       0.00000000      -0.64842075
2
Properties=species:S:1:pos:R:3:forces:R:3 energy=-8.398101875404695 pbc="F F F"
V        0.00000000       0.00000000       0.00000000       0.00000000       0.00000000       0.65793896
V        0.00000000       0.00000000       3.17818182       0.00000000       0.00000000      -0.65793896
2
Properties=species:S:1:pos:R:3:forces:R:3 energy=-8.359087625510993 pbc="F F F"
V        0.00000000       0.00000000       0.00000000       0.00000000       0.00000000       0.66972798
V        0.00000000       0.00000000       3.23696970       0.00000000       0.00000000      -0.66972798
2
Properties=species:S:1:pos:R:3:forces:R:3 energy=-8.31933632190799 pbc="F F F"
V        0.00000000       0.00000000       0.00000000       0.00000000       0.00000000       0.68261355
V        0.00000000       0.00000000       3.29575758       0.00000000       0.00000000      -0.68261355
2
Properties=species:S:1:pos:R:3:forces:R:3 energy=-8.27885928723444 pbc="F F F"
V        0.00000000       0.00000000       0.00000000       0.00000000       0.00000000       0.69403899
V        0.00000000       0.00000000       3.35454545       0.00000000       0.00000000      -0.69403899
2
Properties=species:S:1:pos:R:3:forces:R:3 energy=-8.237789179754234 pbc="F F F"
V        0.00000000       0.00000000       0.00000000       0.00000000       0.00000000       0.70266932
V        0.00000000       0.00000000       3.41333333       0.00000000       0.00000000      -0.70266932
2
Properties=species:S:1:pos:R:3:forces:R:3 energy=-8.196302045110182 pbc="F F F"
V        0.00000000       0.00000000       0.00000000       0.00000000       0.00000000       0.70822614
V        0.00000000       0.00000000       3.47212121       0.00000000       0.00000000      -0.70822614
2
Properties=species:S:1:pos:R:3:forces:R:3 energy=-8.154583903806806 pbc="F F F"
V        0.00000000       0.00000000       0.00000000       0.00000000       0.00000000       0.71048403
V        0.00000000       0.00000000       3.53090909       0.00000000       0.00000000      -0.71048403
2
Properties=species:S:1:pos:R:3:forces:R:3 energy=-8.112843629846033 pbc="F F F"
V        0.00000000       0.00000000       0.00000000       0.00000000       0.00000000       0.70878470
V        0.00000000       0.00000000       3.58969697       0.00000000       0.00000000      -0.70878470
2
Properties=species:S:1:pos:R:3:forces:R:3 energy=-8.07134230856271 pbc="F F F"
V        0.00000000       0.00000000       0.00000000       0.00000000       0.00000000       0.70223713
V        0.00000000       0.00000000       3.64848485       0.00000000       0.00000000      -0.70223713
2
Properties=species:S:1:pos:R:3:forces:R:3 energy=-8.030387625292622 pbc="F F F"
V        0.00000000       0.00000000       0.00000000       0.00000000       0.00000000       0.69011819
V        0.00000000       0.00000000       3.70727273       0.00000000       0.00000000      -0.69011819
2
Properties=species:S:1:pos:R:3:forces:R:3 energy=-7.990316686563525 pbc="F F F"
V        0.00000000       0.00000000       0.00000000       0.00000000       0.00000000       0.67211807
V        0.00000000       0.00000000       3.76606061       0.00000000       0.00000000      -0.67211807
2
Properties=species:S:1:pos:R:3:forces:R:3 energy=-7.951475051931463 pbc="F F F"
V        0.00000000       0.00000000       0.00000000       0.00000000       0.00000000       0.64839840
V        0.00000000       0.00000000       3.82484848       0.00000000       0.00000000      -0.64839840
2
Properties=species:S:1:pos:R:3:forces:R:3 energy=-7.914181904197448 pbc="F F F"
V        0.00000000       0.00000000       0.00000000       0.00000000       0.00000000       0.61952990
V        0.00000000       0.00000000       3.88363636       0.00000000       0.00000000      -0.61952990
2
Properties=species:S:1:pos:R:3:forces:R:3 energy=-7.8787162798145145 pbc="F F F"
V        0.00000000       0.00000000       0.00000000       0.00000000       0.00000000       0.58642024
V        0.00000000       0.00000000       3.94242424       0.00000000       0.00000000      -0.58642024
2
Properties=species:S:1:pos:R:3:forces:R:3 energy=-7.845294198047217 pbc="F F F"
V        0.00000000       0.00000000       0.00000000       0.00000000       0.00000000       0.55022150
V        0.00000000       0.00000000       4.00121212       0.00000000       0.00000000      -0.55022150
2
Properties=species:S:1:pos:R:3:forces:R:3 energy=-7.814059328632921 pbc="F F F"
V        0.00000000       0.00000000       0.00000000       0.00000000       0.00000000       0.51218706
V        0.00000000       0.00000000       4.06000000       0.00000000       0.00000000      -0.51218706
2
Properties=species:S:1:pos:R:3:forces:R:3 energy=-7.785085342625541 pbc="F F F"
V        0.00000000       0.00000000       0.00000000       0.00000000       0.00000000       0.47351778
V        0.00000000       0.00000000       4.11878788       0.00000000       0.00000000      -0.47351778
2
Properties=species:S:1:pos:R:3:forces:R:3 energy=-7.758378019476807 pbc="F F F"
V        0.00000000       0.00000000       0.00000000       0.00000000       0.00000000       0.43520942
V        0.00000000       0.00000000       4.17757576       0.00000000       0.00000000      -0.43520942
2
Properties=species:S:1:pos:R:3:forces:R:3 energy=-7.733893384191388 pbc="F F F"
V        0.00000000       0.00000000       0.00000000       0.00000000       0.00000000       0.39799452
V        0.00000000       0.00000000       4.23636364       0.00000000       0.00000000      -0.39799452
2
Properties=species:S:1:pos:R:3:forces:R:3 energy=-7.711552719025814 pbc="F F F"
V        0.00000000       0.00000000       0.00000000       0.00000000       0.00000000       0.36233434
V        0.00000000       0.00000000       4.29515152       0.00000000       0.00000000      -0.36233434
2
Properties=species:S:1:pos:R:3:forces:R:3 energy=-7.691255324050158 pbc="F F F"
V        0.00000000       0.00000000       0.00000000       0.00000000       0.00000000       0.32854113
V        0.00000000       0.00000000       4.35393939       0.00000000       0.00000000      -0.32854113
2
Properties=species:S:1:pos:R:3:forces:R:3 energy=-7.6728828356888705 pbc="F F F"
V        0.00000000       0.00000000       0.00000000       0.00000000       0.00000000       0.29688719
V        0.00000000       0.00000000       4.41272727       0.00000000       0.00000000      -0.29688719
2
Properties=species:S:1:pos:R:3:forces:R:3 energy=-7.65629939144753 pbc="F F F"
V        0.00000000       0.00000000       0.00000000       0.00000000       0.00000000       0.26773980
V        0.00000000       0.00000000       4.47151515       0.00000000       0.00000000      -0.26773980
2
Properties=species:S:1:pos:R:3:forces:R:3 energy=-7.641343645722235 pbc="F F F"
V        0.00000000       0.00000000       0.00000000       0.00000000       0.00000000       0.24160719
V        0.00000000       0.00000000       4.53030303       0.00000000       0.00000000      -0.24160719
2
Properties=species:S:1:pos:R:3:forces:R:3 energy=-7.627821439844185 pbc="F F F"
V        0.00000000       0.00000000       0.00000000       0.00000000       0.00000000       0.21908605
V        0.00000000       0.00000000       4.58909091       0.00000000       0.00000000      -0.21908605
2
Properties=species:S:1:pos:R:3:forces:R:3 energy=-7.615503552606261 pbc="F F F"
V        0.00000000       0.00000000       0.00000000       0.00000000       0.00000000       0.20071068
V        0.00000000       0.00000000       4.64787879       0.00000000       0.00000000      -0.20071068
2
Properties=species:S:1:pos:R:3:forces:R:3 energy=-7.604135713843345 pbc="F F F"
V        0.00000000       0.00000000       0.00000000       0.00000000       0.00000000       0.18675241
V        0.00000000       0.00000000       4.70666667       0.00000000       0.00000000      -0.18675241
2
Properties=species:S:1:pos:R:3:forces:R:3 energy=-7.59346209149415 pbc="F F F"
V        0.00000000       0.00000000       0.00000000       0.00000000       0.00000000       0.17703819
V        0.00000000       0.00000000       4.76545455       0.00000000       0.00000000      -0.17703819
2
Properties=species:S:1:pos:R:3:forces:R:3 energy=-7.583250538628027 pbc="F F F"
V        0.00000000       0.00000000       0.00000000       0.00000000       0.00000000       0.17084986
V        0.00000000       0.00000000       4.82424242       0.00000000       0.00000000      -0.17084986
2
Properties=species:S:1:pos:R:3:forces:R:3 energy=-7.573329094494244 pbc="F F F"
V        0.00000000       0.00000000       0.00000000       0.00000000       0.00000000       0.16697605
V        0.00000000       0.00000000       4.88303030       0.00000000       0.00000000      -0.16697605
2
Properties=species:S:1:pos:R:3:forces:R:3 energy=-7.563602566116564 pbc="F F F"
V        0.00000000       0.00000000       0.00000000       0.00000000       0.00000000       0.16391948
V        0.00000000       0.00000000       4.94181818       0.00000000       0.00000000      -0.16391948
2
Properties=species:S:1:pos:R:3:forces:R:3 energy=-7.554067733229337 pbc="F F F"
V        0.00000000       0.00000000       0.00000000       0.00000000       0.00000000       0.16024771
V        0.00000000       0.00000000       5.00060606       0.00000000       0.00000000      -0.16024771
2
Properties=species:S:1:pos:R:3:forces:R:3 energy=-7.544790052948832 pbc="F F F"
V        0.00000000       0.00000000       0.00000000       0.00000000       0.00000000       0.15513125
V        0.00000000       0.00000000       5.05939394       0.00000000       0.00000000      -0.15513125
2
Properties=species:S:1:pos:R:3:forces:R:3 energy=-7.535849097596584 pbc="F F F"
V        0.00000000       0.00000000       0.00000000       0.00000000       0.00000000       0.14900140
V        0.00000000       0.00000000       5.11818182       0.00000000       0.00000000      -0.14900140
2
Properties=species:S:1:pos:R:3:forces:R:3 energy=-7.527252396061403 pbc="F F F"
V        0.00000000       0.00000000       0.00000000       0.00000000       0.00000000       0.14387500
V        0.00000000       0.00000000       5.17696970       0.00000000       0.00000000      -0.14387500
2
Properties=species:S:1:pos:R:3:forces:R:3 energy=-7.518864858732135 pbc="F F F"
V        0.00000000       0.00000000       0.00000000       0.00000000       0.00000000       0.14216600
V        0.00000000       0.00000000       5.23575758       0.00000000       0.00000000      -0.14216600
2
Properties=species:S:1:pos:R:3:forces:R:3 energy=-7.510471325528763 pbc="F F F"
V        0.00000000       0.00000000       0.00000000       0.00000000       0.00000000       0.14369182
V        0.00000000       0.00000000       5.29454545       0.00000000       0.00000000      -0.14369182
2
Properties=species:S:1:pos:R:3:forces:R:3 energy=-7.501987868119937 pbc="F F F"
V        0.00000000       0.00000000       0.00000000       0.00000000       0.00000000       0.14428988
V        0.00000000       0.00000000       5.35333333       0.00000000       0.00000000      -0.14428988
2
Properties=species:S:1:pos:R:3:forces:R:3 energy=-7.493609148443963 pbc="F F F"
V        0.00000000       0.00000000       0.00000000       0.00000000       0.00000000       0.13978717
V        0.00000000       0.00000000       5.41212121       0.00000000       0.00000000      -0.13978717
2
Properties=species:S:1:pos:R:3:forces:R:3 energy=-7.485633126368276 pbc="F F F"
V        0.00000000       0.00000000       0.00000000       0.00000000       0.00000000       0.13134116
V        0.00000000       0.00000000       5.47090909       0.00000000       0.00000000      -0.13134116
2
Properties=species:S:1:pos:R:3:forces:R:3 energy=-7.478116814939435 pbc="F F F"
V        0.00000000       0.00000000       0.00000000       0.00000000       0.00000000       0.12543993
V        0.00000000       0.00000000       5.52969697       0.00000000       0.00000000      -0.12543993
2
Properties=species:S:1:pos:R:3:forces:R:3 energy=-7.470701802332731 pbc="F F F"
V        0.00000000       0.00000000       0.00000000       0.00000000       0.00000000       0.12860338
V        0.00000000       0.00000000       5.58848485       0.00000000       0.00000000      -0.12860338
2
Properties=species:S:1:pos:R:3:forces:R:3 energy=-7.462828557644659 pbc="F F F"
V        0.00000000       0.00000000       0.00000000       0.00000000       0.00000000       0.13992013
V        0.00000000       0.00000000       5.64727273       0.00000000       0.00000000      -0.13992013
2
Properties=species:S:1:pos:R:3:forces:R:3 energy=-7.4543228899123575 pbc="F F F"
V        0.00000000       0.00000000       0.00000000       0.00000000       0.00000000       0.14758547
V        0.00000000       0.00000000       5.70606061       0.00000000       0.00000000      -0.14758547
2
Properties=species:S:1:pos:R:3:forces:R:3 energy=-7.44582759503164 pbc="F F F"
V        0.00000000       0.00000000       0.00000000       0.00000000       0.00000000       0.13715376
V        0.00000000       0.00000000       5.76484848       0.00000000       0.00000000      -0.13715376
2
Properties=species:S:1:pos:R:3:forces:R:3 energy=-7.438619987100429 pbc="F F F"
V        0.00000000       0.00000000       0.00000000       0.00000000       0.00000000       0.10548133
V        0.00000000       0.00000000       5.82363636       0.00000000       0.00000000      -0.10548133
2
Properties=species:S:1:pos:R:3:forces:R:3 energy=-7.4336266562313265 pbc="F F F"
V        0.00000000       0.00000000       0.00000000       0.00000000       0.00000000       0.06467848
V        0.00000000       0.00000000       5.88242424       0.00000000       0.00000000      -0.06467848
2
Properties=species:S:1:pos:R:3:forces:R:3 energy=-7.430852372859374 pbc="F F F"
V        0.00000000       0.00000000       0.00000000       0.00000000       0.00000000       0.03195111
V        0.00000000       0.00000000       5.94121212       0.00000000       0.00000000      -0.03195111
2
Properties=species:S:1:pos:R:3:forces:R:3 energy=-7.429470718480337 pbc="F F F"
V        0.00000000       0.00000000       0.00000000       0.00000000       0.00000000       0.01901128
V        0.00000000       0.00000000       6.00000000       0.00000000       0.00000000      -0.01901128
