2
Properties=species:S:1:pos:R:3:forces:R:3 energy=9599.138279432176 pbc="F F F"
Xe       0.00000000       0.00000000       0.00000000       0.00000000       0.00000000 -162232.57812500
Xe       0.00000000       0.00000000       0.18000000       0.00000000       0.00000000  162232.57812500
2
Properties=species:S:1:pos:R:3:forces:R:3 energy=3855.622166150926 pbc="F F F"
Xe       0.00000000       0.00000000       0.00000000       0.00000000       0.00000000  -55369.46875000
Xe       0.00000000       0.00000000       0.23878788       0.00000000       0.00000000   55369.46875000
2
Properties=species:S:1:pos:R:3:forces:R:3 energy=1741.3752179119065 pbc="F F F"
Xe       0.00000000       0.00000000       0.00000000       0.00000000       0.00000000  -22265.09179688
Xe       0.00000000       0.00000000       0.29757576       0.00000000       0.00000000   22265.09179688
2
Properties=species:S:1:pos:R:3:forces:R:3 energy=850.1331524885546 pbc="F F F"
Xe       0.00000000       0.00000000       0.00000000       0.00000000       0.00000000   -9910.94531250
Xe       0.00000000       0.00000000       0.35636364       0.00000000       0.00000000    9910.94531250
2
Properties=species:S:1:pos:R:3:forces:R:3 energy=440.29840518043716 pbc="F F F"
Xe       0.00000000       0.00000000       0.00000000       0.00000000       0.00000000   -4734.15966797
Xe       0.00000000       0.00000000       0.41515152       0.00000000       0.00000000    4734.15966797
2
Properties=species:S:1:pos:R:3:forces:R:3 energy=239.53442815183067 pbc="F F F"
Xe       0.00000000       0.00000000       0.00000000       0.00000000       0.00000000   -2389.50537109
Xe       0.00000000       0.00000000       0.47393939       0.00000000       0.00000000    2389.50537109
2
Properties=species:S:1:pos:R:3:forces:R:3 energy=136.01271492984077 pbc="F F F"
Xe       0.00000000       0.00000000       0.00000000       0.00000000       0.00000000   -1263.85437012
Xe       0.00000000       0.00000000       0.53272727       0.00000000       0.00000000    1263.85437012
2
Properties=species:S:1:pos:R:3:forces:R:3 energy=80.21020187063863 pbc="F F F"
Xe       0.00000000       0.00000000       0.00000000       0.00000000       0.00000000    -696.70983887
Xe       0.00000000       0.00000000       0.59151515       0.00000000       0.00000000     696.70983887
2
Properties=species:S:1:pos:R:3:forces:R:3 energy=48.91884684528793 pbc="F F F"
Xe       0.00000000       0.00000000       0.00000000       0.00000000       0.00000000    -398.54159546
Xe       0.00000000       0.00000000       0.65030303       0.00000000       0.00000000     398.54159546
2
Properties=species:S:1:pos:R:3:forces:R:3 energy=30.745507166264687 pbc="F F F"
Xe       0.00000000       0.00000000       0.00000000       0.00000000       0.00000000    -235.48713684
Xe       0.00000000       0.00000000       0.70909091       0.00000000       0.00000000     235.48713684
2
Properties=species:S:1:pos:R:3:forces:R:3 energy=19.86997336524109 pbc="F F F"
Xe       0.00000000       0.00000000       0.00000000       0.00000000       0.00000000    -142.91307068
Xe       0.00000000       0.00000000       0.76787879       0.00000000       0.00000000     142.91307068
2
Properties=species:S:1:pos:R:3:forces:R:3 energy=13.201906763757338 pbc="F F F"
Xe       0.00000000       0.00000000       0.00000000       0.00000000       0.00000000     -88.61296082
Xe       0.00000000       0.00000000       0.82666667       0.00000000       0.00000000      88.61296082
2
Properties=species:S:1:pos:R:3:forces:R:3 energy=9.032055999186516 pbc="F F F"
Xe       0.00000000       0.00000000       0.00000000       0.00000000       0.00000000     -55.94421768
Xe       0.00000000       0.00000000       0.88545455       0.00000000       0.00000000      55.94421768
2
Properties=species:S:1:pos:R:3:forces:R:3 energy=6.3790964526826315 pbc="F F F"
Xe       0.00000000       0.00000000       0.00000000       0.00000000       0.00000000     -35.90625381
Xe       0.00000000       0.00000000       0.94424242       0.00000000       0.00000000      35.90625381
2
Properties=species:S:1:pos:R:3:forces:R:3 energy=4.664226078837476 pbc="F F F"
Xe       0.00000000       0.00000000       0.00000000       0.00000000       0.00000000     -23.39415741
Xe       0.00000000       0.00000000       1.00303030       0.00000000       0.00000000      23.39415741
2
Properties=species:S:1:pos:R:3:forces:R:3 energy=3.5397860937457004 pbc="F F F"
Xe       0.00000000       0.00000000       0.00000000       0.00000000       0.00000000     -15.44799328
Xe       0.00000000       0.00000000       1.06181818       0.00000000       0.00000000      15.44799328
2
Properties=species:S:1:pos:R:3:forces:R:3 energy=2.7933754344492203 pbc="F F F"
Xe       0.00000000       0.00000000       0.00000000       0.00000000       0.00000000     -10.30657864
Xe       0.00000000       0.00000000       1.12060606       0.00000000       0.00000000      10.30657864
2
Properties=species:S:1:pos:R:3:forces:R:3 energy=2.294615021343588 pbc="F F F"
Xe       0.00000000       0.00000000       0.00000000       0.00000000       0.00000000      -6.88147163
Xe       0.00000000       0.00000000       1.17939394       0.00000000       0.00000000       6.88147163
2
Properties=species:S:1:pos:R:3:forces:R:3 energy=1.963887016670644 pbc="F F F"
Xe       0.00000000       0.00000000       0.00000000       0.00000000       0.00000000      -4.50743246
Xe       0.00000000       0.00000000       1.23818182       0.00000000       0.00000000       4.50743246
2
Properties=species:S:1:pos:R:3:forces:R:3 energy=1.7511861428778919 pbc="F F F"
Xe       0.00000000       0.00000000       0.00000000       0.00000000       0.00000000      -2.82648611
Xe       0.00000000       0.00000000       1.29696970       0.00000000       0.00000000       2.82648611
2
Properties=species:S:1:pos:R:3:forces:R:3 energy=1.621614785774407 pbc="F F F"
Xe       0.00000000       0.00000000       0.00000000       0.00000000       0.00000000      -1.65315771
Xe       0.00000000       0.00000000       1.35575758       0.00000000       0.00000000       1.65315771
2
Properties=species:S:1:pos:R:3:forces:R:3 energy=1.5499470509273197 pbc="F F F"
Xe       0.00000000       0.00000000       0.00000000       0.00000000       0.00000000      -0.83125353
Xe       0.00000000       0.00000000       1.41454545       0.00000000       0.00000000       0.83125353
2
Properties=species:S:1:pos:R:3:forces:R:3 energy=1.519549681172802 pbc="F F F"
Xe       0.00000000       0.00000000       0.00000000       0.00000000       0.00000000      -0.23270310
Xe       0.00000000       0.00000000       1.47333333       0.00000000       0.00000000       0.23270310
2
Properties=species:S:1:pos:R:3:forces:R:3 energy=1.5194832633289947 pbc="F F F"
Xe       0.00000000       0.00000000       0.00000000       0.00000000       0.00000000       0.20550075
Xe       0.00000000       0.00000000       1.53212121       0.00000000       0.00000000      -0.20550075
2
Properties=species:S:1:pos:R:3:forces:R:3 energy=1.5407070495756465 pbc="F F F"
Xe       0.00000000       0.00000000       0.00000000       0.00000000       0.00000000       0.48946628
Xe       0.00000000       0.00000000       1.59090909       0.00000000       0.00000000      -0.48946628
2
Properties=species:S:1:pos:R:3:forces:R:3 energy=1.5735896797548694 pbc="F F F"
Xe       0.00000000       0.00000000       0.00000000       0.00000000       0.00000000       0.59781295
Xe       0.00000000       0.00000000       1.64969697       0.00000000       0.00000000      -0.59781295
2
Properties=species:S:1:pos:R:3:forces:R:3 energy=1.6071369055795623 pbc="F F F"
Xe       0.00000000       0.00000000       0.00000000       0.00000000       0.00000000       0.51023173
Xe       0.00000000       0.00000000       1.70848485       0.00000000       0.00000000      -0.51023173
2
Properties=species:S:1:pos:R:3:forces:R:3 energy=1.6298340870321777 pbc="F F F"
Xe       0.00000000       0.00000000       0.00000000       0.00000000       0.00000000       0.23270282
Xe       0.00000000       0.00000000       1.76727273       0.00000000       0.00000000      -0.23270282
2
Properties=species:S:1:pos:R:3:forces:R:3 energy=1.6315632908166986 pbc="F F F"
Xe       0.00000000       0.00000000       0.00000000       0.00000000       0.00000000      -0.19376057
Xe       0.00000000       0.00000000       1.82606061       0.00000000       0.00000000       0.19376057
2
Properties=species:S:1:pos:R:3:forces:R:3 energy=1.6053952507348117 pbc="F F F"
Xe       0.00000000       0.00000000       0.00000000       0.00000000       0.00000000      -0.70452189
Xe       0.00000000       0.00000000       1.88484848       0.00000000       0.00000000       0.70452189
2
Properties=species:S:1:pos:R:3:forces:R:3 energy=1.5485095758701704 pbc="F F F"
Xe       0.00000000       0.00000000       0.00000000       0.00000000       0.00000000      -1.22662127
Xe       0.00000000       0.00000000       1.94363636       0.00000000       0.00000000       1.22662127
2
Properties=species:S:1:pos:R:3:forces:R:3 energy=1.4623166731812058 pbc="F F F"
Xe       0.00000000       0.00000000       0.00000000       0.00000000       0.00000000      -1.69093812
Xe       0.00000000       0.00000000       2.00242424       0.00000000       0.00000000       1.69093812
2
Properties=species:S:1:pos:R:3:forces:R:3 energy=1.351904535202188 pbc="F F F"
Xe       0.00000000       0.00000000       0.00000000       0.00000000       0.00000000      -2.04332638
Xe       0.00000000       0.00000000       2.06121212       0.00000000       0.00000000       2.04332638
2
Properties=species:S:1:pos:R:3:forces:R:3 energy=1.2249022893755386 pbc="F F F"
Xe       0.00000000       0.00000000       0.00000000       0.00000000       0.00000000      -2.25209761
Xe       0.00000000       0.00000000       2.12000000       0.00000000       0.00000000       2.25209761
2
Properties=species:S:1:pos:R:3:forces:R:3 energy=1.0900908486281604 pbc="F F F"
Xe       0.00000000       0.00000000       0.00000000       0.00000000       0.00000000      -2.30959797
Xe       0.00000000       0.00000000       2.17878788       0.00000000       0.00000000       2.30959797
2
Properties=species:S:1:pos:R:3:forces:R:3 energy=0.9560516550674462 pbc="F F F"
Xe       0.00000000       0.00000000       0.00000000       0.00000000       0.00000000      -2.22977948
Xe       0.00000000       0.00000000       2.23757576       0.00000000       0.00000000       2.22977948
2
Properties=species:S:1:pos:R:3:forces:R:3 energy=0.8300187667988376 pbc="F F F"
Xe       0.00000000       0.00000000       0.00000000       0.00000000       0.00000000      -2.04336238
Xe       0.00000000       0.00000000       2.29636364       0.00000000       0.00000000       2.04336238
2
Properties=species:S:1:pos:R:3:forces:R:3 energy=0.7170942946579363 pbc="F F F"
Xe       0.00000000       0.00000000       0.00000000       0.00000000       0.00000000      -1.79107141
Xe       0.00000000       0.00000000       2.35515152       0.00000000       0.00000000       1.79107141
2
Properties=species:S:1:pos:R:3:forces:R:3 energy=0.6198785959873838 pbc="F F F"
Xe       0.00000000       0.00000000       0.00000000       0.00000000       0.00000000      -1.51580131
Xe       0.00000000       0.00000000       2.41393939       0.00000000       0.00000000       1.51580131
2
Properties=species:S:1:pos:R:3:forces:R:3 energy=0.5385769295211197 pbc="F F F"
Xe       0.00000000       0.00000000       0.00000000       0.00000000       0.00000000      -1.25520205
Xe       0.00000000       0.00000000       2.47272727       0.00000000       0.00000000       1.25520205
2
Properties=species:S:1:pos:R:3:forces:R:3 energy=0.4714759786802507 pbc="F F F"
Xe       0.00000000       0.00000000       0.00000000       0.00000000       0.00000000      -1.03608084
Xe       0.00000000       0.00000000       2.53151515       0.00000000       0.00000000       1.03608084
2
Properties=species:S:1:pos:R:3:forces:R:3 energy=0.41567164775243554 pbc="F F F"
Xe       0.00000000       0.00000000       0.00000000       0.00000000       0.00000000      -0.87205940
Xe       0.00000000       0.00000000       2.59030303       0.00000000       0.00000000       0.87205940
2
Properties=species:S:1:pos:R:3:forces:R:3 energy=0.36782939457975117 pbc="F F F"
Xe       0.00000000       0.00000000       0.00000000       0.00000000       0.00000000      -0.76454574
Xe       0.00000000       0.00000000       2.64909091       0.00000000       0.00000000       0.76454574
2
Properties=species:S:1:pos:R:3:forces:R:3 energy=0.324823309684075 pbc="F F F"
Xe       0.00000000       0.00000000       0.00000000       0.00000000       0.00000000      -0.70561486
Xe       0.00000000       0.00000000       2.70787879       0.00000000       0.00000000       0.70561486
2
Properties=species:S:1:pos:R:3:forces:R:3 energy=0.2841890849328781 pbc="F F F"
Xe       0.00000000       0.00000000       0.00000000       0.00000000       0.00000000      -0.68112528
Xe       0.00000000       0.00000000       2.76666667       0.00000000       0.00000000       0.68112528
2
Properties=species:S:1:pos:R:3:forces:R:3 energy=0.24440574252032285 pbc="F F F"
Xe       0.00000000       0.00000000       0.00000000       0.00000000       0.00000000      -0.67366165
Xe       0.00000000       0.00000000       2.82545455       0.00000000       0.00000000       0.67366165
2
Properties=species:S:1:pos:R:3:forces:R:3 energy=0.20499219672167213 pbc="F F F"
Xe       0.00000000       0.00000000       0.00000000       0.00000000       0.00000000      -0.66585100
Xe       0.00000000       0.00000000       2.88424242       0.00000000       0.00000000       0.66585100
2
Properties=species:S:1:pos:R:3:forces:R:3 energy=0.1663959019754327 pbc="F F F"
Xe       0.00000000       0.00000000       0.00000000       0.00000000       0.00000000      -0.64408094
Xe       0.00000000       0.00000000       2.94303030       0.00000000       0.00000000       0.64408094
2
Properties=species:S:1:pos:R:3:forces:R:3 energy=0.12967726248235376 pbc="F F F"
Xe       0.00000000       0.00000000       0.00000000       0.00000000       0.00000000      -0.60146713
Xe       0.00000000       0.00000000       3.00181818       0.00000000       0.00000000       0.60146713
2
Properties=species:S:1:pos:R:3:forces:R:3 energy=0.09607630139418877 pbc="F F F"
Xe       0.00000000       0.00000000       0.00000000       0.00000000       0.00000000      -0.53873521
Xe       0.00000000       0.00000000       3.06060606       0.00000000       0.00000000       0.53873521
2
Properties=species:S:1:pos:R:3:forces:R:3 energy=0.06659779570899824 pbc="F F F"
Xe       0.00000000       0.00000000       0.00000000       0.00000000       0.00000000      -0.46271816
Xe       0.00000000       0.00000000       3.11939394       0.00000000       0.00000000       0.46271816
2
Properties=species:S:1:pos:R:3:forces:R:3 energy=0.041737936059827715 pbc="F F F"
Xe       0.00000000       0.00000000       0.00000000       0.00000000       0.00000000      -0.38332897
Xe       0.00000000       0.00000000       3.17818182       0.00000000       0.00000000       0.38332897
2
Properties=species:S:1:pos:R:3:forces:R:3 energy=0.021400895644143686 pbc="F F F"
Xe       0.00000000       0.00000000       0.00000000       0.00000000       0.00000000      -0.31031156
Xe       0.00000000       0.00000000       3.23696970       0.00000000       0.00000000       0.31031156
2
Properties=species:S:1:pos:R:3:forces:R:3 energy=0.004985474317518224 pbc="F F F"
Xe       0.00000000       0.00000000       0.00000000       0.00000000       0.00000000      -0.25079611
Xe       0.00000000       0.00000000       3.29575758       0.00000000       0.00000000       0.25079611
2
Properties=species:S:1:pos:R:3:forces:R:3 energy=-0.008418934956841588 pbc="F F F"
Xe       0.00000000       0.00000000       0.00000000       0.00000000       0.00000000      -0.20810524
Xe       0.00000000       0.00000000       3.35454545       0.00000000       0.00000000       0.20810524
2
Properties=species:S:1:pos:R:3:forces:R:3 energy=-0.01980399384735456 pbc="F F F"
Xe       0.00000000       0.00000000       0.00000000       0.00000000       0.00000000      -0.18171254
Xe       0.00000000       0.00000000       3.41333333       0.00000000       0.00000000       0.18171254
2
Properties=species:S:1:pos:R:3:forces:R:3 energy=-0.030034970302368014 pbc="F F F"
Xe       0.00000000       0.00000000       0.00000000       0.00000000       0.00000000      -0.16806507
Xe       0.00000000       0.00000000       3.47212121       0.00000000       0.00000000       0.16806507
2
Properties=species:S:1:pos:R:3:forces:R:3 energy=-0.03971099081049595 pbc="F F F"
Xe       0.00000000       0.00000000       0.00000000       0.00000000       0.00000000      -0.16190000
Xe       0.00000000       0.00000000       3.53090909       0.00000000       0.00000000       0.16190000
2
Properties=species:S:1:pos:R:3:forces:R:3 energy=-0.04910828266510236 pbc="F F F"
Xe       0.00000000       0.00000000       0.00000000       0.00000000       0.00000000      -0.15770391
Xe       0.00000000       0.00000000       3.58969697       0.00000000       0.00000000       0.15770391
2
Properties=species:S:1:pos:R:3:forces:R:3 energy=-0.0582020822063058 pbc="F F F"
Xe       0.00000000       0.00000000       0.00000000       0.00000000       0.00000000      -0.15095796
Xe       0.00000000       0.00000000       3.64848485       0.00000000       0.00000000       0.15095796
2
Properties=species:S:1:pos:R:3:forces:R:3 energy=-0.06675162194795194 pbc="F F F"
Xe       0.00000000       0.00000000       0.00000000       0.00000000       0.00000000      -0.13889019
Xe       0.00000000       0.00000000       3.70727273       0.00000000       0.00000000       0.13889019
2
Properties=species:S:1:pos:R:3:forces:R:3 energy=-0.07441031981116147 pbc="F F F"
Xe       0.00000000       0.00000000       0.00000000       0.00000000       0.00000000      -0.12065382
Xe       0.00000000       0.00000000       3.76606061       0.00000000       0.00000000       0.12065382
2
Properties=species:S:1:pos:R:3:forces:R:3 energy=-0.08083127768643211 pbc="F F F"
Xe       0.00000000       0.00000000       0.00000000       0.00000000       0.00000000      -0.09702377
Xe       0.00000000       0.00000000       3.82484848       0.00000000       0.00000000       0.09702377
2
Properties=species:S:1:pos:R:3:forces:R:3 energy=-0.0857477409747057 pbc="F F F"
Xe       0.00000000       0.00000000       0.00000000       0.00000000       0.00000000      -0.06982231
Xe       0.00000000       0.00000000       3.88363636       0.00000000       0.00000000       0.06982231
2
Properties=species:S:1:pos:R:3:forces:R:3 energy=-0.08901500084288602 pbc="F F F"
Xe       0.00000000       0.00000000       0.00000000       0.00000000       0.00000000      -0.04130323
Xe       0.00000000       0.00000000       3.94242424       0.00000000       0.00000000       0.04130323
2
Properties=species:S:1:pos:R:3:forces:R:3 energy=-0.0906209492366695 pbc="F F F"
Xe       0.00000000       0.00000000       0.00000000       0.00000000       0.00000000      -0.01363965
Xe       0.00000000       0.00000000       4.00121212       0.00000000       0.00000000       0.01363965
2
Properties=species:S:1:pos:R:3:forces:R:3 energy=-0.09067045052678036 pbc="F F F"
Xe       0.00000000       0.00000000       0.00000000       0.00000000       0.00000000       0.01140037
Xe       0.00000000       0.00000000       4.06000000       0.00000000       0.00000000      -0.01140037
2
Properties=species:S:1:pos:R:3:forces:R:3 energy=-0.08935622086169179 pbc="F F F"
Xe       0.00000000       0.00000000       0.00000000       0.00000000       0.00000000       0.03259942
Xe       0.00000000       0.00000000       4.11878788       0.00000000       0.00000000      -0.03259942
2
Properties=species:S:1:pos:R:3:forces:R:3 energy=-0.08692586193233069 pbc="F F F"
Xe       0.00000000       0.00000000       0.00000000       0.00000000       0.00000000       0.04930609
Xe       0.00000000       0.00000000       4.17757576       0.00000000       0.00000000      -0.04930609
2
Properties=species:S:1:pos:R:3:forces:R:3 energy=-0.0836504273884982 pbc="F F F"
Xe       0.00000000       0.00000000       0.00000000       0.00000000       0.00000000       0.06135728
Xe       0.00000000       0.00000000       4.23636364       0.00000000       0.00000000      -0.06135728
2
Properties=species:S:1:pos:R:3:forces:R:3 energy=-0.0797988379610589 pbc="F F F"
Xe       0.00000000       0.00000000       0.00000000       0.00000000       0.00000000       0.06897146
Xe       0.00000000       0.00000000       4.29515152       0.00000000       0.00000000      -0.06897146
2
Properties=species:S:1:pos:R:3:forces:R:3 energy=-0.07561870531338087 pbc="F F F"
Xe       0.00000000       0.00000000       0.00000000       0.00000000       0.00000000       0.07263291
Xe       0.00000000       0.00000000       4.35393939       0.00000000       0.00000000      -0.07263291
2
Properties=species:S:1:pos:R:3:forces:R:3 energy=-0.07132375558525912 pbc="F F F"
Xe       0.00000000       0.00000000       0.00000000       0.00000000       0.00000000       0.07299186
Xe       0.00000000       0.00000000       4.41272727       0.00000000       0.00000000      -0.07299186
2
Properties=species:S:1:pos:R:3:forces:R:3 energy=-0.06708692669547262 pbc="F F F"
Xe       0.00000000       0.00000000       0.00000000       0.00000000       0.00000000       0.07078367
Xe       0.00000000       0.00000000       4.47151515       0.00000000       0.00000000      -0.07078367
2
Properties=species:S:1:pos:R:3:forces:R:3 energy=-0.06303675196983827 pbc="F F F"
Xe       0.00000000       0.00000000       0.00000000       0.00000000       0.00000000       0.06676560
Xe       0.00000000       0.00000000       4.53030303       0.00000000       0.00000000      -0.06676560
2
Properties=species:S:1:pos:R:3:forces:R:3 energy=-0.05925809390839848 pbc="F F F"
Xe       0.00000000       0.00000000       0.00000000       0.00000000       0.00000000       0.06166255
Xe       0.00000000       0.00000000       4.58909091       0.00000000       0.00000000      -0.06166255
2
Properties=species:S:1:pos:R:3:forces:R:3 energy=-0.05579532669827231 pbc="F F F"
Xe       0.00000000       0.00000000       0.00000000       0.00000000       0.00000000       0.05612088
Xe       0.00000000       0.00000000       4.64787879       0.00000000       0.00000000      -0.05612088
2
Properties=species:S:1:pos:R:3:forces:R:3 energy=-0.05265785668688852 pbc="F F F"
Xe       0.00000000       0.00000000       0.00000000       0.00000000       0.00000000       0.05066524
Xe       0.00000000       0.00000000       4.70666667       0.00000000       0.00000000      -0.05066524
2
Properties=species:S:1:pos:R:3:forces:R:3 energy=-0.04982912447075241 pbc="F F F"
Xe       0.00000000       0.00000000       0.00000000       0.00000000       0.00000000       0.04567045
Xe       0.00000000       0.00000000       4.76545455       0.00000000       0.00000000      -0.04567045
2
Properties=species:S:1:pos:R:3:forces:R:3 energy=-0.04727487624333801 pbc="F F F"
Xe       0.00000000       0.00000000       0.00000000       0.00000000       0.00000000       0.04134330
Xe       0.00000000       0.00000000       4.82424242       0.00000000       0.00000000      -0.04134330
2
Properties=species:S:1:pos:R:3:forces:R:3 energy=-0.0449542653636722 pbc="F F F"
Xe       0.00000000       0.00000000       0.00000000       0.00000000       0.00000000       0.03772270
Xe       0.00000000       0.00000000       4.88303030       0.00000000       0.00000000      -0.03772270
2
Properties=species:S:1:pos:R:3:forces:R:3 energy=-0.042828001048381165 pbc="F F F"
Xe       0.00000000       0.00000000       0.00000000       0.00000000       0.00000000       0.03469266
Xe       0.00000000       0.00000000       4.94181818       0.00000000       0.00000000      -0.03469266
2
Properties=species:S:1:pos:R:3:forces:R:3 energy=-0.040868025866191496 pbc="F F F"
Xe       0.00000000       0.00000000       0.00000000       0.00000000       0.00000000       0.03202602
Xe       0.00000000       0.00000000       5.00060606       0.00000000       0.00000000      -0.03202602
2
Properties=species:S:1:pos:R:3:forces:R:3 energy=-0.03906036295691565 pbc="F F F"
Xe       0.00000000       0.00000000       0.00000000       0.00000000       0.00000000       0.02947077
Xe       0.00000000       0.00000000       5.05939394       0.00000000       0.00000000      -0.02947077
2
Properties=species:S:1:pos:R:3:forces:R:3 energy=-0.03740333673635973 pbc="F F F"
Xe       0.00000000       0.00000000       0.00000000       0.00000000       0.00000000       0.02690824
Xe       0.00000000       0.00000000       5.11818182       0.00000000       0.00000000      -0.02690824
2
Properties=species:S:1:pos:R:3:forces:R:3 energy=-0.03589316294248872 pbc="F F F"
Xe       0.00000000       0.00000000       0.00000000       0.00000000       0.00000000       0.02453732
Xe       0.00000000       0.00000000       5.17696970       0.00000000       0.00000000      -0.02453732
2
Properties=species:S:1:pos:R:3:forces:R:3 energy=-0.03450458008571715 pbc="F F F"
Xe       0.00000000       0.00000000       0.00000000       0.00000000       0.00000000       0.02286463
Xe       0.00000000       0.00000000       5.23575758       0.00000000       0.00000000      -0.02286463
2
Properties=species:S:1:pos:R:3:forces:R:3 energy=-0.033184551097950696 pbc="F F F"
Xe       0.00000000       0.00000000       0.00000000       0.00000000       0.00000000       0.02219650
Xe       0.00000000       0.00000000       5.29454545       0.00000000       0.00000000      -0.02219650
2
Properties=species:S:1:pos:R:3:forces:R:3 energy=-0.03188472373361035 pbc="F F F"
Xe       0.00000000       0.00000000       0.00000000       0.00000000       0.00000000       0.02202477
Xe       0.00000000       0.00000000       5.35333333       0.00000000       0.00000000      -0.02202477
2
Properties=species:S:1:pos:R:3:forces:R:3 energy=-0.03060316816466822 pbc="F F F"
Xe       0.00000000       0.00000000       0.00000000       0.00000000       0.00000000       0.02146776
Xe       0.00000000       0.00000000       5.41212121       0.00000000       0.00000000      -0.02146776
2
Properties=species:S:1:pos:R:3:forces:R:3 energy=-0.02937144255149784 pbc="F F F"
Xe       0.00000000       0.00000000       0.00000000       0.00000000       0.00000000       0.02039088
Xe       0.00000000       0.00000000       5.47090909       0.00000000       0.00000000      -0.02039088
2
Properties=species:S:1:pos:R:3:forces:R:3 energy=-0.028202365424093226 pbc="F F F"
Xe       0.00000000       0.00000000       0.00000000       0.00000000       0.00000000       0.01946980
Xe       0.00000000       0.00000000       5.52969697       0.00000000       0.00000000      -0.01946980
2
Properties=species:S:1:pos:R:3:forces:R:3 energy=-0.027069501167610695 pbc="F F F"
Xe       0.00000000       0.00000000       0.00000000       0.00000000       0.00000000       0.01915371
Xe       0.00000000       0.00000000       5.58848485       0.00000000       0.00000000      -0.01915371
2
Properties=species:S:1:pos:R:3:forces:R:3 energy=-0.02595246160528404 pbc="F F F"
Xe       0.00000000       0.00000000       0.00000000       0.00000000       0.00000000       0.01872750
Xe       0.00000000       0.00000000       5.64727273       0.00000000       0.00000000      -0.01872750
2
Properties=species:S:1:pos:R:3:forces:R:3 energy=-0.02489608312851843 pbc="F F F"
Xe       0.00000000       0.00000000       0.00000000       0.00000000       0.00000000       0.01690924
Xe       0.00000000       0.00000000       5.70606061       0.00000000       0.00000000      -0.01690924
2
Properties=species:S:1:pos:R:3:forces:R:3 energy=-0.02399256145005293 pbc="F F F"
Xe       0.00000000       0.00000000       0.00000000       0.00000000       0.00000000       0.01363956
Xe       0.00000000       0.00000000       5.76484848       0.00000000       0.00000000      -0.01363956
2
Properties=species:S:1:pos:R:3:forces:R:3 energy=-0.023295464453291413 pbc="F F F"
Xe       0.00000000       0.00000000       0.00000000       0.00000000       0.00000000       0.01015578
Xe       0.00000000       0.00000000       5.82363636       0.00000000       0.00000000      -0.01015578
2
Properties=species:S:1:pos:R:3:forces:R:3 energy=-0.02278380057944058 pbc="F F F"
Xe       0.00000000       0.00000000       0.00000000       0.00000000       0.00000000       0.00743730
Xe       0.00000000       0.00000000       5.88242424       0.00000000       0.00000000      -0.00743730
2
Properties=species:S:1:pos:R:3:forces:R:3 energy=-0.022402161219596428 pbc="F F F"
Xe       0.00000000       0.00000000       0.00000000       0.00000000       0.00000000       0.00569385
Xe       0.00000000       0.00000000       5.94121212       0.00000000       0.00000000      -0.00569385
2
Properties=species:S:1:pos:R:3:forces:R:3 energy=-0.02209562274055956 pbc="F F F"
Xe       0.00000000       0.00000000       0.00000000       0.00000000       0.00000000       0.00489970
Xe       0.00000000       0.00000000       6.00000000       0.00000000       0.00000000      -0.00489970
