2
Properties=species:S:1:pos:R:3:forces:R:3 energy=13709.478970392882 pbc="F F F"
Yb       0.00000000       0.00000000       0.00000000       0.00000000       0.00000000 -239064.56250000
Yb       0.00000000       0.00000000       0.18000000       0.00000000       0.00000000  239064.56250000
2
Properties=species:S:1:pos:R:3:forces:R:3 energy=5338.548306330382 pbc="F F F"
Yb       0.00000000       0.00000000       0.00000000       0.00000000       0.00000000  -79435.59375000
Yb       0.00000000       0.00000000       0.23878788       0.00000000       0.00000000   79435.59375000
2
Properties=species:S:1:pos:R:3:forces:R:3 energy=2340.7248200022564 pbc="F F F"
Yb       0.00000000       0.00000000       0.00000000       0.00000000       0.00000000  -31061.15820312
Yb       0.00000000       0.00000000       0.29757576       0.00000000       0.00000000   31061.15820312
2
Properties=species:S:1:pos:R:3:forces:R:3 energy=1112.6578034070296 pbc="F F F"
Yb       0.00000000       0.00000000       0.00000000       0.00000000       0.00000000  -13438.03515625
Yb       0.00000000       0.00000000       0.35636364       0.00000000       0.00000000   13438.03515625
2
Properties=species:S:1:pos:R:3:forces:R:3 energy=563.5575836804671 pbc="F F F"
Yb       0.00000000       0.00000000       0.00000000       0.00000000       0.00000000   -6249.73974609
Yb       0.00000000       0.00000000       0.41515152       0.00000000       0.00000000    6249.73974609
2
Properties=species:S:1:pos:R:3:forces:R:3 energy=301.33007514188085 pbc="F F F"
Yb       0.00000000       0.00000000       0.00000000       0.00000000       0.00000000   -3081.56152344
Yb       0.00000000       0.00000000       0.47393939       0.00000000       0.00000000    3081.56152344
2
Properties=species:S:1:pos:R:3:forces:R:3 energy=169.03464973951307 pbc="F F F"
Yb       0.00000000       0.00000000       0.00000000       0.00000000       0.00000000   -1598.03515625
Yb       0.00000000       0.00000000       0.53272727       0.00000000       0.00000000    1598.03515625
2
Properties=species:S:1:pos:R:3:forces:R:3 energy=99.0281571564452 pbc="F F F"
Yb       0.00000000       0.00000000       0.00000000       0.00000000       0.00000000    -865.97650146
Yb       0.00000000       0.00000000       0.59151515       0.00000000       0.00000000     865.97650146
2
Properties=species:S:1:pos:R:3:forces:R:3 energy=60.428368528687585 pbc="F F F"
Yb       0.00000000       0.00000000       0.00000000       0.00000000       0.00000000    -487.00103760
Yb       0.00000000       0.00000000       0.65030303       0.00000000       0.00000000     487.00103760
2
Properties=species:S:1:pos:R:3:forces:R:3 energy=38.41783240453202 pbc="F F F"
Yb       0.00000000       0.00000000       0.00000000       0.00000000       0.00000000    -281.94036865
Yb       0.00000000       0.00000000       0.70909091       0.00000000       0.00000000     281.94036865
2
Properties=species:S:1:pos:R:3:forces:R:3 energy=25.545262461724885 pbc="F F F"
Yb       0.00000000       0.00000000       0.00000000       0.00000000       0.00000000    -166.69827271
Yb       0.00000000       0.00000000       0.76787879       0.00000000       0.00000000     166.69827271
2
Properties=species:S:1:pos:R:3:forces:R:3 energy=17.870759287364333 pbc="F F F"
Yb       0.00000000       0.00000000       0.00000000       0.00000000       0.00000000    -100.42465973
Yb       0.00000000       0.00000000       0.82666667       0.00000000       0.00000000     100.42465973
2
Properties=species:S:1:pos:R:3:forces:R:3 energy=13.19399978926325 pbc="F F F"
Yb       0.00000000       0.00000000       0.00000000       0.00000000       0.00000000     -62.16037750
Yb       0.00000000       0.00000000       0.88545455       0.00000000       0.00000000      62.16037750
2
Properties=species:S:1:pos:R:3:forces:R:3 energy=10.254930339113729 pbc="F F F"
Yb       0.00000000       0.00000000       0.00000000       0.00000000       0.00000000     -39.73339081
Yb       0.00000000       0.00000000       0.94424242       0.00000000       0.00000000      39.73339081
2
Properties=species:S:1:pos:R:3:forces:R:3 energy=8.355325953567327 pbc="F F F"
Yb       0.00000000       0.00000000       0.00000000       0.00000000       0.00000000     -25.95872688
Yb       0.00000000       0.00000000       1.00303030       0.00000000       0.00000000      25.95872688
2
Properties=species:S:1:pos:R:3:forces:R:3 energy=7.102447374678438 pbc="F F F"
Yb       0.00000000       0.00000000       0.00000000       0.00000000       0.00000000     -17.36257935
Yb       0.00000000       0.00000000       1.06181818       0.00000000       0.00000000      17.36257935
2
Properties=species:S:1:pos:R:3:forces:R:3 energy=6.24492705248427 pbc="F F F"
Yb       0.00000000       0.00000000       0.00000000       0.00000000       0.00000000     -12.30316830
Yb       0.00000000       0.00000000       1.12060606       0.00000000       0.00000000      12.30316830
2
Properties=species:S:1:pos:R:3:forces:R:3 energy=5.607268472124712 pbc="F F F"
Yb       0.00000000       0.00000000       0.00000000       0.00000000       0.00000000      -9.72981548
Yb       0.00000000       0.00000000       1.17939394       0.00000000       0.00000000       9.72981548
2
Properties=species:S:1:pos:R:3:forces:R:3 energy=5.06952282663741 pbc="F F F"
Yb       0.00000000       0.00000000       0.00000000       0.00000000       0.00000000      -8.75922585
Yb       0.00000000       0.00000000       1.23818182       0.00000000       0.00000000       8.75922585
2
Properties=species:S:1:pos:R:3:forces:R:3 energy=4.562340400929928 pbc="F F F"
Yb       0.00000000       0.00000000       0.00000000       0.00000000       0.00000000      -8.56671524
Yb       0.00000000       0.00000000       1.29696970       0.00000000       0.00000000       8.56671524
2
Properties=species:S:1:pos:R:3:forces:R:3 energy=4.058449529776533 pbc="F F F"
Yb       0.00000000       0.00000000       0.00000000       0.00000000       0.00000000      -8.58031368
Yb       0.00000000       0.00000000       1.35575758       0.00000000       0.00000000       8.58031368
2
Properties=species:S:1:pos:R:3:forces:R:3 energy=3.555267036571678 pbc="F F F"
Yb       0.00000000       0.00000000       0.00000000       0.00000000       0.00000000      -8.50713634
Yb       0.00000000       0.00000000       1.41454545       0.00000000       0.00000000       8.50713634
2
Properties=species:S:1:pos:R:3:forces:R:3 energy=3.0633454353323515 pbc="F F F"
Yb       0.00000000       0.00000000       0.00000000       0.00000000       0.00000000      -8.17548180
Yb       0.00000000       0.00000000       1.47333333       0.00000000       0.00000000       8.17548180
2
Properties=species:S:1:pos:R:3:forces:R:3 energy=2.600451309441997 pbc="F F F"
Yb       0.00000000       0.00000000       0.00000000       0.00000000       0.00000000      -7.52144384
Yb       0.00000000       0.00000000       1.53212121       0.00000000       0.00000000       7.52144384
2
Properties=species:S:1:pos:R:3:forces:R:3 energy=2.183684655615111 pbc="F F F"
Yb       0.00000000       0.00000000       0.00000000       0.00000000       0.00000000      -6.63246918
Yb       0.00000000       0.00000000       1.59090909       0.00000000       0.00000000       6.63246918
2
Properties=species:S:1:pos:R:3:forces:R:3 energy=1.821702604514335 pbc="F F F"
Yb       0.00000000       0.00000000       0.00000000       0.00000000       0.00000000      -5.68646526
Yb       0.00000000       0.00000000       1.64969697       0.00000000       0.00000000       5.68646526
2
Properties=species:S:1:pos:R:3:forces:R:3 energy=1.5137687203306416 pbc="F F F"
Yb       0.00000000       0.00000000       0.00000000       0.00000000       0.00000000      -4.80410719
Yb       0.00000000       0.00000000       1.70848485       0.00000000       0.00000000       4.80410719
2
Properties=species:S:1:pos:R:3:forces:R:3 energy=1.255178874953683 pbc="F F F"
Yb       0.00000000       0.00000000       0.00000000       0.00000000       0.00000000      -4.00627565
Yb       0.00000000       0.00000000       1.76727273       0.00000000       0.00000000       4.00627565
2
Properties=species:S:1:pos:R:3:forces:R:3 energy=1.0414047613039101 pbc="F F F"
Yb       0.00000000       0.00000000       0.00000000       0.00000000       0.00000000      -3.27595520
Yb       0.00000000       0.00000000       1.82606061       0.00000000       0.00000000       3.27595520
2
Properties=species:S:1:pos:R:3:forces:R:3 energy=0.8690391354676427 pbc="F F F"
Yb       0.00000000       0.00000000       0.00000000       0.00000000       0.00000000      -2.59535789
Yb       0.00000000       0.00000000       1.88484848       0.00000000       0.00000000       2.59535789
2
Properties=species:S:1:pos:R:3:forces:R:3 energy=0.7353929336478967 pbc="F F F"
Yb       0.00000000       0.00000000       0.00000000       0.00000000       0.00000000      -1.95951378
Yb       0.00000000       0.00000000       1.94363636       0.00000000       0.00000000       1.95951378
2
Properties=species:S:1:pos:R:3:forces:R:3 energy=0.6374831219396563 pbc="F F F"
Yb       0.00000000       0.00000000       0.00000000       0.00000000       0.00000000      -1.38380134
Yb       0.00000000       0.00000000       2.00242424       0.00000000       0.00000000       1.38380134
2
Properties=species:S:1:pos:R:3:forces:R:3 energy=0.5708798993183594 pbc="F F F"
Yb       0.00000000       0.00000000       0.00000000       0.00000000       0.00000000      -0.90059245
Yb       0.00000000       0.00000000       2.06121212       0.00000000       0.00000000       0.90059245
2
Properties=species:S:1:pos:R:3:forces:R:3 energy=0.5291162782033774 pbc="F F F"
Yb       0.00000000       0.00000000       0.00000000       0.00000000       0.00000000      -0.54324716
Yb       0.00000000       0.00000000       2.12000000       0.00000000       0.00000000       0.54324716
2
Properties=species:S:1:pos:R:3:forces:R:3 energy=0.5042438456694978 pbc="F F F"
Yb       0.00000000       0.00000000       0.00000000       0.00000000       0.00000000      -0.32589203
Yb       0.00000000       0.00000000       2.17878788       0.00000000       0.00000000       0.32589203
2
Properties=species:S:1:pos:R:3:forces:R:3 energy=0.4882905726808886 pbc="F F F"
Yb       0.00000000       0.00000000       0.00000000       0.00000000       0.00000000      -0.23600700
Yb       0.00000000       0.00000000       2.23757576       0.00000000       0.00000000       0.23600700
2
Properties=species:S:1:pos:R:3:forces:R:3 energy=0.47454493139044673 pbc="F F F"
Yb       0.00000000       0.00000000       0.00000000       0.00000000       0.00000000      -0.24566726
Yb       0.00000000       0.00000000       2.29636364       0.00000000       0.00000000       0.24566726
2
Properties=species:S:1:pos:R:3:forces:R:3 energy=0.45801249722904724 pbc="F F F"
Yb       0.00000000       0.00000000       0.00000000       0.00000000       0.00000000      -0.32661951
Yb       0.00000000       0.00000000       2.35515152       0.00000000       0.00000000       0.32661951
2
Properties=species:S:1:pos:R:3:forces:R:3 energy=0.43518581278821933 pbc="F F F"
Yb       0.00000000       0.00000000       0.00000000       0.00000000       0.00000000      -0.45659235
Yb       0.00000000       0.00000000       2.41393939       0.00000000       0.00000000       0.45659235
2
Properties=species:S:1:pos:R:3:forces:R:3 energy=0.40371036339082506 pbc="F F F"
Yb       0.00000000       0.00000000       0.00000000       0.00000000       0.00000000      -0.61818600
Yb       0.00000000       0.00000000       2.47272727       0.00000000       0.00000000       0.61818600
2
Properties=species:S:1:pos:R:3:forces:R:3 energy=0.3621872432432418 pbc="F F F"
Yb       0.00000000       0.00000000       0.00000000       0.00000000       0.00000000      -0.79581463
Yb       0.00000000       0.00000000       2.53151515       0.00000000       0.00000000       0.79581463
2
Properties=species:S:1:pos:R:3:forces:R:3 energy=0.31013600273473446 pbc="F F F"
Yb       0.00000000       0.00000000       0.00000000       0.00000000       0.00000000      -0.97374749
Yb       0.00000000       0.00000000       2.59030303       0.00000000       0.00000000       0.97374749
2
Properties=species:S:1:pos:R:3:forces:R:3 energy=0.2479986032268422 pbc="F F F"
Yb       0.00000000       0.00000000       0.00000000       0.00000000       0.00000000      -1.13636744
Yb       0.00000000       0.00000000       2.64909091       0.00000000       0.00000000       1.13636744
2
Properties=species:S:1:pos:R:3:forces:R:3 energy=0.1770976081468672 pbc="F F F"
Yb       0.00000000       0.00000000       0.00000000       0.00000000       0.00000000      -1.26992249
Yb       0.00000000       0.00000000       2.70787879       0.00000000       0.00000000       1.26992249
2
Properties=species:S:1:pos:R:3:forces:R:3 energy=0.09945906732591919 pbc="F F F"
Yb       0.00000000       0.00000000       0.00000000       0.00000000       0.00000000      -1.36419463
Yb       0.00000000       0.00000000       2.76666667       0.00000000       0.00000000       1.36419463
2
Properties=species:S:1:pos:R:3:forces:R:3 energy=0.01759651843779804 pbc="F F F"
Yb       0.00000000       0.00000000       0.00000000       0.00000000       0.00000000      -1.41289783
Yb       0.00000000       0.00000000       2.82545455       0.00000000       0.00000000       1.41289783
2
Properties=species:S:1:pos:R:3:forces:R:3 energy=-0.0657091356440395 pbc="F F F"
Yb       0.00000000       0.00000000       0.00000000       0.00000000       0.00000000      -1.41298425
Yb       0.00000000       0.00000000       2.88424242       0.00000000       0.00000000       1.41298425
2
Properties=species:S:1:pos:R:3:forces:R:3 energy=-0.14757153160861758 pbc="F F F"
Yb       0.00000000       0.00000000       0.00000000       0.00000000       0.00000000      -1.36391723
Yb       0.00000000       0.00000000       2.94303030       0.00000000       0.00000000       1.36391723
2
Properties=species:S:1:pos:R:3:forces:R:3 energy=-0.2251490342101562 pbc="F F F"
Yb       0.00000000       0.00000000       0.00000000       0.00000000       0.00000000      -1.26783001
Yb       0.00000000       0.00000000       3.00181818       0.00000000       0.00000000       1.26783001
2
Properties=species:S:1:pos:R:3:forces:R:3 energy=-0.2958250316999843 pbc="F F F"
Yb       0.00000000       0.00000000       0.00000000       0.00000000       0.00000000      -1.13043654
Yb       0.00000000       0.00000000       3.06060606       0.00000000       0.00000000       1.13043654
2
Properties=species:S:1:pos:R:3:forces:R:3 energy=-0.3574435567391349 pbc="F F F"
Yb       0.00000000       0.00000000       0.00000000       0.00000000       0.00000000      -0.96169233
Yb       0.00000000       0.00000000       3.11939394       0.00000000       0.00000000       0.96169233
2
Properties=species:S:1:pos:R:3:forces:R:3 energy=-0.4085494979305087 pbc="F F F"
Yb       0.00000000       0.00000000       0.00000000       0.00000000       0.00000000      -0.77529001
Yb       0.00000000       0.00000000       3.17818182       0.00000000       0.00000000       0.77529001
2
Properties=species:S:1:pos:R:3:forces:R:3 energy=-0.4485575644926403 pbc="F F F"
Yb       0.00000000       0.00000000       0.00000000       0.00000000       0.00000000      -0.58676511
Yb       0.00000000       0.00000000       3.23696970       0.00000000       0.00000000       0.58676511
2
Properties=species:S:1:pos:R:3:forces:R:3 energy=-0.4777860969414314 pbc="F F F"
Yb       0.00000000       0.00000000       0.00000000       0.00000000       0.00000000      -0.41076919
Yb       0.00000000       0.00000000       3.29575758       0.00000000       0.00000000       0.41076919
2
Properties=species:S:1:pos:R:3:forces:R:3 energy=-0.4973228404739679 pbc="F F F"
Yb       0.00000000       0.00000000       0.00000000       0.00000000       0.00000000      -0.25850725
Yb       0.00000000       0.00000000       3.35454545       0.00000000       0.00000000       0.25850725
2
Properties=species:S:1:pos:R:3:forces:R:3 energy=-0.5087705493007669 pbc="F F F"
Yb       0.00000000       0.00000000       0.00000000       0.00000000       0.00000000      -0.13616973
Yb       0.00000000       0.00000000       3.41333333       0.00000000       0.00000000       0.13616973
2
Properties=species:S:1:pos:R:3:forces:R:3 energy=-0.5139421379821265 pbc="F F F"
Yb       0.00000000       0.00000000       0.00000000       0.00000000       0.00000000      -0.04477708
Yb       0.00000000       0.00000000       3.47212121       0.00000000       0.00000000       0.04477708
2
Properties=species:S:1:pos:R:3:forces:R:3 energy=-0.5145806949449373 pbc="F F F"
Yb       0.00000000       0.00000000       0.00000000       0.00000000       0.00000000       0.01887290
Yb       0.00000000       0.00000000       3.53090909       0.00000000       0.00000000      -0.01887290
2
Properties=species:S:1:pos:R:3:forces:R:3 energy=-0.5121503063174878 pbc="F F F"
Yb       0.00000000       0.00000000       0.00000000       0.00000000       0.00000000       0.06076869
Yb       0.00000000       0.00000000       3.58969697       0.00000000       0.00000000      -0.06076869
2
Properties=species:S:1:pos:R:3:forces:R:3 energy=-0.5077194298145236 pbc="F F F"
Yb       0.00000000       0.00000000       0.00000000       0.00000000       0.00000000       0.08816973
Yb       0.00000000       0.00000000       3.64848485       0.00000000       0.00000000      -0.08816973
2
Properties=species:S:1:pos:R:3:forces:R:3 energy=-0.5019281344813469 pbc="F F F"
Yb       0.00000000       0.00000000       0.00000000       0.00000000       0.00000000       0.10815378
Yb       0.00000000       0.00000000       3.70727273       0.00000000       0.00000000      -0.10815378
2
Properties=species:S:1:pos:R:3:forces:R:3 energy=-0.49503675896678584 pbc="F F F"
Yb       0.00000000       0.00000000       0.00000000       0.00000000       0.00000000       0.12633805
Yb       0.00000000       0.00000000       3.76606061       0.00000000       0.00000000      -0.12633805
2
Properties=species:S:1:pos:R:3:forces:R:3 energy=-0.48704258503149533 pbc="F F F"
Yb       0.00000000       0.00000000       0.00000000       0.00000000       0.00000000       0.14602788
Yb       0.00000000       0.00000000       3.82484848       0.00000000       0.00000000      -0.14602788
2
Properties=species:S:1:pos:R:3:forces:R:3 energy=-0.4778212591951248 pbc="F F F"
Yb       0.00000000       0.00000000       0.00000000       0.00000000       0.00000000       0.16800649
Yb       0.00000000       0.00000000       3.88363636       0.00000000       0.00000000      -0.16800649
2
Properties=species:S:1:pos:R:3:forces:R:3 energy=-0.4672686224485659 pbc="F F F"
Yb       0.00000000       0.00000000       0.00000000       0.00000000       0.00000000       0.19099389
Yb       0.00000000       0.00000000       3.94242424       0.00000000       0.00000000      -0.19099389
2
Properties=species:S:1:pos:R:3:forces:R:3 energy=-0.4553929282668575 pbc="F F F"
Yb       0.00000000       0.00000000       0.00000000       0.00000000       0.00000000       0.21257205
Yb       0.00000000       0.00000000       4.00121212       0.00000000       0.00000000      -0.21257205
2
Properties=species:S:1:pos:R:3:forces:R:3 energy=-0.44235274787147005 pbc="F F F"
Yb       0.00000000       0.00000000       0.00000000       0.00000000       0.00000000       0.23021562
Yb       0.00000000       0.00000000       4.06000000       0.00000000       0.00000000      -0.23021562
2
Properties=species:S:1:pos:R:3:forces:R:3 energy=-0.42843938686009625 pbc="F F F"
Yb       0.00000000       0.00000000       0.00000000       0.00000000       0.00000000       0.24206679
Yb       0.00000000       0.00000000       4.11878788       0.00000000       0.00000000      -0.24206679
2
Properties=species:S:1:pos:R:3:forces:R:3 energy=-0.414022086947324 pbc="F F F"
Yb       0.00000000       0.00000000       0.00000000       0.00000000       0.00000000       0.24728598
Yb       0.00000000       0.00000000       4.17757576       0.00000000       0.00000000      -0.24728598
2
Properties=species:S:1:pos:R:3:forces:R:3 energy=-0.399492035612413 pbc="F F F"
Yb       0.00000000       0.00000000       0.00000000       0.00000000       0.00000000       0.24600844
Yb       0.00000000       0.00000000       4.23636364       0.00000000       0.00000000      -0.24600844
2
Properties=species:S:1:pos:R:3:forces:R:3 energy=-0.38520864072357325 pbc="F F F"
Yb       0.00000000       0.00000000       0.00000000       0.00000000       0.00000000       0.23905361
Yb       0.00000000       0.00000000       4.29515152       0.00000000       0.00000000      -0.23905361
2
Properties=species:S:1:pos:R:3:forces:R:3 energy=-0.3714739467661208 pbc="F F F"
Yb       0.00000000       0.00000000       0.00000000       0.00000000       0.00000000       0.22757052
Yb       0.00000000       0.00000000       4.35393939       0.00000000       0.00000000      -0.22757052
2
Properties=species:S:1:pos:R:3:forces:R:3 energy=-0.35851754219606075 pbc="F F F"
Yb       0.00000000       0.00000000       0.00000000       0.00000000       0.00000000       0.21275553
Yb       0.00000000       0.00000000       4.41272727       0.00000000       0.00000000      -0.21275553
2
Properties=species:S:1:pos:R:3:forces:R:3 energy=-0.3465022617711063 pbc="F F F"
Yb       0.00000000       0.00000000       0.00000000       0.00000000       0.00000000       0.19572484
Yb       0.00000000       0.00000000       4.47151515       0.00000000       0.00000000      -0.19572484
2
Properties=species:S:1:pos:R:3:forces:R:3 energy=-0.33552775801564605 pbc="F F F"
Yb       0.00000000       0.00000000       0.00000000       0.00000000       0.00000000       0.17752147
Yb       0.00000000       0.00000000       4.53030303       0.00000000       0.00000000      -0.17752147
2
Properties=species:S:1:pos:R:3:forces:R:3 energy=-0.3256323362934435 pbc="F F F"
Yb       0.00000000       0.00000000       0.00000000       0.00000000       0.00000000       0.15920524
Yb       0.00000000       0.00000000       4.58909091       0.00000000       0.00000000      -0.15920524
2
Properties=species:S:1:pos:R:3:forces:R:3 energy=-0.3167895759958447 pbc="F F F"
Yb       0.00000000       0.00000000       0.00000000       0.00000000       0.00000000       0.14189962
Yb       0.00000000       0.00000000       4.64787879       0.00000000       0.00000000      -0.14189962
2
Properties=species:S:1:pos:R:3:forces:R:3 energy=-0.30890632299078813 pbc="F F F"
Yb       0.00000000       0.00000000       0.00000000       0.00000000       0.00000000       0.12672453
Yb       0.00000000       0.00000000       4.70666667       0.00000000       0.00000000      -0.12672453
2
Properties=species:S:1:pos:R:3:forces:R:3 energy=-0.3018296376696932 pbc="F F F"
Yb       0.00000000       0.00000000       0.00000000       0.00000000       0.00000000       0.11459859
Yb       0.00000000       0.00000000       4.76545455       0.00000000       0.00000000      -0.11459859
2
Properties=species:S:1:pos:R:3:forces:R:3 energy=-0.29536368394476337 pbc="F F F"
Yb       0.00000000       0.00000000       0.00000000       0.00000000       0.00000000       0.10595073
Yb       0.00000000       0.00000000       4.82424242       0.00000000       0.00000000      -0.10595073
2
Properties=species:S:1:pos:R:3:forces:R:3 energy=-0.2893096837218923 pbc="F F F"
Yb       0.00000000       0.00000000       0.00000000       0.00000000       0.00000000       0.10048965
Yb       0.00000000       0.00000000       4.88303030       0.00000000       0.00000000      -0.10048965
2
Properties=species:S:1:pos:R:3:forces:R:3 energy=-0.2835070358940154 pbc="F F F"
Yb       0.00000000       0.00000000       0.00000000       0.00000000       0.00000000       0.09713565
Yb       0.00000000       0.00000000       4.94181818       0.00000000       0.00000000      -0.09713565
2
Properties=species:S:1:pos:R:3:forces:R:3 energy=-0.2778778473464012 pbc="F F F"
Yb       0.00000000       0.00000000       0.00000000       0.00000000       0.00000000       0.09432818
Yb       0.00000000       0.00000000       5.00060606       0.00000000       0.00000000      -0.09432818
2
Properties=species:S:1:pos:R:3:forces:R:3 energy=-0.2724302320949461 pbc="F F F"
Yb       0.00000000       0.00000000       0.00000000       0.00000000       0.00000000       0.09085746
Yb       0.00000000       0.00000000       5.05939394       0.00000000       0.00000000      -0.09085746
2
Properties=species:S:1:pos:R:3:forces:R:3 energy=-0.26720029391602385 pbc="F F F"
Yb       0.00000000       0.00000000       0.00000000       0.00000000       0.00000000       0.08722016
Yb       0.00000000       0.00000000       5.11818182       0.00000000       0.00000000      -0.08722016
2
Properties=species:S:1:pos:R:3:forces:R:3 energy=-0.26211995902836704 pbc="F F F"
Yb       0.00000000       0.00000000       0.00000000       0.00000000       0.00000000       0.08645728
Yb       0.00000000       0.00000000       5.17696970       0.00000000       0.00000000      -0.08645728
2
Properties=species:S:1:pos:R:3:forces:R:3 energy=-0.25690575711770913 pbc="F F F"
Yb       0.00000000       0.00000000       0.00000000       0.00000000       0.00000000       0.09214285
Yb       0.00000000       0.00000000       5.23575758       0.00000000       0.00000000      -0.09214285
2
Properties=species:S:1:pos:R:3:forces:R:3 energy=-0.25117850710951994 pbc="F F F"
Yb       0.00000000       0.00000000       0.00000000       0.00000000       0.00000000       0.10305700
Yb       0.00000000       0.00000000       5.29454545       0.00000000       0.00000000      -0.10305700
2
Properties=species:S:1:pos:R:3:forces:R:3 energy=-0.24484104999590178 pbc="F F F"
Yb       0.00000000       0.00000000       0.00000000       0.00000000       0.00000000       0.11132191
Yb       0.00000000       0.00000000       5.35333333       0.00000000       0.00000000      -0.11132191
2
Properties=species:S:1:pos:R:3:forces:R:3 energy=-0.2382761946929364 pbc="F F F"
Yb       0.00000000       0.00000000       0.00000000       0.00000000       0.00000000       0.11044180
Yb       0.00000000       0.00000000       5.41212121       0.00000000       0.00000000      -0.11044180
2
Properties=species:S:1:pos:R:3:forces:R:3 energy=-0.2319648158264743 pbc="F F F"
Yb       0.00000000       0.00000000       0.00000000       0.00000000       0.00000000       0.10432087
Yb       0.00000000       0.00000000       5.47090909       0.00000000       0.00000000      -0.10432087
2
Properties=species:S:1:pos:R:3:forces:R:3 energy=-0.22586618848388357 pbc="F F F"
Yb       0.00000000       0.00000000       0.00000000       0.00000000       0.00000000       0.10549971
Yb       0.00000000       0.00000000       5.52969697       0.00000000       0.00000000      -0.10549971
2
Properties=species:S:1:pos:R:3:forces:R:3 energy=-0.21921143688309763 pbc="F F F"
Yb       0.00000000       0.00000000       0.00000000       0.00000000       0.00000000       0.12392913
Yb       0.00000000       0.00000000       5.58848485       0.00000000       0.00000000      -0.12392913
2
Properties=species:S:1:pos:R:3:forces:R:3 energy=-0.21105877768922227 pbc="F F F"
Yb       0.00000000       0.00000000       0.00000000       0.00000000       0.00000000       0.15378872
Yb       0.00000000       0.00000000       5.64727273       0.00000000       0.00000000      -0.15378872
2
Properties=species:S:1:pos:R:3:forces:R:3 energy=-0.2013422029667617 pbc="F F F"
Yb       0.00000000       0.00000000       0.00000000       0.00000000       0.00000000       0.17310107
Yb       0.00000000       0.00000000       5.70606061       0.00000000       0.00000000      -0.17310107
2
Properties=species:S:1:pos:R:3:forces:R:3 energy=-0.1912752626961566 pbc="F F F"
Yb       0.00000000       0.00000000       0.00000000       0.00000000       0.00000000       0.16346791
Yb       0.00000000       0.00000000       5.76484848       0.00000000       0.00000000      -0.16346791
2
Properties=species:S:1:pos:R:3:forces:R:3 energy=-0.18266318938921283 pbc="F F F"
Yb       0.00000000       0.00000000       0.00000000       0.00000000       0.00000000       0.12657040
Yb       0.00000000       0.00000000       5.82363636       0.00000000       0.00000000      -0.12657040
2
Properties=species:S:1:pos:R:3:forces:R:3 energy=-0.17659795636396847 pbc="F F F"
Yb       0.00000000       0.00000000       0.00000000       0.00000000       0.00000000       0.08030654
Yb       0.00000000       0.00000000       5.88242424       0.00000000       0.00000000      -0.08030654
2
Properties=species:S:1:pos:R:3:forces:R:3 energy=-0.17301618586465195 pbc="F F F"
Yb       0.00000000       0.00000000       0.00000000       0.00000000       0.00000000       0.04415413
Yb       0.00000000       0.00000000       5.94121212       0.00000000       0.00000000      -0.04415413
2
Properties=species:S:1:pos:R:3:forces:R:3 energy=-0.1709597390467147 pbc="F F F"
Yb       0.00000000       0.00000000       0.00000000       0.00000000       0.00000000       0.03022114
Yb       0.00000000       0.00000000       6.00000000       0.00000000       0.00000000      -0.03022114
