2
Properties=species:S:1:pos:R:3:forces:R:3 energy=16592.845196389047 pbc="F F F"
Co       0.00000000       0.00000000       0.00000000       0.00000000       0.00000000 -372657.93750000
Co       0.00000000       0.00000000       0.10000000       0.00000000       0.00000000  372657.93750000
2
Properties=species:S:1:pos:R:3:forces:R:3 energy=5268.478008889048 pbc="F F F"
Co       0.00000000       0.00000000       0.00000000       0.00000000       0.00000000  -88162.82812500
Co       0.00000000       0.00000000       0.15959596       0.00000000       0.00000000   88162.82812500
2
Properties=species:S:1:pos:R:3:forces:R:3 energy=2147.9550596702984 pbc="F F F"
Co       0.00000000       0.00000000       0.00000000       0.00000000       0.00000000  -29302.36914062
Co       0.00000000       0.00000000       0.21919192       0.00000000       0.00000000   29302.36914062
2
Properties=species:S:1:pos:R:3:forces:R:3 energy=1013.8081480523726 pbc="F F F"
Co       0.00000000       0.00000000       0.00000000       0.00000000       0.00000000  -11840.08300781
Co       0.00000000       0.00000000       0.27878788       0.00000000       0.00000000   11840.08300781
2
Properties=species:S:1:pos:R:3:forces:R:3 energy=528.7065245172164 pbc="F F F"
Co       0.00000000       0.00000000       0.00000000       0.00000000       0.00000000   -5402.01708984
Co       0.00000000       0.00000000       0.33838384       0.00000000       0.00000000    5402.01708984
2
Properties=species:S:1:pos:R:3:forces:R:3 energy=299.21015611534887 pbc="F F F"
Co       0.00000000       0.00000000       0.00000000       0.00000000       0.00000000   -2658.27954102
Co       0.00000000       0.00000000       0.39797980       0.00000000       0.00000000    2658.27954102
2
Properties=species:S:1:pos:R:3:forces:R:3 energy=183.88863817734858 pbc="F F F"
Co       0.00000000       0.00000000       0.00000000       0.00000000       0.00000000   -1362.79516602
Co       0.00000000       0.00000000       0.45757576       0.00000000       0.00000000    1362.79516602
2
Properties=species:S:1:pos:R:3:forces:R:3 energy=124.47032612676944 pbc="F F F"
Co       0.00000000       0.00000000       0.00000000       0.00000000       0.00000000    -701.01690674
Co       0.00000000       0.00000000       0.51717172       0.00000000       0.00000000     701.01690674
2
Properties=species:S:1:pos:R:3:forces:R:3 energy=94.38930962425596 pbc="F F F"
Co       0.00000000       0.00000000       0.00000000       0.00000000       0.00000000    -344.13055420
Co       0.00000000       0.00000000       0.57676768       0.00000000       0.00000000     344.13055420
2
Properties=species:S:1:pos:R:3:forces:R:3 energy=80.19884947619863 pbc="F F F"
Co       0.00000000       0.00000000       0.00000000       0.00000000       0.00000000    -154.63414001
Co       0.00000000       0.00000000       0.63636364       0.00000000       0.00000000     154.63414001
2
Properties=species:S:1:pos:R:3:forces:R:3 energy=73.62007607586597 pbc="F F F"
Co       0.00000000       0.00000000       0.00000000       0.00000000       0.00000000     -58.54033661
Co       0.00000000       0.00000000       0.69595960       0.00000000       0.00000000      58.54033661
2
Properties=species:S:1:pos:R:3:forces:R:3 energy=72.36295037342924 pbc="F F F"
Co       0.00000000       0.00000000       0.00000000       0.00000000       0.00000000     -26.70756912
Co       0.00000000       0.00000000       0.75555556       0.00000000       0.00000000      26.70756912
2
Properties=species:S:1:pos:R:3:forces:R:3 energy=68.49406174019632 pbc="F F F"
Co       0.00000000       0.00000000       0.00000000       0.00000000       0.00000000    -104.11418915
Co       0.00000000       0.00000000       0.81515152       0.00000000       0.00000000     104.11418915
2
Properties=species:S:1:pos:R:3:forces:R:3 energy=57.496038076497776 pbc="F F F"
Co       0.00000000       0.00000000       0.00000000       0.00000000       0.00000000    -242.62612915
Co       0.00000000       0.00000000       0.87474747       0.00000000       0.00000000     242.62612915
2
Properties=species:S:1:pos:R:3:forces:R:3 energy=43.035398582218704 pbc="F F F"
Co       0.00000000       0.00000000       0.00000000       0.00000000       0.00000000    -231.88259888
Co       0.00000000       0.00000000       0.93434343       0.00000000       0.00000000     231.88259888
2
Properties=species:S:1:pos:R:3:forces:R:3 energy=30.13185383297664 pbc="F F F"
Co       0.00000000       0.00000000       0.00000000       0.00000000       0.00000000    -199.38453674
Co       0.00000000       0.00000000       0.99393939       0.00000000       0.00000000     199.38453674
2
Properties=species:S:1:pos:R:3:forces:R:3 energy=19.706168815223727 pbc="F F F"
Co       0.00000000       0.00000000       0.00000000       0.00000000       0.00000000    -150.30456543
Co       0.00000000       0.00000000       1.05353535       0.00000000       0.00000000     150.30456543
2
Properties=species:S:1:pos:R:3:forces:R:3 energy=12.152154805536231 pbc="F F F"
Co       0.00000000       0.00000000       0.00000000       0.00000000       0.00000000    -106.49859619
Co       0.00000000       0.00000000       1.11313131       0.00000000       0.00000000     106.49859619
2
Properties=species:S:1:pos:R:3:forces:R:3 energy=6.495656463419964 pbc="F F F"
Co       0.00000000       0.00000000       0.00000000       0.00000000       0.00000000     -85.86639404
Co       0.00000000       0.00000000       1.17272727       0.00000000       0.00000000      85.86639404
2
Properties=species:S:1:pos:R:3:forces:R:3 energy=1.9861650796548516 pbc="F F F"
Co       0.00000000       0.00000000       0.00000000       0.00000000       0.00000000     -62.90621185
Co       0.00000000       0.00000000       1.23232323       0.00000000       0.00000000      62.90621185
2
Properties=species:S:1:pos:R:3:forces:R:3 energy=-0.8989873517949252 pbc="F F F"
Co       0.00000000       0.00000000       0.00000000       0.00000000       0.00000000     -35.89222336
Co       0.00000000       0.00000000       1.29191919       0.00000000       0.00000000      35.89222336
2
Properties=species:S:1:pos:R:3:forces:R:3 energy=-2.5992741106348145 pbc="F F F"
Co       0.00000000       0.00000000       0.00000000       0.00000000       0.00000000     -22.90775108
Co       0.00000000       0.00000000       1.35151515       0.00000000       0.00000000      22.90775108
2
Properties=species:S:1:pos:R:3:forces:R:3 energy=-3.7281396337107937 pbc="F F F"
Co       0.00000000       0.00000000       0.00000000       0.00000000       0.00000000     -15.34817410
Co       0.00000000       0.00000000       1.41111111       0.00000000       0.00000000      15.34817410
2
Properties=species:S:1:pos:R:3:forces:R:3 energy=-4.467736297663663 pbc="F F F"
Co       0.00000000       0.00000000       0.00000000       0.00000000       0.00000000      -9.82516003
Co       0.00000000       0.00000000       1.47070707       0.00000000       0.00000000       9.82516003
2
Properties=species:S:1:pos:R:3:forces:R:3 energy=-4.941139511695184 pbc="F F F"
Co       0.00000000       0.00000000       0.00000000       0.00000000       0.00000000      -6.37951469
Co       0.00000000       0.00000000       1.53030303       0.00000000       0.00000000       6.37951469
2
Properties=species:S:1:pos:R:3:forces:R:3 energy=-5.258888788173418 pbc="F F F"
Co       0.00000000       0.00000000       0.00000000       0.00000000       0.00000000      -4.47957516
Co       0.00000000       0.00000000       1.58989899       0.00000000       0.00000000       4.47957516
2
Properties=species:S:1:pos:R:3:forces:R:3 energy=-5.491616983977113 pbc="F F F"
Co       0.00000000       0.00000000       0.00000000       0.00000000       0.00000000      -3.41968799
Co       0.00000000       0.00000000       1.64949495       0.00000000       0.00000000       3.41968799
2
Properties=species:S:1:pos:R:3:forces:R:3 energy=-5.672739098035766 pbc="F F F"
Co       0.00000000       0.00000000       0.00000000       0.00000000       0.00000000      -2.68391085
Co       0.00000000       0.00000000       1.70909091       0.00000000       0.00000000       2.68391085
2
Properties=species:S:1:pos:R:3:forces:R:3 energy=-5.81287059439118 pbc="F F F"
Co       0.00000000       0.00000000       0.00000000       0.00000000       0.00000000      -2.02341461
Co       0.00000000       0.00000000       1.76868687       0.00000000       0.00000000       2.02341461
2
Properties=species:S:1:pos:R:3:forces:R:3 energy=-5.914448884734964 pbc="F F F"
Co       0.00000000       0.00000000       0.00000000       0.00000000       0.00000000      -1.39172089
Co       0.00000000       0.00000000       1.82828283       0.00000000       0.00000000       1.39172089
2
Properties=species:S:1:pos:R:3:forces:R:3 energy=-5.979702666332194 pbc="F F F"
Co       0.00000000       0.00000000       0.00000000       0.00000000       0.00000000      -0.80696845
Co       0.00000000       0.00000000       1.88787879       0.00000000       0.00000000       0.80696845
2
Properties=species:S:1:pos:R:3:forces:R:3 energy=-6.011646964985603 pbc="F F F"
Co       0.00000000       0.00000000       0.00000000       0.00000000       0.00000000      -0.27288312
Co       0.00000000       0.00000000       1.94747475       0.00000000       0.00000000       0.27288312
2
Properties=species:S:1:pos:R:3:forces:R:3 energy=-6.013124788086991 pbc="F F F"
Co       0.00000000       0.00000000       0.00000000       0.00000000       0.00000000       0.21551885
Co       0.00000000       0.00000000       2.00707071       0.00000000       0.00000000      -0.21551885
2
Properties=species:S:1:pos:R:3:forces:R:3 energy=-5.987023733801437 pbc="F F F"
Co       0.00000000       0.00000000       0.00000000       0.00000000       0.00000000       0.64980298
Co       0.00000000       0.00000000       2.06666667       0.00000000       0.00000000      -0.64980298
2
Properties=species:S:1:pos:R:3:forces:R:3 energy=-5.937221106124275 pbc="F F F"
Co       0.00000000       0.00000000       0.00000000       0.00000000       0.00000000       1.00588143
Co       0.00000000       0.00000000       2.12626263       0.00000000       0.00000000      -1.00588143
2
Properties=species:S:1:pos:R:3:forces:R:3 energy=-5.8693309490912355 pbc="F F F"
Co       0.00000000       0.00000000       0.00000000       0.00000000       0.00000000       1.25115860
Co       0.00000000       0.00000000       2.18585859       0.00000000       0.00000000      -1.25115860
2
Properties=species:S:1:pos:R:3:forces:R:3 energy=-5.790912189281793 pbc="F F F"
Co       0.00000000       0.00000000       0.00000000       0.00000000       0.00000000       1.35517120
Co       0.00000000       0.00000000       2.24545455       0.00000000       0.00000000      -1.35517120
2
Properties=species:S:1:pos:R:3:forces:R:3 energy=-5.710859445269854 pbc="F F F"
Co       0.00000000       0.00000000       0.00000000       0.00000000       0.00000000       1.30673885
Co       0.00000000       0.00000000       2.30505051       0.00000000       0.00000000      -1.30673885
2
Properties=species:S:1:pos:R:3:forces:R:3 energy=-5.637693057277781 pbc="F F F"
Co       0.00000000       0.00000000       0.00000000       0.00000000       0.00000000       1.13266301
Co       0.00000000       0.00000000       2.36464646       0.00000000       0.00000000      -1.13266301
2
Properties=species:S:1:pos:R:3:forces:R:3 energy=-5.576704689367417 pbc="F F F"
Co       0.00000000       0.00000000       0.00000000       0.00000000       0.00000000       0.91857040
Co       0.00000000       0.00000000       2.42424242       0.00000000       0.00000000      -0.91857040
2
Properties=species:S:1:pos:R:3:forces:R:3 energy=-5.526113185233467 pbc="F F F"
Co       0.00000000       0.00000000       0.00000000       0.00000000       0.00000000       0.80673790
Co       0.00000000       0.00000000       2.48383838       0.00000000       0.00000000      -0.80673790
2
Properties=species:S:1:pos:R:3:forces:R:3 energy=-5.477287080342589 pbc="F F F"
Co       0.00000000       0.00000000       0.00000000       0.00000000       0.00000000       0.85330522
Co       0.00000000       0.00000000       2.54343434       0.00000000       0.00000000      -0.85330522
2
Properties=species:S:1:pos:R:3:forces:R:3 energy=-5.422694093989727 pbc="F F F"
Co       0.00000000       0.00000000       0.00000000       0.00000000       0.00000000       0.98840356
Co       0.00000000       0.00000000       2.60303030       0.00000000       0.00000000      -0.98840356
2
Properties=species:S:1:pos:R:3:forces:R:3 energy=-5.358590185500386 pbc="F F F"
Co       0.00000000       0.00000000       0.00000000       0.00000000       0.00000000       1.16843390
Co       0.00000000       0.00000000       2.66262626       0.00000000       0.00000000      -1.16843390
2
Properties=species:S:1:pos:R:3:forces:R:3 energy=-5.28306457703589 pbc="F F F"
Co       0.00000000       0.00000000       0.00000000       0.00000000       0.00000000       1.36607528
Co       0.00000000       0.00000000       2.72222222       0.00000000       0.00000000      -1.36607528
2
Properties=species:S:1:pos:R:3:forces:R:3 energy=-5.196190915996896 pbc="F F F"
Co       0.00000000       0.00000000       0.00000000       0.00000000       0.00000000       1.54242575
Co       0.00000000       0.00000000       2.78181818       0.00000000       0.00000000      -1.54242575
2
Properties=species:S:1:pos:R:3:forces:R:3 energy=-5.1003741315451805 pbc="F F F"
Co       0.00000000       0.00000000       0.00000000       0.00000000       0.00000000       1.66130781
Co       0.00000000       0.00000000       2.84141414       0.00000000       0.00000000      -1.66130781
2
Properties=species:S:1:pos:R:3:forces:R:3 energy=-4.999718128353381 pbc="F F F"
Co       0.00000000       0.00000000       0.00000000       0.00000000       0.00000000       1.70331669
Co       0.00000000       0.00000000       2.90101010       0.00000000       0.00000000      -1.70331669
2
Properties=species:S:1:pos:R:3:forces:R:3 energy=-4.898871065763981 pbc="F F F"
Co       0.00000000       0.00000000       0.00000000       0.00000000       0.00000000       1.66943228
Co       0.00000000       0.00000000       2.96060606       0.00000000       0.00000000      -1.66943228
2
Properties=species:S:1:pos:R:3:forces:R:3 energy=-4.801910649085644 pbc="F F F"
Co       0.00000000       0.00000000       0.00000000       0.00000000       0.00000000       1.57659614
Co       0.00000000       0.00000000       3.02020202       0.00000000       0.00000000      -1.57659614
2
Properties=species:S:1:pos:R:3:forces:R:3 energy=-4.711635640324017 pbc="F F F"
Co       0.00000000       0.00000000       0.00000000       0.00000000       0.00000000       1.44937027
Co       0.00000000       0.00000000       3.07979798       0.00000000       0.00000000      -1.44937027
2
Properties=species:S:1:pos:R:3:forces:R:3 energy=-4.629362075669248 pbc="F F F"
Co       0.00000000       0.00000000       0.00000000       0.00000000       0.00000000       1.31161213
Co       0.00000000       0.00000000       3.13939394       0.00000000       0.00000000      -1.31161213
2
Properties=species:S:1:pos:R:3:forces:R:3 energy=-4.555154580539028 pbc="F F F"
Co       0.00000000       0.00000000       0.00000000       0.00000000       0.00000000       1.18098104
Co       0.00000000       0.00000000       3.19898990       0.00000000       0.00000000      -1.18098104
2
Properties=species:S:1:pos:R:3:forces:R:3 energy=-4.488262521859054 pbc="F F F"
Co       0.00000000       0.00000000       0.00000000       0.00000000       0.00000000       1.06707072
Co       0.00000000       0.00000000       3.25858586       0.00000000       0.00000000      -1.06707072
2
Properties=species:S:1:pos:R:3:forces:R:3 energy=-4.427584129009063 pbc="F F F"
Co       0.00000000       0.00000000       0.00000000       0.00000000       0.00000000       0.97235674
Co       0.00000000       0.00000000       3.31818182       0.00000000       0.00000000      -0.97235674
2
Properties=species:S:1:pos:R:3:forces:R:3 energy=-4.372029023111598 pbc="F F F"
Co       0.00000000       0.00000000       0.00000000       0.00000000       0.00000000       0.89448667
Co       0.00000000       0.00000000       3.37777778       0.00000000       0.00000000      -0.89448667
2
Properties=species:S:1:pos:R:3:forces:R:3 energy=-4.320728521225712 pbc="F F F"
Co       0.00000000       0.00000000       0.00000000       0.00000000       0.00000000       0.82869369
Co       0.00000000       0.00000000       3.43737374       0.00000000       0.00000000      -0.82869369
2
Properties=species:S:1:pos:R:3:forces:R:3 energy=-4.273118840431328 pbc="F F F"
Co       0.00000000       0.00000000       0.00000000       0.00000000       0.00000000       0.76979190
Co       0.00000000       0.00000000       3.49696970       0.00000000       0.00000000      -0.76979190
2
Properties=species:S:1:pos:R:3:forces:R:3 energy=-4.228923442183101 pbc="F F F"
Co       0.00000000       0.00000000       0.00000000       0.00000000       0.00000000       0.71354932
Co       0.00000000       0.00000000       3.55656566       0.00000000       0.00000000      -0.71354932
2
Properties=species:S:1:pos:R:3:forces:R:3 energy=-4.188068796860168 pbc="F F F"
Co       0.00000000       0.00000000       0.00000000       0.00000000       0.00000000       0.65742791
Co       0.00000000       0.00000000       3.61616162       0.00000000       0.00000000      -0.65742791
2
Properties=species:S:1:pos:R:3:forces:R:3 energy=-4.150576624904036 pbc="F F F"
Co       0.00000000       0.00000000       0.00000000       0.00000000       0.00000000       0.60071617
Co       0.00000000       0.00000000       3.67575758       0.00000000       0.00000000      -0.60071617
2
Properties=species:S:1:pos:R:3:forces:R:3 energy=-4.116466246571462 pbc="F F F"
Co       0.00000000       0.00000000       0.00000000       0.00000000       0.00000000       0.54412717
Co       0.00000000       0.00000000       3.73535354       0.00000000       0.00000000      -0.54412717
2
Properties=species:S:1:pos:R:3:forces:R:3 energy=-4.08569026593889 pbc="F F F"
Co       0.00000000       0.00000000       0.00000000       0.00000000       0.00000000       0.48906782
Co       0.00000000       0.00000000       3.79494949       0.00000000       0.00000000      -0.48906782
2
Properties=species:S:1:pos:R:3:forces:R:3 energy=-4.058115942575065 pbc="F F F"
Co       0.00000000       0.00000000       0.00000000       0.00000000       0.00000000       0.43686458
Co       0.00000000       0.00000000       3.85454545       0.00000000       0.00000000      -0.43686458
2
Properties=species:S:1:pos:R:3:forces:R:3 energy=-4.033548105067199 pbc="F F F"
Co       0.00000000       0.00000000       0.00000000       0.00000000       0.00000000       0.38822699
Co       0.00000000       0.00000000       3.91414141       0.00000000       0.00000000      -0.38822699
2
Properties=species:S:1:pos:R:3:forces:R:3 energy=-4.011772705593219 pbc="F F F"
Co       0.00000000       0.00000000       0.00000000       0.00000000       0.00000000       0.34306657
Co       0.00000000       0.00000000       3.97373737       0.00000000       0.00000000      -0.34306657
2
Properties=species:S:1:pos:R:3:forces:R:3 energy=-3.992602068766639 pbc="F F F"
Co       0.00000000       0.00000000       0.00000000       0.00000000       0.00000000       0.30068934
Co       0.00000000       0.00000000       4.03333333       0.00000000       0.00000000      -0.30068934
2
Properties=species:S:1:pos:R:3:forces:R:3 energy=-3.9758966677547303 pbc="F F F"
Co       0.00000000       0.00000000       0.00000000       0.00000000       0.00000000       0.26015949
Co       0.00000000       0.00000000       4.09292929       0.00000000       0.00000000      -0.26015949
2
Properties=species:S:1:pos:R:3:forces:R:3 energy=-3.9615715172306496 pbc="F F F"
Co       0.00000000       0.00000000       0.00000000       0.00000000       0.00000000       0.22072871
Co       0.00000000       0.00000000       4.15252525       0.00000000       0.00000000      -0.22072871
2
Properties=species:S:1:pos:R:3:forces:R:3 energy=-3.9495711180797937 pbc="F F F"
Co       0.00000000       0.00000000       0.00000000       0.00000000       0.00000000       0.18215366
Co       0.00000000       0.00000000       4.21212121       0.00000000       0.00000000      -0.18215366
2
Properties=species:S:1:pos:R:3:forces:R:3 energy=-3.939835933078908 pbc="F F F"
Co       0.00000000       0.00000000       0.00000000       0.00000000       0.00000000       0.14482327
Co       0.00000000       0.00000000       4.27171717       0.00000000       0.00000000      -0.14482327
2
Properties=species:S:1:pos:R:3:forces:R:3 energy=-3.93226577263713 pbc="F F F"
Co       0.00000000       0.00000000       0.00000000       0.00000000       0.00000000       0.10968968
Co       0.00000000       0.00000000       4.33131313       0.00000000       0.00000000      -0.10968968
2
Properties=species:S:1:pos:R:3:forces:R:3 energy=-3.926693073740117 pbc="F F F"
Co       0.00000000       0.00000000       0.00000000       0.00000000       0.00000000       0.07801416
Co       0.00000000       0.00000000       4.39090909       0.00000000       0.00000000      -0.07801416
2
Properties=species:S:1:pos:R:3:forces:R:3 energy=-3.9228734907516847 pbc="F F F"
Co       0.00000000       0.00000000       0.00000000       0.00000000       0.00000000       0.05103737
Co       0.00000000       0.00000000       4.45050505       0.00000000       0.00000000      -0.05103737
2
Properties=species:S:1:pos:R:3:forces:R:3 energy=-3.920498608458149 pbc="F F F"
Co       0.00000000       0.00000000       0.00000000       0.00000000       0.00000000       0.02964415
Co       0.00000000       0.00000000       4.51010101       0.00000000       0.00000000      -0.02964415
2
Properties=species:S:1:pos:R:3:forces:R:3 energy=-3.919223090940042 pbc="F F F"
Co       0.00000000       0.00000000       0.00000000       0.00000000       0.00000000       0.01412997
Co       0.00000000       0.00000000       4.56969697       0.00000000       0.00000000      -0.01412997
2
Properties=species:S:1:pos:R:3:forces:R:3 energy=-3.918703893092856 pbc="F F F"
Co       0.00000000       0.00000000       0.00000000       0.00000000       0.00000000       0.00415236
Co       0.00000000       0.00000000       4.62929293       0.00000000       0.00000000      -0.00415236
2
Properties=species:S:1:pos:R:3:forces:R:3 energy=-3.9186345873987127 pbc="F F F"
Co       0.00000000       0.00000000       0.00000000       0.00000000       0.00000000      -0.00112983
Co       0.00000000       0.00000000       4.68888889       0.00000000       0.00000000       0.00112983
2
Properties=species:S:1:pos:R:3:forces:R:3 energy=-3.9187665736764328 pbc="F F F"
Co       0.00000000       0.00000000       0.00000000       0.00000000       0.00000000      -0.00277637
Co       0.00000000       0.00000000       4.74848485       0.00000000       0.00000000       0.00277637
2
Properties=species:S:1:pos:R:3:forces:R:3 energy=-3.91891308468005 pbc="F F F"
Co       0.00000000       0.00000000       0.00000000       0.00000000       0.00000000      -0.00176428
Co       0.00000000       0.00000000       4.80808081       0.00000000       0.00000000       0.00176428
2
Properties=species:S:1:pos:R:3:forces:R:3 energy=-3.9189380374463934 pbc="F F F"
Co       0.00000000       0.00000000       0.00000000       0.00000000       0.00000000       0.00121306
Co       0.00000000       0.00000000       4.86767677       0.00000000       0.00000000      -0.00121306
2
Properties=species:S:1:pos:R:3:forces:R:3 energy=-3.9187369756478665 pbc="F F F"
Co       0.00000000       0.00000000       0.00000000       0.00000000       0.00000000       0.00578273
Co       0.00000000       0.00000000       4.92727273       0.00000000       0.00000000      -0.00578273
2
Properties=species:S:1:pos:R:3:forces:R:3 energy=-3.9182203438619587 pbc="F F F"
Co       0.00000000       0.00000000       0.00000000       0.00000000       0.00000000       0.01178150
Co       0.00000000       0.00000000       4.98686869       0.00000000       0.00000000      -0.01178150
2
Properties=species:S:1:pos:R:3:forces:R:3 energy=-3.9173069781616925 pbc="F F F"
Co       0.00000000       0.00000000       0.00000000       0.00000000       0.00000000       0.01907258
Co       0.00000000       0.00000000       5.04646465       0.00000000       0.00000000      -0.01907258
2
Properties=species:S:1:pos:R:3:forces:R:3 energy=-3.915926682786571 pbc="F F F"
Co       0.00000000       0.00000000       0.00000000       0.00000000       0.00000000       0.02737969
Co       0.00000000       0.00000000       5.10606061       0.00000000       0.00000000      -0.02737969
2
Properties=species:S:1:pos:R:3:forces:R:3 energy=-3.914033267888692 pbc="F F F"
Co       0.00000000       0.00000000       0.00000000       0.00000000       0.00000000       0.03618660
Co       0.00000000       0.00000000       5.16565657       0.00000000       0.00000000      -0.03618660
2
Properties=species:S:1:pos:R:3:forces:R:3 energy=-3.911618418992022 pbc="F F F"
Co       0.00000000       0.00000000       0.00000000       0.00000000       0.00000000       0.04474352
Co       0.00000000       0.00000000       5.22525253       0.00000000       0.00000000      -0.04474352
2
Properties=species:S:1:pos:R:3:forces:R:3 energy=-3.9087227149321895 pbc="F F F"
Co       0.00000000       0.00000000       0.00000000       0.00000000       0.00000000       0.05217894
Co       0.00000000       0.00000000       5.28484848       0.00000000       0.00000000      -0.05217894
2
Properties=species:S:1:pos:R:3:forces:R:3 energy=-3.905438124499965 pbc="F F F"
Co       0.00000000       0.00000000       0.00000000       0.00000000       0.00000000       0.05765299
Co       0.00000000       0.00000000       5.34444444       0.00000000       0.00000000      -0.05765299
2
Properties=species:S:1:pos:R:3:forces:R:3 energy=-3.9019028008302934 pbc="F F F"
Co       0.00000000       0.00000000       0.00000000       0.00000000       0.00000000       0.06052081
Co       0.00000000       0.00000000       5.40404040       0.00000000       0.00000000      -0.06052081
2
Properties=species:S:1:pos:R:3:forces:R:3 energy=-3.8982820791919672 pbc="F F F"
Co       0.00000000       0.00000000       0.00000000       0.00000000       0.00000000       0.06047163
Co       0.00000000       0.00000000       5.46363636       0.00000000       0.00000000      -0.06047163
2
Properties=species:S:1:pos:R:3:forces:R:3 energy=-3.8947532752193617 pbc="F F F"
Co       0.00000000       0.00000000       0.00000000       0.00000000       0.00000000       0.05755335
Co       0.00000000       0.00000000       5.52323232       0.00000000       0.00000000      -0.05755335
2
Properties=species:S:1:pos:R:3:forces:R:3 energy=-3.8914721296653134 pbc="F F F"
Co       0.00000000       0.00000000       0.00000000       0.00000000       0.00000000       0.05218310
Co       0.00000000       0.00000000       5.58282828       0.00000000       0.00000000      -0.05218310
2
Properties=species:S:1:pos:R:3:forces:R:3 energy=-3.888568755285275 pbc="F F F"
Co       0.00000000       0.00000000       0.00000000       0.00000000       0.00000000       0.04503433
Co       0.00000000       0.00000000       5.64242424       0.00000000       0.00000000      -0.04503433
2
Properties=species:S:1:pos:R:3:forces:R:3 energy=-3.886122696337264 pbc="F F F"
Co       0.00000000       0.00000000       0.00000000       0.00000000       0.00000000       0.03692253
Co       0.00000000       0.00000000       5.70202020       0.00000000       0.00000000      -0.03692253
2
Properties=species:S:1:pos:R:3:forces:R:3 energy=-3.8841703243095487 pbc="F F F"
Co       0.00000000       0.00000000       0.00000000       0.00000000       0.00000000       0.02870940
Co       0.00000000       0.00000000       5.76161616       0.00000000       0.00000000      -0.02870940
2
Properties=species:S:1:pos:R:3:forces:R:3 energy=-3.8826874428678373 pbc="F F F"
Co       0.00000000       0.00000000       0.00000000       0.00000000       0.00000000       0.02120427
Co       0.00000000       0.00000000       5.82121212       0.00000000       0.00000000      -0.02120427
2
Properties=species:S:1:pos:R:3:forces:R:3 energy=-3.8816162861755177 pbc="F F F"
Co       0.00000000       0.00000000       0.00000000       0.00000000       0.00000000       0.01508264
Co       0.00000000       0.00000000       5.88080808       0.00000000       0.00000000      -0.01508264
2
Properties=species:S:1:pos:R:3:forces:R:3 energy=-3.8808509611051316 pbc="F F F"
Co       0.00000000       0.00000000       0.00000000       0.00000000       0.00000000       0.01089102
Co       0.00000000       0.00000000       5.94040404       0.00000000       0.00000000      -0.01089102
2
Properties=species:S:1:pos:R:3:forces:R:3 energy=-3.880270388600069 pbc="F F F"
Co       0.00000000       0.00000000       0.00000000       0.00000000       0.00000000       0.00903741
Co       0.00000000       0.00000000       6.00000000       0.00000000       0.00000000      -0.00903741
