2
Properties=species:S:1:pos:R:3:forces:R:3 energy=78458.77232207572 pbc="F F F"
Hf       0.00000000       0.00000000       0.00000000       0.00000000       0.00000000 -1974291.00000000
Hf       0.00000000       0.00000000       0.10000000       0.00000000       0.00000000 1974291.00000000
2
Properties=species:S:1:pos:R:3:forces:R:3 energy=21682.282087700718 pbc="F F F"
Hf       0.00000000       0.00000000       0.00000000       0.00000000       0.00000000 -408040.75000000
Hf       0.00000000       0.00000000       0.15959596       0.00000000       0.00000000  408040.75000000
2
Properties=species:S:1:pos:R:3:forces:R:3 energy=7831.757673638218 pbc="F F F"
Hf       0.00000000       0.00000000       0.00000000       0.00000000       0.00000000 -122769.06250000
Hf       0.00000000       0.00000000       0.21919192       0.00000000       0.00000000  122769.06250000
2
Properties=species:S:1:pos:R:3:forces:R:3 energy=3263.0543044975925 pbc="F F F"
Hf       0.00000000       0.00000000       0.00000000       0.00000000       0.00000000  -45173.19140625
Hf       0.00000000       0.00000000       0.27878788       0.00000000       0.00000000   45173.19140625
2
Properties=species:S:1:pos:R:3:forces:R:3 energy=1487.146467586698 pbc="F F F"
Hf       0.00000000       0.00000000       0.00000000       0.00000000       0.00000000  -18726.62695312
Hf       0.00000000       0.00000000       0.33838384       0.00000000       0.00000000   18726.62695312
2
Properties=species:S:1:pos:R:3:forces:R:3 energy=723.1445754968543 pbc="F F F"
Hf       0.00000000       0.00000000       0.00000000       0.00000000       0.00000000   -8420.34472656
Hf       0.00000000       0.00000000       0.39797980       0.00000000       0.00000000    8420.34472656
2
Properties=species:S:1:pos:R:3:forces:R:3 energy=369.60609283083863 pbc="F F F"
Hf       0.00000000       0.00000000       0.00000000       0.00000000       0.00000000   -4034.09301758
Hf       0.00000000       0.00000000       0.45757576       0.00000000       0.00000000    4034.09301758
2
Properties=species:S:1:pos:R:3:forces:R:3 energy=196.0679611264749 pbc="F F F"
Hf       0.00000000       0.00000000       0.00000000       0.00000000       0.00000000   -2038.77978516
Hf       0.00000000       0.00000000       0.51717172       0.00000000       0.00000000    2038.77978516
2
Properties=species:S:1:pos:R:3:forces:R:3 energy=106.51945344554868 pbc="F F F"
Hf       0.00000000       0.00000000       0.00000000       0.00000000       0.00000000   -1077.93383789
Hf       0.00000000       0.00000000       0.57676768       0.00000000       0.00000000    1077.93383789
2
Properties=species:S:1:pos:R:3:forces:R:3 energy=58.3771118539539 pbc="F F F"
Hf       0.00000000       0.00000000       0.00000000       0.00000000       0.00000000    -590.23376465
Hf       0.00000000       0.00000000       0.63636364       0.00000000       0.00000000     590.23376465
2
Properties=species:S:1:pos:R:3:forces:R:3 energy=31.731110073004047 pbc="F F F"
Hf       0.00000000       0.00000000       0.00000000       0.00000000       0.00000000    -329.97341919
Hf       0.00000000       0.00000000       0.69595960       0.00000000       0.00000000     329.97341919
2
Properties=species:S:1:pos:R:3:forces:R:3 energy=16.798450968183634 pbc="F F F"
Hf       0.00000000       0.00000000       0.00000000       0.00000000       0.00000000    -184.72799683
Hf       0.00000000       0.00000000       0.75555556       0.00000000       0.00000000     184.72799683
2
Properties=species:S:1:pos:R:3:forces:R:3 energy=8.502949335226992 pbc="F F F"
Hf       0.00000000       0.00000000       0.00000000       0.00000000       0.00000000    -101.20935059
Hf       0.00000000       0.00000000       0.81515152       0.00000000       0.00000000     101.20935059
2
Properties=species:S:1:pos:R:3:forces:R:3 energy=4.058918201209214 pbc="F F F"
Hf       0.00000000       0.00000000       0.00000000       0.00000000       0.00000000     -51.96112061
Hf       0.00000000       0.00000000       0.87474747       0.00000000       0.00000000      51.96112061
2
Properties=species:S:1:pos:R:3:forces:R:3 energy=1.9899991682731244 pbc="F F F"
Hf       0.00000000       0.00000000       0.00000000       0.00000000       0.00000000     -19.28489685
Hf       0.00000000       0.00000000       0.93434343       0.00000000       0.00000000      19.28489685
2
Properties=species:S:1:pos:R:3:forces:R:3 energy=1.4942737456355188 pbc="F F F"
Hf       0.00000000       0.00000000       0.00000000       0.00000000       0.00000000      -0.56789339
Hf       0.00000000       0.00000000       0.99393939       0.00000000       0.00000000       0.56789339
2
Properties=species:S:1:pos:R:3:forces:R:3 energy=1.4938362878926374 pbc="F F F"
Hf       0.00000000       0.00000000       0.00000000       0.00000000       0.00000000      -2.55146074
Hf       0.00000000       0.00000000       1.05353535       0.00000000       0.00000000       2.55146074
2
Properties=species:S:1:pos:R:3:forces:R:3 energy=0.9861309732190885 pbc="F F F"
Hf       0.00000000       0.00000000       0.00000000       0.00000000       0.00000000     -14.53673840
Hf       0.00000000       0.00000000       1.11313131       0.00000000       0.00000000      14.53673840
2
Properties=species:S:1:pos:R:3:forces:R:3 energy=-0.0793649709671606 pbc="F F F"
Hf       0.00000000       0.00000000       0.00000000       0.00000000       0.00000000     -19.33576584
Hf       0.00000000       0.00000000       1.17272727       0.00000000       0.00000000      19.33576584
2
Properties=species:S:1:pos:R:3:forces:R:3 energy=-1.260418920031833 pbc="F F F"
Hf       0.00000000       0.00000000       0.00000000       0.00000000       0.00000000     -21.81181717
Hf       0.00000000       0.00000000       1.23232323       0.00000000       0.00000000      21.81181717
2
Properties=species:S:1:pos:R:3:forces:R:3 energy=-2.8114887833852817 pbc="F F F"
Hf       0.00000000       0.00000000       0.00000000       0.00000000       0.00000000     -29.31250381
Hf       0.00000000       0.00000000       1.29191919       0.00000000       0.00000000      29.31250381
2
Properties=species:S:1:pos:R:3:forces:R:3 energy=-4.55453592907453 pbc="F F F"
Hf       0.00000000       0.00000000       0.00000000       0.00000000       0.00000000     -27.90165710
Hf       0.00000000       0.00000000       1.35151515       0.00000000       0.00000000      27.90165710
2
Properties=species:S:1:pos:R:3:forces:R:3 energy=-6.059556653875067 pbc="F F F"
Hf       0.00000000       0.00000000       0.00000000       0.00000000       0.00000000     -22.35149956
Hf       0.00000000       0.00000000       1.41111111       0.00000000       0.00000000      22.35149956
2
Properties=species:S:1:pos:R:3:forces:R:3 energy=-7.194525671585577 pbc="F F F"
Hf       0.00000000       0.00000000       0.00000000       0.00000000       0.00000000     -15.45966148
Hf       0.00000000       0.00000000       1.47070707       0.00000000       0.00000000      15.45966148
2
Properties=species:S:1:pos:R:3:forces:R:3 energy=-7.8702510052448815 pbc="F F F"
Hf       0.00000000       0.00000000       0.00000000       0.00000000       0.00000000      -7.14355278
Hf       0.00000000       0.00000000       1.53030303       0.00000000       0.00000000       7.14355278
2
Properties=species:S:1:pos:R:3:forces:R:3 energy=-8.080658156602542 pbc="F F F"
Hf       0.00000000       0.00000000       0.00000000       0.00000000       0.00000000      -0.52253485
Hf       0.00000000       0.00000000       1.58989899       0.00000000       0.00000000       0.52253485
2
Properties=species:S:1:pos:R:3:forces:R:3 energy=-8.01606466455954 pbc="F F F"
Hf       0.00000000       0.00000000       0.00000000       0.00000000       0.00000000       2.02980876
Hf       0.00000000       0.00000000       1.64949495       0.00000000       0.00000000      -2.02980876
2
Properties=species:S:1:pos:R:3:forces:R:3 energy=-7.90087334175953 pbc="F F F"
Hf       0.00000000       0.00000000       0.00000000       0.00000000       0.00000000       1.46253586
Hf       0.00000000       0.00000000       1.70909091       0.00000000       0.00000000      -1.46253586
2
Properties=species:S:1:pos:R:3:forces:R:3 energy=-7.870097190317312 pbc="F F F"
Hf       0.00000000       0.00000000       0.00000000       0.00000000       0.00000000      -0.54050058
Hf       0.00000000       0.00000000       1.76868687       0.00000000       0.00000000       0.54050058
2
Properties=species:S:1:pos:R:3:forces:R:3 energy=-7.965357743205497 pbc="F F F"
Hf       0.00000000       0.00000000       0.00000000       0.00000000       0.00000000      -2.56933713
Hf       0.00000000       0.00000000       1.82828283       0.00000000       0.00000000       2.56933713
2
Properties=species:S:1:pos:R:3:forces:R:3 energy=-8.161312472620622 pbc="F F F"
Hf       0.00000000       0.00000000       0.00000000       0.00000000       0.00000000      -3.87210703
Hf       0.00000000       0.00000000       1.88787879       0.00000000       0.00000000       3.87210703
2
Properties=species:S:1:pos:R:3:forces:R:3 energy=-8.412943538916647 pbc="F F F"
Hf       0.00000000       0.00000000       0.00000000       0.00000000       0.00000000      -4.47825909
Hf       0.00000000       0.00000000       1.94747475       0.00000000       0.00000000       4.47825909
2
Properties=species:S:1:pos:R:3:forces:R:3 energy=-8.686298922993776 pbc="F F F"
Hf       0.00000000       0.00000000       0.00000000       0.00000000       0.00000000      -4.63862038
Hf       0.00000000       0.00000000       2.00707071       0.00000000       0.00000000       4.63862038
2
Properties=species:S:1:pos:R:3:forces:R:3 energy=-8.960497966875984 pbc="F F F"
Hf       0.00000000       0.00000000       0.00000000       0.00000000       0.00000000      -4.52778339
Hf       0.00000000       0.00000000       2.06666667       0.00000000       0.00000000       4.52778339
2
Properties=species:S:1:pos:R:3:forces:R:3 energy=-9.222442730103703 pbc="F F F"
Hf       0.00000000       0.00000000       0.00000000       0.00000000       0.00000000      -4.23752975
Hf       0.00000000       0.00000000       2.12626263       0.00000000       0.00000000       4.23752975
2
Properties=species:S:1:pos:R:3:forces:R:3 energy=-9.462782600731325 pbc="F F F"
Hf       0.00000000       0.00000000       0.00000000       0.00000000       0.00000000      -3.80556321
Hf       0.00000000       0.00000000       2.18585859       0.00000000       0.00000000       3.80556321
2
Properties=species:S:1:pos:R:3:forces:R:3 energy=-9.67336300428672 pbc="F F F"
Hf       0.00000000       0.00000000       0.00000000       0.00000000       0.00000000      -3.23869014
Hf       0.00000000       0.00000000       2.24545455       0.00000000       0.00000000       3.23869014
2
Properties=species:S:1:pos:R:3:forces:R:3 energy=-9.846136447086076 pbc="F F F"
Hf       0.00000000       0.00000000       0.00000000       0.00000000       0.00000000      -2.53784180
Hf       0.00000000       0.00000000       2.30505051       0.00000000       0.00000000       2.53784180
2
Properties=species:S:1:pos:R:3:forces:R:3 energy=-9.973550300389109 pbc="F F F"
Hf       0.00000000       0.00000000       0.00000000       0.00000000       0.00000000      -1.72221923
Hf       0.00000000       0.00000000       2.36464646       0.00000000       0.00000000       1.72221923
2
Properties=species:S:1:pos:R:3:forces:R:3 energy=-10.050108861908523 pbc="F F F"
Hf       0.00000000       0.00000000       0.00000000       0.00000000       0.00000000      -0.84198833
Hf       0.00000000       0.00000000       2.42424242       0.00000000       0.00000000       0.84198833
2
Properties=species:S:1:pos:R:3:forces:R:3 energy=-10.074096521594864 pbc="F F F"
Hf       0.00000000       0.00000000       0.00000000       0.00000000       0.00000000       0.02885352
Hf       0.00000000       0.00000000       2.48383838       0.00000000       0.00000000      -0.02885352
2
Properties=species:S:1:pos:R:3:forces:R:3 energy=-10.048347877325739 pbc="F F F"
Hf       0.00000000       0.00000000       0.00000000       0.00000000       0.00000000       0.81607729
Hf       0.00000000       0.00000000       2.54343434       0.00000000       0.00000000      -0.81607729
2
Properties=species:S:1:pos:R:3:forces:R:3 energy=-9.979502243366719 pbc="F F F"
Hf       0.00000000       0.00000000       0.00000000       0.00000000       0.00000000       1.46981192
Hf       0.00000000       0.00000000       2.60303030       0.00000000       0.00000000      -1.46981192
2
Properties=species:S:1:pos:R:3:forces:R:3 energy=-9.876127278491005 pbc="F F F"
Hf       0.00000000       0.00000000       0.00000000       0.00000000       0.00000000       1.97504842
Hf       0.00000000       0.00000000       2.66262626       0.00000000       0.00000000      -1.97504842
2
Properties=species:S:1:pos:R:3:forces:R:3 energy=-9.746789601147343 pbc="F F F"
Hf       0.00000000       0.00000000       0.00000000       0.00000000       0.00000000       2.34484363
Hf       0.00000000       0.00000000       2.72222222       0.00000000       0.00000000      -2.34484363
2
Properties=species:S:1:pos:R:3:forces:R:3 energy=-9.598827242240668 pbc="F F F"
Hf       0.00000000       0.00000000       0.00000000       0.00000000       0.00000000       2.60445929
Hf       0.00000000       0.00000000       2.78181818       0.00000000       0.00000000      -2.60445929
2
Properties=species:S:1:pos:R:3:forces:R:3 energy=-9.438099420690099 pbc="F F F"
Hf       0.00000000       0.00000000       0.00000000       0.00000000       0.00000000       2.77615571
Hf       0.00000000       0.00000000       2.84141414       0.00000000       0.00000000      -2.77615571
2
Properties=species:S:1:pos:R:3:forces:R:3 energy=-9.269444791138188 pbc="F F F"
Hf       0.00000000       0.00000000       0.00000000       0.00000000       0.00000000       2.87142587
Hf       0.00000000       0.00000000       2.90101010       0.00000000       0.00000000      -2.87142587
2
Properties=species:S:1:pos:R:3:forces:R:3 energy=-9.09732214122991 pbc="F F F"
Hf       0.00000000       0.00000000       0.00000000       0.00000000       0.00000000       2.89239717
Hf       0.00000000       0.00000000       2.96060606       0.00000000       0.00000000      -2.89239717
2
Properties=species:S:1:pos:R:3:forces:R:3 energy=-8.926168922310618 pbc="F F F"
Hf       0.00000000       0.00000000       0.00000000       0.00000000       0.00000000       2.83930540
Hf       0.00000000       0.00000000       3.02020202       0.00000000       0.00000000      -2.83930540
2
Properties=species:S:1:pos:R:3:forces:R:3 energy=-8.760259096850312 pbc="F F F"
Hf       0.00000000       0.00000000       0.00000000       0.00000000       0.00000000       2.71810222
Hf       0.00000000       0.00000000       3.07979798       0.00000000       0.00000000      -2.71810222
2
Properties=species:S:1:pos:R:3:forces:R:3 energy=-8.603254855511569 pbc="F F F"
Hf       0.00000000       0.00000000       0.00000000       0.00000000       0.00000000       2.54366422
Hf       0.00000000       0.00000000       3.13939394       0.00000000       0.00000000      -2.54366422
2
Properties=species:S:1:pos:R:3:forces:R:3 energy=-8.457702710428384 pbc="F F F"
Hf       0.00000000       0.00000000       0.00000000       0.00000000       0.00000000       2.33766341
Hf       0.00000000       0.00000000       3.19898990       0.00000000       0.00000000      -2.33766341
2
Properties=species:S:1:pos:R:3:forces:R:3 energy=-8.324803505606791 pbc="F F F"
Hf       0.00000000       0.00000000       0.00000000       0.00000000       0.00000000       2.12237144
Hf       0.00000000       0.00000000       3.25858586       0.00000000       0.00000000      -2.12237144
2
Properties=species:S:1:pos:R:3:forces:R:3 energy=-8.204625621630191 pbc="F F F"
Hf       0.00000000       0.00000000       0.00000000       0.00000000       0.00000000       1.91203487
Hf       0.00000000       0.00000000       3.31818182       0.00000000       0.00000000      -1.91203487
2
Properties=species:S:1:pos:R:3:forces:R:3 energy=-8.096775197271683 pbc="F F F"
Hf       0.00000000       0.00000000       0.00000000       0.00000000       0.00000000       1.70795941
Hf       0.00000000       0.00000000       3.37777778       0.00000000       0.00000000      -1.70795941
2
Properties=species:S:1:pos:R:3:forces:R:3 energy=-8.001045646961755 pbc="F F F"
Hf       0.00000000       0.00000000       0.00000000       0.00000000       0.00000000       1.50424314
Hf       0.00000000       0.00000000       3.43737374       0.00000000       0.00000000      -1.50424314
2
Properties=species:S:1:pos:R:3:forces:R:3 energy=-7.917541878172485 pbc="F F F"
Hf       0.00000000       0.00000000       0.00000000       0.00000000       0.00000000       1.29769778
Hf       0.00000000       0.00000000       3.49696970       0.00000000       0.00000000      -1.29769778
2
Properties=species:S:1:pos:R:3:forces:R:3 energy=-7.846367294597332 pbc="F F F"
Hf       0.00000000       0.00000000       0.00000000       0.00000000       0.00000000       1.09145582
Hf       0.00000000       0.00000000       3.55656566       0.00000000       0.00000000      -1.09145582
2
Properties=species:S:1:pos:R:3:forces:R:3 energy=-7.787281490661408 pbc="F F F"
Hf       0.00000000       0.00000000       0.00000000       0.00000000       0.00000000       0.89372504
Hf       0.00000000       0.00000000       3.61616162       0.00000000       0.00000000      -0.89372504
2
Properties=species:S:1:pos:R:3:forces:R:3 energy=-7.739454536968408 pbc="F F F"
Hf       0.00000000       0.00000000       0.00000000       0.00000000       0.00000000       0.71557510
Hf       0.00000000       0.00000000       3.67575758       0.00000000       0.00000000      -0.71557510
2
Properties=species:S:1:pos:R:3:forces:R:3 energy=-7.701375358840242 pbc="F F F"
Hf       0.00000000       0.00000000       0.00000000       0.00000000       0.00000000       0.56833607
Hf       0.00000000       0.00000000       3.73535354       0.00000000       0.00000000      -0.56833607
2
Properties=species:S:1:pos:R:3:forces:R:3 energy=-7.670925572613403 pbc="F F F"
Hf       0.00000000       0.00000000       0.00000000       0.00000000       0.00000000       0.46057799
Hf       0.00000000       0.00000000       3.79494949       0.00000000       0.00000000      -0.46057799
2
Properties=species:S:1:pos:R:3:forces:R:3 energy=-7.645622104495882 pbc="F F F"
Hf       0.00000000       0.00000000       0.00000000       0.00000000       0.00000000       0.39568320
Hf       0.00000000       0.00000000       3.85454545       0.00000000       0.00000000      -0.39568320
2
Properties=species:S:1:pos:R:3:forces:R:3 energy=-7.622959219570828 pbc="F F F"
Hf       0.00000000       0.00000000       0.00000000       0.00000000       0.00000000       0.37106839
Hf       0.00000000       0.00000000       3.91414141       0.00000000       0.00000000      -0.37106839
2
Properties=species:S:1:pos:R:3:forces:R:3 energy=-7.600741360148931 pbc="F F F"
Hf       0.00000000       0.00000000       0.00000000       0.00000000       0.00000000       0.37918416
Hf       0.00000000       0.00000000       3.97373737       0.00000000       0.00000000      -0.37918416
2
Properties=species:S:1:pos:R:3:forces:R:3 energy=-7.577320174857879 pbc="F F F"
Hf       0.00000000       0.00000000       0.00000000       0.00000000       0.00000000       0.40962520
Hf       0.00000000       0.00000000       4.03333333       0.00000000       0.00000000      -0.40962520
2
Properties=species:S:1:pos:R:3:forces:R:3 energy=-7.5516927407613 pbc="F F F"
Hf       0.00000000       0.00000000       0.00000000       0.00000000       0.00000000       0.45143190
Hf       0.00000000       0.00000000       4.09292929       0.00000000       0.00000000      -0.45143190
2
Properties=species:S:1:pos:R:3:forces:R:3 energy=-7.523482100070474 pbc="F F F"
Hf       0.00000000       0.00000000       0.00000000       0.00000000       0.00000000       0.49486336
Hf       0.00000000       0.00000000       4.15252525       0.00000000       0.00000000      -0.49486336
2
Properties=species:S:1:pos:R:3:forces:R:3 energy=-7.49282769696772 pbc="F F F"
Hf       0.00000000       0.00000000       0.00000000       0.00000000       0.00000000       0.53241068
Hf       0.00000000       0.00000000       4.21212121       0.00000000       0.00000000      -0.53241068
2
Properties=species:S:1:pos:R:3:forces:R:3 energy=-7.460239235688963 pbc="F F F"
Hf       0.00000000       0.00000000       0.00000000       0.00000000       0.00000000       0.55913854
Hf       0.00000000       0.00000000       4.27171717       0.00000000       0.00000000      -0.55913854
2
Properties=species:S:1:pos:R:3:forces:R:3 energy=-7.426448829326469 pbc="F F F"
Hf       0.00000000       0.00000000       0.00000000       0.00000000       0.00000000       0.57255024
Hf       0.00000000       0.00000000       4.33131313       0.00000000       0.00000000      -0.57255024
2
Properties=species:S:1:pos:R:3:forces:R:3 energy=-7.392270936417218 pbc="F F F"
Hf       0.00000000       0.00000000       0.00000000       0.00000000       0.00000000       0.57218951
Hf       0.00000000       0.00000000       4.39090909       0.00000000       0.00000000      -0.57218951
2
Properties=species:S:1:pos:R:3:forces:R:3 energy=-7.358501678610436 pbc="F F F"
Hf       0.00000000       0.00000000       0.00000000       0.00000000       0.00000000       0.55907661
Hf       0.00000000       0.00000000       4.45050505       0.00000000       0.00000000      -0.55907661
2
Properties=species:S:1:pos:R:3:forces:R:3 energy=-7.325850277487122 pbc="F F F"
Hf       0.00000000       0.00000000       0.00000000       0.00000000       0.00000000       0.53507155
Hf       0.00000000       0.00000000       4.51010101       0.00000000       0.00000000      -0.53507155
2
Properties=species:S:1:pos:R:3:forces:R:3 energy=-7.294899947577433 pbc="F F F"
Hf       0.00000000       0.00000000       0.00000000       0.00000000       0.00000000       0.50228202
Hf       0.00000000       0.00000000       4.56969697       0.00000000       0.00000000      -0.50228202
2
Properties=species:S:1:pos:R:3:forces:R:3 energy=-7.266117357076116 pbc="F F F"
Hf       0.00000000       0.00000000       0.00000000       0.00000000       0.00000000       0.46263790
Hf       0.00000000       0.00000000       4.62929293       0.00000000       0.00000000      -0.46263790
2
Properties=species:S:1:pos:R:3:forces:R:3 energy=-7.2398615403648545 pbc="F F F"
Hf       0.00000000       0.00000000       0.00000000       0.00000000       0.00000000       0.41776603
Hf       0.00000000       0.00000000       4.68888889       0.00000000       0.00000000      -0.41776603
2
Properties=species:S:1:pos:R:3:forces:R:3 energy=-7.2163982934898785 pbc="F F F"
Hf       0.00000000       0.00000000       0.00000000       0.00000000       0.00000000       0.36911440
Hf       0.00000000       0.00000000       4.74848485       0.00000000       0.00000000      -0.36911440
2
Properties=species:S:1:pos:R:3:forces:R:3 energy=-7.1959094684868035 pbc="F F F"
Hf       0.00000000       0.00000000       0.00000000       0.00000000       0.00000000       0.31828883
Hf       0.00000000       0.00000000       4.80808081       0.00000000       0.00000000      -0.31828883
2
Properties=species:S:1:pos:R:3:forces:R:3 energy=-7.178464350479853 pbc="F F F"
Hf       0.00000000       0.00000000       0.00000000       0.00000000       0.00000000       0.26731065
Hf       0.00000000       0.00000000       4.86767677       0.00000000       0.00000000      -0.26731065
2
Properties=species:S:1:pos:R:3:forces:R:3 energy=-7.164000981837131 pbc="F F F"
Hf       0.00000000       0.00000000       0.00000000       0.00000000       0.00000000       0.21867552
Hf       0.00000000       0.00000000       4.92727273       0.00000000       0.00000000      -0.21867552
2
Properties=species:S:1:pos:R:3:forces:R:3 energy=-7.15229992662346 pbc="F F F"
Hf       0.00000000       0.00000000       0.00000000       0.00000000       0.00000000       0.17505169
Hf       0.00000000       0.00000000       4.98686869       0.00000000       0.00000000      -0.17505169
2
Properties=species:S:1:pos:R:3:forces:R:3 energy=-7.1429904536443205 pbc="F F F"
Hf       0.00000000       0.00000000       0.00000000       0.00000000       0.00000000       0.13877042
Hf       0.00000000       0.00000000       5.04646465       0.00000000       0.00000000      -0.13877042
2
Properties=species:S:1:pos:R:3:forces:R:3 energy=-7.13558530754454 pbc="F F F"
Hf       0.00000000       0.00000000       0.00000000       0.00000000       0.00000000       0.11126159
Hf       0.00000000       0.00000000       5.10606061       0.00000000       0.00000000      -0.11126159
2
Properties=species:S:1:pos:R:3:forces:R:3 energy=-7.129549290995693 pbc="F F F"
Hf       0.00000000       0.00000000       0.00000000       0.00000000       0.00000000       0.09272998
Hf       0.00000000       0.00000000       5.16565657       0.00000000       0.00000000      -0.09272998
2
Properties=species:S:1:pos:R:3:forces:R:3 energy=-7.124374118626478 pbc="F F F"
Hf       0.00000000       0.00000000       0.00000000       0.00000000       0.00000000       0.08212414
Hf       0.00000000       0.00000000       5.22525253       0.00000000       0.00000000      -0.08212414
2
Properties=species:S:1:pos:R:3:forces:R:3 energy=-7.119643140163343 pbc="F F F"
Hf       0.00000000       0.00000000       0.00000000       0.00000000       0.00000000       0.07742993
Hf       0.00000000       0.00000000       5.28484848       0.00000000       0.00000000      -0.07742993
2
Properties=species:S:1:pos:R:3:forces:R:3 energy=-7.115076687477847 pbc="F F F"
Hf       0.00000000       0.00000000       0.00000000       0.00000000       0.00000000       0.07617652
Hf       0.00000000       0.00000000       5.34444444       0.00000000       0.00000000      -0.07617652
2
Properties=species:S:1:pos:R:3:forces:R:3 energy=-7.110542870778907 pbc="F F F"
Hf       0.00000000       0.00000000       0.00000000       0.00000000       0.00000000       0.07596038
Hf       0.00000000       0.00000000       5.40404040       0.00000000       0.00000000      -0.07596038
2
Properties=species:S:1:pos:R:3:forces:R:3 energy=-7.106039458800781 pbc="F F F"
Hf       0.00000000       0.00000000       0.00000000       0.00000000       0.00000000       0.07488661
Hf       0.00000000       0.00000000       5.46363636       0.00000000       0.00000000      -0.07488661
2
Properties=species:S:1:pos:R:3:forces:R:3 energy=-7.101658980991502 pbc="F F F"
Hf       0.00000000       0.00000000       0.00000000       0.00000000       0.00000000       0.07179223
Hf       0.00000000       0.00000000       5.52323232       0.00000000       0.00000000      -0.07179223
2
Properties=species:S:1:pos:R:3:forces:R:3 energy=-7.097531510221716 pbc="F F F"
Hf       0.00000000       0.00000000       0.00000000       0.00000000       0.00000000       0.06632670
Hf       0.00000000       0.00000000       5.58282828       0.00000000       0.00000000      -0.06632670
2
Properties=species:S:1:pos:R:3:forces:R:3 energy=-7.093794463652604 pbc="F F F"
Hf       0.00000000       0.00000000       0.00000000       0.00000000       0.00000000       0.05880542
Hf       0.00000000       0.00000000       5.64242424       0.00000000       0.00000000      -0.05880542
2
Properties=species:S:1:pos:R:3:forces:R:3 energy=-7.090546422391454 pbc="F F F"
Hf       0.00000000       0.00000000       0.00000000       0.00000000       0.00000000       0.05001648
Hf       0.00000000       0.00000000       5.70202020       0.00000000       0.00000000      -0.05001648
2
Properties=species:S:1:pos:R:3:forces:R:3 energy=-7.0878389428965844 pbc="F F F"
Hf       0.00000000       0.00000000       0.00000000       0.00000000       0.00000000       0.04095019
Hf       0.00000000       0.00000000       5.76161616       0.00000000       0.00000000      -0.04095019
2
Properties=species:S:1:pos:R:3:forces:R:3 energy=-7.085651230754993 pbc="F F F"
Hf       0.00000000       0.00000000       0.00000000       0.00000000       0.00000000       0.03262583
Hf       0.00000000       0.00000000       5.82121212       0.00000000       0.00000000      -0.03262583
2
Properties=species:S:1:pos:R:3:forces:R:3 energy=-7.083919278434155 pbc="F F F"
Hf       0.00000000       0.00000000       0.00000000       0.00000000       0.00000000       0.02588646
Hf       0.00000000       0.00000000       5.88080808       0.00000000       0.00000000      -0.02588646
2
Properties=species:S:1:pos:R:3:forces:R:3 energy=-7.082521474636082 pbc="F F F"
Hf       0.00000000       0.00000000       0.00000000       0.00000000       0.00000000       0.02135114
Hf       0.00000000       0.00000000       5.94040404       0.00000000       0.00000000      -0.02135114
2
Properties=species:S:1:pos:R:3:forces:R:3 energy=-7.081321576662359 pbc="F F F"
Hf       0.00000000       0.00000000       0.00000000       0.00000000       0.00000000       0.01939954
Hf       0.00000000       0.00000000       6.00000000       0.00000000       0.00000000      -0.01939954
