2
Properties=species:S:1:pos:R:3:forces:R:3 energy=92333.42013921993 pbc="F F F"
Hg       0.00000000       0.00000000       0.00000000       0.00000000       0.00000000 -2350044.50000000
Hg       0.00000000       0.00000000       0.10000000       0.00000000       0.00000000 2350044.50000000
2
Properties=species:S:1:pos:R:3:forces:R:3 energy=25158.23263921993 pbc="F F F"
Hg       0.00000000       0.00000000       0.00000000       0.00000000       0.00000000 -478520.34375000
Hg       0.00000000       0.00000000       0.15959596       0.00000000       0.00000000  478520.34375000
2
Properties=species:S:1:pos:R:3:forces:R:3 energy=8992.581272032427 pbc="F F F"
Hg       0.00000000       0.00000000       0.00000000       0.00000000       0.00000000 -142288.12500000
Hg       0.00000000       0.00000000       0.21919192       0.00000000       0.00000000  142288.12500000
2
Properties=species:S:1:pos:R:3:forces:R:3 energy=3724.186252501177 pbc="F F F"
Hg       0.00000000       0.00000000       0.00000000       0.00000000       0.00000000  -51716.22265625
Hg       0.00000000       0.00000000       0.27878788       0.00000000       0.00000000   51716.22265625
2
Properties=species:S:1:pos:R:3:forces:R:3 energy=1702.1211890246143 pbc="F F F"
Hg       0.00000000       0.00000000       0.00000000       0.00000000       0.00000000  -21165.75195312
Hg       0.00000000       0.00000000       0.33838384       0.00000000       0.00000000   21165.75195312
2
Properties=species:S:1:pos:R:3:forces:R:3 energy=843.4270361989187 pbc="F F F"
Hg       0.00000000       0.00000000       0.00000000       0.00000000       0.00000000   -9394.45703125
Hg       0.00000000       0.00000000       0.39797980       0.00000000       0.00000000    9394.45703125
2
Properties=species:S:1:pos:R:3:forces:R:3 energy=451.37283699284 pbc="F F F"
Hg       0.00000000       0.00000000       0.00000000       0.00000000       0.00000000   -4436.62890625
Hg       0.00000000       0.00000000       0.45757576       0.00000000       0.00000000    4436.62890625
2
Properties=species:S:1:pos:R:3:forces:R:3 energy=262.0750464845032 pbc="F F F"
Hg       0.00000000       0.00000000       0.00000000       0.00000000       0.00000000   -2197.20458984
Hg       0.00000000       0.00000000       0.51717172       0.00000000       0.00000000    2197.20458984
2
Properties=species:S:1:pos:R:3:forces:R:3 energy=166.92351148833737 pbc="F F F"
Hg       0.00000000       0.00000000       0.00000000       0.00000000       0.00000000   -1120.76879883
Hg       0.00000000       0.00000000       0.57676768       0.00000000       0.00000000    1120.76879883
2
Properties=species:S:1:pos:R:3:forces:R:3 energy=118.19813160784616 pbc="F F F"
Hg       0.00000000       0.00000000       0.00000000       0.00000000       0.00000000    -573.23278809
Hg       0.00000000       0.00000000       0.63636364       0.00000000       0.00000000     573.23278809
2
Properties=species:S:1:pos:R:3:forces:R:3 energy=93.59801116161505 pbc="F F F"
Hg       0.00000000       0.00000000       0.00000000       0.00000000       0.00000000    -282.00836182
Hg       0.00000000       0.00000000       0.69595960       0.00000000       0.00000000     282.00836182
2
Properties=species:S:1:pos:R:3:forces:R:3 energy=81.96175795673692 pbc="F F F"
Hg       0.00000000       0.00000000       0.00000000       0.00000000       0.00000000    -124.83396912
Hg       0.00000000       0.00000000       0.75555556       0.00000000       0.00000000     124.83396912
2
Properties=species:S:1:pos:R:3:forces:R:3 energy=77.2200971162106 pbc="F F F"
Hg       0.00000000       0.00000000       0.00000000       0.00000000       0.00000000     -43.88368988
Hg       0.00000000       0.00000000       0.81515152       0.00000000       0.00000000      43.88368988
2
Properties=species:S:1:pos:R:3:forces:R:3 energy=75.82558145762098 pbc="F F F"
Hg       0.00000000       0.00000000       0.00000000       0.00000000       0.00000000      -9.20175838
Hg       0.00000000       0.00000000       0.87474747       0.00000000       0.00000000       9.20175838
2
Properties=species:S:1:pos:R:3:forces:R:3 energy=75.43232478534539 pbc="F F F"
Hg       0.00000000       0.00000000       0.00000000       0.00000000       0.00000000      -9.52608109
Hg       0.00000000       0.00000000       0.93434343       0.00000000       0.00000000       9.52608109
2
Properties=species:S:1:pos:R:3:forces:R:3 energy=74.09327514178017 pbc="F F F"
Hg       0.00000000       0.00000000       0.00000000       0.00000000       0.00000000     -39.44800949
Hg       0.00000000       0.00000000       0.99393939       0.00000000       0.00000000      39.44800949
2
Properties=species:S:1:pos:R:3:forces:R:3 energy=70.44425869161817 pbc="F F F"
Hg       0.00000000       0.00000000       0.00000000       0.00000000       0.00000000     -83.57270050
Hg       0.00000000       0.00000000       1.05353535       0.00000000       0.00000000      83.57270050
2
Properties=species:S:1:pos:R:3:forces:R:3 energy=64.26264213639944 pbc="F F F"
Hg       0.00000000       0.00000000       0.00000000       0.00000000       0.00000000    -121.41719818
Hg       0.00000000       0.00000000       1.11313131       0.00000000       0.00000000     121.41719818
2
Properties=species:S:1:pos:R:3:forces:R:3 energy=56.37734400601509 pbc="F F F"
Hg       0.00000000       0.00000000       0.00000000       0.00000000       0.00000000    -139.32247925
Hg       0.00000000       0.00000000       1.17272727       0.00000000       0.00000000     139.32247925
2
Properties=species:S:1:pos:R:3:forces:R:3 energy=48.03564451951727 pbc="F F F"
Hg       0.00000000       0.00000000       0.00000000       0.00000000       0.00000000    -138.85295105
Hg       0.00000000       0.00000000       1.23232323       0.00000000       0.00000000     138.85295105
2
Properties=species:S:1:pos:R:3:forces:R:3 energy=39.889406879588606 pbc="F F F"
Hg       0.00000000       0.00000000       0.00000000       0.00000000       0.00000000    -134.43992615
Hg       0.00000000       0.00000000       1.29191919       0.00000000       0.00000000     134.43992615
2
Properties=species:S:1:pos:R:3:forces:R:3 energy=32.09441200201051 pbc="F F F"
Hg       0.00000000       0.00000000       0.00000000       0.00000000       0.00000000    -125.74168396
Hg       0.00000000       0.00000000       1.35151515       0.00000000       0.00000000     125.74168396
2
Properties=species:S:1:pos:R:3:forces:R:3 energy=25.080591682631248 pbc="F F F"
Hg       0.00000000       0.00000000       0.00000000       0.00000000       0.00000000    -108.53405762
Hg       0.00000000       0.00000000       1.41111111       0.00000000       0.00000000     108.53405762
2
Properties=species:S:1:pos:R:3:forces:R:3 energy=19.218564915871486 pbc="F F F"
Hg       0.00000000       0.00000000       0.00000000       0.00000000       0.00000000     -88.16056061
Hg       0.00000000       0.00000000       1.47070707       0.00000000       0.00000000      88.16056061
2
Properties=species:S:1:pos:R:3:forces:R:3 energy=14.544830912070225 pbc="F F F"
Hg       0.00000000       0.00000000       0.00000000       0.00000000       0.00000000     -69.07951355
Hg       0.00000000       0.00000000       1.53030303       0.00000000       0.00000000      69.07951355
2
Properties=species:S:1:pos:R:3:forces:R:3 energy=10.930848916077306 pbc="F F F"
Hg       0.00000000       0.00000000       0.00000000       0.00000000       0.00000000     -52.68675613
Hg       0.00000000       0.00000000       1.58989899       0.00000000       0.00000000      52.68675613
2
Properties=species:S:1:pos:R:3:forces:R:3 energy=8.206009710304198 pbc="F F F"
Hg       0.00000000       0.00000000       0.00000000       0.00000000       0.00000000     -39.25861359
Hg       0.00000000       0.00000000       1.64949495       0.00000000       0.00000000      39.25861359
2
Properties=species:S:1:pos:R:3:forces:R:3 energy=6.1917614386320405 pbc="F F F"
Hg       0.00000000       0.00000000       0.00000000       0.00000000       0.00000000     -28.83060074
Hg       0.00000000       0.00000000       1.70909091       0.00000000       0.00000000      28.83060074
2
Properties=species:S:1:pos:R:3:forces:R:3 energy=4.713868625583185 pbc="F F F"
Hg       0.00000000       0.00000000       0.00000000       0.00000000       0.00000000     -21.19918060
Hg       0.00000000       0.00000000       1.76868687       0.00000000       0.00000000      21.19918060
2
Properties=species:S:1:pos:R:3:forces:R:3 energy=3.6191515035782227 pbc="F F F"
Hg       0.00000000       0.00000000       0.00000000       0.00000000       0.00000000     -15.87028885
Hg       0.00000000       0.00000000       1.82828283       0.00000000       0.00000000      15.87028885
2
Properties=species:S:1:pos:R:3:forces:R:3 energy=2.789373478520117 pbc="F F F"
Hg       0.00000000       0.00000000       0.00000000       0.00000000       0.00000000     -12.19818687
Hg       0.00000000       0.00000000       1.88787879       0.00000000       0.00000000      12.19818687
2
Properties=species:S:1:pos:R:3:forces:R:3 energy=2.1444587952595344 pbc="F F F"
Hg       0.00000000       0.00000000       0.00000000       0.00000000       0.00000000      -9.57770061
Hg       0.00000000       0.00000000       1.94747475       0.00000000       0.00000000       9.57770061
2
Properties=species:S:1:pos:R:3:forces:R:3 energy=1.6355915181583944 pbc="F F F"
Hg       0.00000000       0.00000000       0.00000000       0.00000000       0.00000000      -7.57847118
Hg       0.00000000       0.00000000       2.00707071       0.00000000       0.00000000       7.57847118
2
Properties=species:S:1:pos:R:3:forces:R:3 energy=1.2334173496891632 pbc="F F F"
Hg       0.00000000       0.00000000       0.00000000       0.00000000       0.00000000      -5.97454357
Hg       0.00000000       0.00000000       2.06666667       0.00000000       0.00000000       5.97454357
2
Properties=species:S:1:pos:R:3:forces:R:3 energy=0.9171706297465048 pbc="F F F"
Hg       0.00000000       0.00000000       0.00000000       0.00000000       0.00000000      -4.68991232
Hg       0.00000000       0.00000000       2.12626263       0.00000000       0.00000000       4.68991232
2
Properties=species:S:1:pos:R:3:forces:R:3 energy=0.668366962049706 pbc="F F F"
Hg       0.00000000       0.00000000       0.00000000       0.00000000       0.00000000      -3.70922565
Hg       0.00000000       0.00000000       2.18585859       0.00000000       0.00000000       3.70922565
2
Properties=species:S:1:pos:R:3:forces:R:3 energy=0.4695181690955653 pbc="F F F"
Hg       0.00000000       0.00000000       0.00000000       0.00000000       0.00000000      -3.00625062
Hg       0.00000000       0.00000000       2.24545455       0.00000000       0.00000000       3.00625062
2
Properties=species:S:1:pos:R:3:forces:R:3 energy=0.30569644241428034 pbc="F F F"
Hg       0.00000000       0.00000000       0.00000000       0.00000000       0.00000000      -2.52165461
Hg       0.00000000       0.00000000       2.30505051       0.00000000       0.00000000       2.52165461
2
Properties=species:S:1:pos:R:3:forces:R:3 energy=0.16613383333596649 pbc="F F F"
Hg       0.00000000       0.00000000       0.00000000       0.00000000       0.00000000      -2.17953897
Hg       0.00000000       0.00000000       2.36464646       0.00000000       0.00000000       2.17953897
2
Properties=species:S:1:pos:R:3:forces:R:3 energy=0.04444202752722747 pbc="F F F"
Hg       0.00000000       0.00000000       0.00000000       0.00000000       0.00000000      -1.91223001
Hg       0.00000000       0.00000000       2.42424242       0.00000000       0.00000000       1.91223001
2
Properties=species:S:1:pos:R:3:forces:R:3 energy=-0.062357335508277247 pbc="F F F"
Hg       0.00000000       0.00000000       0.00000000       0.00000000       0.00000000      -1.67434418
Hg       0.00000000       0.00000000       2.48383838       0.00000000       0.00000000       1.67434418
2
Properties=species:S:1:pos:R:3:forces:R:3 energy=-0.15526004745650043 pbc="F F F"
Hg       0.00000000       0.00000000       0.00000000       0.00000000       0.00000000      -1.44377232
Hg       0.00000000       0.00000000       2.54343434       0.00000000       0.00000000       1.44377232
2
Properties=species:S:1:pos:R:3:forces:R:3 energy=-0.23447314814552864 pbc="F F F"
Hg       0.00000000       0.00000000       0.00000000       0.00000000       0.00000000      -1.21493042
Hg       0.00000000       0.00000000       2.60303030       0.00000000       0.00000000       1.21493042
2
Properties=species:S:1:pos:R:3:forces:R:3 energy=-0.30015437675098616 pbc="F F F"
Hg       0.00000000       0.00000000       0.00000000       0.00000000       0.00000000      -0.99038106
Hg       0.00000000       0.00000000       2.66262626       0.00000000       0.00000000       0.99038106
2
Properties=species:S:1:pos:R:3:forces:R:3 energy=-0.3526968810974641 pbc="F F F"
Hg       0.00000000       0.00000000       0.00000000       0.00000000       0.00000000      -0.77476609
Hg       0.00000000       0.00000000       2.72222222       0.00000000       0.00000000       0.77476609
2
Properties=species:S:1:pos:R:3:forces:R:3 energy=-0.3927565846140788 pbc="F F F"
Hg       0.00000000       0.00000000       0.00000000       0.00000000       0.00000000      -0.57204074
Hg       0.00000000       0.00000000       2.78181818       0.00000000       0.00000000       0.57204074
2
Properties=species:S:1:pos:R:3:forces:R:3 energy=-0.4211939326516438 pbc="F F F"
Hg       0.00000000       0.00000000       0.00000000       0.00000000       0.00000000      -0.38514325
Hg       0.00000000       0.00000000       2.84141414       0.00000000       0.00000000       0.38514325
2
Properties=species:S:1:pos:R:3:forces:R:3 energy=-0.4390274421311301 pbc="F F F"
Hg       0.00000000       0.00000000       0.00000000       0.00000000       0.00000000      -0.21661426
Hg       0.00000000       0.00000000       2.90101010       0.00000000       0.00000000       0.21661426
2
Properties=species:S:1:pos:R:3:forces:R:3 energy=-0.44742759715038716 pbc="F F F"
Hg       0.00000000       0.00000000       0.00000000       0.00000000       0.00000000      -0.06898686
Hg       0.00000000       0.00000000       2.96060606       0.00000000       0.00000000       0.06898686
2
Properties=species:S:1:pos:R:3:forces:R:3 energy=-0.44771134671188995 pbc="F F F"
Hg       0.00000000       0.00000000       0.00000000       0.00000000       0.00000000       0.05545325
Hg       0.00000000       0.00000000       3.02020202       0.00000000       0.00000000      -0.05545325
2
Properties=species:S:1:pos:R:3:forces:R:3 energy=-0.4413096686578536 pbc="F F F"
Hg       0.00000000       0.00000000       0.00000000       0.00000000       0.00000000       0.15520345
Hg       0.00000000       0.00000000       3.07979798       0.00000000       0.00000000      -0.15520345
2
Properties=species:S:1:pos:R:3:forces:R:3 energy=-0.42971449848070764 pbc="F F F"
Hg       0.00000000       0.00000000       0.00000000       0.00000000       0.00000000       0.22969584
Hg       0.00000000       0.00000000       3.13939394       0.00000000       0.00000000      -0.22969584
2
Properties=species:S:1:pos:R:3:forces:R:3 energy=-0.4144327385687219 pbc="F F F"
Hg       0.00000000       0.00000000       0.00000000       0.00000000       0.00000000       0.27896845
Hg       0.00000000       0.00000000       3.19898990       0.00000000       0.00000000      -0.27896845
2
Properties=species:S:1:pos:R:3:forces:R:3 energy=-0.39694930024708197 pbc="F F F"
Hg       0.00000000       0.00000000       0.00000000       0.00000000       0.00000000       0.30384287
Hg       0.00000000       0.00000000       3.25858586       0.00000000       0.00000000      -0.30384287
2
Properties=species:S:1:pos:R:3:forces:R:3 energy=-0.37865403388618757 pbc="F F F"
Hg       0.00000000       0.00000000       0.00000000       0.00000000       0.00000000       0.30680057
Hg       0.00000000       0.00000000       3.31818182       0.00000000       0.00000000      -0.30680057
2
Properties=species:S:1:pos:R:3:forces:R:3 energy=-0.3607318054640545 pbc="F F F"
Hg       0.00000000       0.00000000       0.00000000       0.00000000       0.00000000       0.29213554
Hg       0.00000000       0.00000000       3.37777778       0.00000000       0.00000000      -0.29213554
2
Properties=species:S:1:pos:R:3:forces:R:3 energy=-0.3440809334036235 pbc="F F F"
Hg       0.00000000       0.00000000       0.00000000       0.00000000       0.00000000       0.26500621
Hg       0.00000000       0.00000000       3.43737374       0.00000000       0.00000000      -0.26500621
2
Properties=species:S:1:pos:R:3:forces:R:3 energy=-0.32929279573897463 pbc="F F F"
Hg       0.00000000       0.00000000       0.00000000       0.00000000       0.00000000       0.23042195
Hg       0.00000000       0.00000000       3.49696970       0.00000000       0.00000000      -0.23042195
2
Properties=species:S:1:pos:R:3:forces:R:3 energy=-0.31667853320503897 pbc="F F F"
Hg       0.00000000       0.00000000       0.00000000       0.00000000       0.00000000       0.19269204
Hg       0.00000000       0.00000000       3.55656566       0.00000000       0.00000000      -0.19269204
2
Properties=species:S:1:pos:R:3:forces:R:3 energy=-0.30631936261450465 pbc="F F F"
Hg       0.00000000       0.00000000       0.00000000       0.00000000       0.00000000       0.15523644
Hg       0.00000000       0.00000000       3.61616162       0.00000000       0.00000000      -0.15523644
2
Properties=species:S:1:pos:R:3:forces:R:3 energy=-0.2981199942795119 pbc="F F F"
Hg       0.00000000       0.00000000       0.00000000       0.00000000       0.00000000       0.12055116
Hg       0.00000000       0.00000000       3.67575758       0.00000000       0.00000000      -0.12055116
2
Properties=species:S:1:pos:R:3:forces:R:3 energy=-0.29186287391856874 pbc="F F F"
Hg       0.00000000       0.00000000       0.00000000       0.00000000       0.00000000       0.09026606
Hg       0.00000000       0.00000000       3.73535354       0.00000000       0.00000000      -0.09026606
2
Properties=species:S:1:pos:R:3:forces:R:3 energy=-0.28725623488372165 pbc="F F F"
Hg       0.00000000       0.00000000       0.00000000       0.00000000       0.00000000       0.06524067
Hg       0.00000000       0.00000000       3.79494949       0.00000000       0.00000000      -0.06524067
2
Properties=species:S:1:pos:R:3:forces:R:3 energy=-0.2839774131283289 pbc="F F F"
Hg       0.00000000       0.00000000       0.00000000       0.00000000       0.00000000       0.04569580
Hg       0.00000000       0.00000000       3.85454545       0.00000000       0.00000000      -0.04569580
2
Properties=species:S:1:pos:R:3:forces:R:3 energy=-0.28170582147691275 pbc="F F F"
Hg       0.00000000       0.00000000       0.00000000       0.00000000       0.00000000       0.03136369
Hg       0.00000000       0.00000000       3.91414141       0.00000000       0.00000000      -0.03136369
2
Properties=species:S:1:pos:R:3:forces:R:3 energy=-0.28014747693648406 pbc="F F F"
Hg       0.00000000       0.00000000       0.00000000       0.00000000       0.00000000       0.02164559
Hg       0.00000000       0.00000000       3.97373737       0.00000000       0.00000000      -0.02164559
2
Properties=species:S:1:pos:R:3:forces:R:3 energy=-0.2790497135403358 pbc="F F F"
Hg       0.00000000       0.00000000       0.00000000       0.00000000       0.00000000       0.01576022
Hg       0.00000000       0.00000000       4.03333333       0.00000000       0.00000000      -0.01576022
2
Properties=species:S:1:pos:R:3:forces:R:3 energy=-0.2782094927362438 pbc="F F F"
Hg       0.00000000       0.00000000       0.00000000       0.00000000       0.00000000       0.01286740
Hg       0.00000000       0.00000000       4.09292929       0.00000000       0.00000000      -0.01286740
2
Properties=species:S:1:pos:R:3:forces:R:3 energy=-0.27747260166158183 pbc="F F F"
Hg       0.00000000       0.00000000       0.00000000       0.00000000       0.00000000       0.01216088
Hg       0.00000000       0.00000000       4.15252525       0.00000000       0.00000000      -0.01216088
2
Properties=species:S:1:pos:R:3:forces:R:3 energy=-0.2767308834032388 pbc="F F F"
Hg       0.00000000       0.00000000       0.00000000       0.00000000       0.00000000       0.01292337
Hg       0.00000000       0.00000000       4.21212121       0.00000000       0.00000000      -0.01292337
2
Properties=species:S:1:pos:R:3:forces:R:3 energy=-0.27591514733668365 pbc="F F F"
Hg       0.00000000       0.00000000       0.00000000       0.00000000       0.00000000       0.01455013
Hg       0.00000000       0.00000000       4.27171717       0.00000000       0.00000000      -0.01455013
2
Properties=species:S:1:pos:R:3:forces:R:3 energy=-0.2749892112453337 pbc="F F F"
Hg       0.00000000       0.00000000       0.00000000       0.00000000       0.00000000       0.01655140
Hg       0.00000000       0.00000000       4.33131313       0.00000000       0.00000000      -0.01655140
2
Properties=species:S:1:pos:R:3:forces:R:3 energy=-0.27394264257915435 pbc="F F F"
Hg       0.00000000       0.00000000       0.00000000       0.00000000       0.00000000       0.01854321
Hg       0.00000000       0.00000000       4.39090909       0.00000000       0.00000000      -0.01854321
2
Properties=species:S:1:pos:R:3:forces:R:3 energy=-0.27278498520161565 pbc="F F F"
Hg       0.00000000       0.00000000       0.00000000       0.00000000       0.00000000       0.02023623
Hg       0.00000000       0.00000000       4.45050505       0.00000000       0.00000000      -0.02023623
2
Properties=species:S:1:pos:R:3:forces:R:3 energy=-0.27154067427994166 pbc="F F F"
Hg       0.00000000       0.00000000       0.00000000       0.00000000       0.00000000       0.02142699
Hg       0.00000000       0.00000000       4.51010101       0.00000000       0.00000000      -0.02142699
2
Properties=species:S:1:pos:R:3:forces:R:3 energy=-0.2702435436322688 pbc="F F F"
Hg       0.00000000       0.00000000       0.00000000       0.00000000       0.00000000       0.02199244
Hg       0.00000000       0.00000000       4.56969697       0.00000000       0.00000000      -0.02199244
2
Properties=species:S:1:pos:R:3:forces:R:3 energy=-0.2689326911243899 pbc="F F F"
Hg       0.00000000       0.00000000       0.00000000       0.00000000       0.00000000       0.02188729
Hg       0.00000000       0.00000000       4.62929293       0.00000000       0.00000000      -0.02188729
2
Properties=species:S:1:pos:R:3:forces:R:3 energy=-0.26764753888180204 pbc="F F F"
Hg       0.00000000       0.00000000       0.00000000       0.00000000       0.00000000       0.02114133
Hg       0.00000000       0.00000000       4.68888889       0.00000000       0.00000000      -0.02114133
2
Properties=species:S:1:pos:R:3:forces:R:3 energy=-0.2664236584427122 pbc="F F F"
Hg       0.00000000       0.00000000       0.00000000       0.00000000       0.00000000       0.01985346
Hg       0.00000000       0.00000000       4.74848485       0.00000000       0.00000000      -0.01985346
2
Properties=species:S:1:pos:R:3:forces:R:3 energy=-0.2652889070215134 pbc="F F F"
Hg       0.00000000       0.00000000       0.00000000       0.00000000       0.00000000       0.01817727
Hg       0.00000000       0.00000000       4.80808081       0.00000000       0.00000000      -0.01817727
2
Properties=species:S:1:pos:R:3:forces:R:3 energy=-0.264261128562204 pbc="F F F"
Hg       0.00000000       0.00000000       0.00000000       0.00000000       0.00000000       0.01629582
Hg       0.00000000       0.00000000       4.86767677       0.00000000       0.00000000      -0.01629582
2
Properties=species:S:1:pos:R:3:forces:R:3 energy=-0.2633470064109611 pbc="F F F"
Hg       0.00000000       0.00000000       0.00000000       0.00000000       0.00000000       0.01438939
Hg       0.00000000       0.00000000       4.92727273       0.00000000       0.00000000      -0.01438939
2
Properties=species:S:1:pos:R:3:forces:R:3 energy=-0.26254359813574346 pbc="F F F"
Hg       0.00000000       0.00000000       0.00000000       0.00000000       0.00000000       0.01260303
Hg       0.00000000       0.00000000       4.98686869       0.00000000       0.00000000      -0.01260303
2
Properties=species:S:1:pos:R:3:forces:R:3 energy=-0.2618406689649428 pbc="F F F"
Hg       0.00000000       0.00000000       0.00000000       0.00000000       0.00000000       0.01102581
Hg       0.00000000       0.00000000       5.04646465       0.00000000       0.00000000      -0.01102581
2
Properties=species:S:1:pos:R:3:forces:R:3 energy=-0.26122463648932837 pbc="F F F"
Hg       0.00000000       0.00000000       0.00000000       0.00000000       0.00000000       0.00968685
Hg       0.00000000       0.00000000       5.10606061       0.00000000       0.00000000      -0.00968685
2
Properties=species:S:1:pos:R:3:forces:R:3 energy=-0.26068165737030113 pbc="F F F"
Hg       0.00000000       0.00000000       0.00000000       0.00000000       0.00000000       0.00857057
Hg       0.00000000       0.00000000       5.16565657       0.00000000       0.00000000      -0.00857057
2
Properties=species:S:1:pos:R:3:forces:R:3 energy=-0.2601993961183309 pbc="F F F"
Hg       0.00000000       0.00000000       0.00000000       0.00000000       0.00000000       0.00764189
Hg       0.00000000       0.00000000       5.22525253       0.00000000       0.00000000      -0.00764189
2
Properties=species:S:1:pos:R:3:forces:R:3 energy=-0.2597676845578321 pbc="F F F"
Hg       0.00000000       0.00000000       0.00000000       0.00000000       0.00000000       0.00687018
Hg       0.00000000       0.00000000       5.28484848       0.00000000       0.00000000      -0.00687018
2
Properties=species:S:1:pos:R:3:forces:R:3 energy=-0.2593776146702451 pbc="F F F"
Hg       0.00000000       0.00000000       0.00000000       0.00000000       0.00000000       0.00624548
Hg       0.00000000       0.00000000       5.34444444       0.00000000       0.00000000      -0.00624548
2
Properties=species:S:1:pos:R:3:forces:R:3 energy=-0.2590201651653452 pbc="F F F"
Hg       0.00000000       0.00000000       0.00000000       0.00000000       0.00000000       0.00577871
Hg       0.00000000       0.00000000       5.40404040       0.00000000       0.00000000      -0.00577871
2
Properties=species:S:1:pos:R:3:forces:R:3 energy=-0.25868536997605884 pbc="F F F"
Hg       0.00000000       0.00000000       0.00000000       0.00000000       0.00000000       0.00548938
Hg       0.00000000       0.00000000       5.46363636       0.00000000       0.00000000      -0.00548938
2
Properties=species:S:1:pos:R:3:forces:R:3 energy=-0.25836200325019965 pbc="F F F"
Hg       0.00000000       0.00000000       0.00000000       0.00000000       0.00000000       0.00538935
Hg       0.00000000       0.00000000       5.52323232       0.00000000       0.00000000      -0.00538935
2
Properties=species:S:1:pos:R:3:forces:R:3 energy=-0.2580393766393048 pbc="F F F"
Hg       0.00000000       0.00000000       0.00000000       0.00000000       0.00000000       0.00546577
Hg       0.00000000       0.00000000       5.58282828       0.00000000       0.00000000      -0.00546577
2
Properties=species:S:1:pos:R:3:forces:R:3 energy=-0.25770777049436017 pbc="F F F"
Hg       0.00000000       0.00000000       0.00000000       0.00000000       0.00000000       0.00567950
Hg       0.00000000       0.00000000       5.64242424       0.00000000       0.00000000      -0.00567950
2
Properties=species:S:1:pos:R:3:forces:R:3 energy=-0.25736101724838983 pbc="F F F"
Hg       0.00000000       0.00000000       0.00000000       0.00000000       0.00000000       0.00596670
Hg       0.00000000       0.00000000       5.70202020       0.00000000       0.00000000      -0.00596670
2
Properties=species:S:1:pos:R:3:forces:R:3 energy=-0.2569965743383513 pbc="F F F"
Hg       0.00000000       0.00000000       0.00000000       0.00000000       0.00000000       0.00625255
Hg       0.00000000       0.00000000       5.76161616       0.00000000       0.00000000      -0.00625255
2
Properties=species:S:1:pos:R:3:forces:R:3 energy=-0.2566171807558884 pbc="F F F"
Hg       0.00000000       0.00000000       0.00000000       0.00000000       0.00000000       0.00646388
Hg       0.00000000       0.00000000       5.82121212       0.00000000       0.00000000      -0.00646388
2
Properties=species:S:1:pos:R:3:forces:R:3 energy=-0.25622869127325165 pbc="F F F"
Hg       0.00000000       0.00000000       0.00000000       0.00000000       0.00000000       0.00654322
Hg       0.00000000       0.00000000       5.88080808       0.00000000       0.00000000      -0.00654322
2
Properties=species:S:1:pos:R:3:forces:R:3 energy=-0.2558407084817184 pbc="F F F"
Hg       0.00000000       0.00000000       0.00000000       0.00000000       0.00000000       0.00645277
Hg       0.00000000       0.00000000       5.94040404       0.00000000       0.00000000      -0.00645277
2
Properties=species:S:1:pos:R:3:forces:R:3 energy=-0.25546335745115756 pbc="F F F"
Hg       0.00000000       0.00000000       0.00000000       0.00000000       0.00000000       0.00617705
Hg       0.00000000       0.00000000       6.00000000       0.00000000       0.00000000      -0.00617705
