2
Properties=species:S:1:pos:R:3:forces:R:3 energy=9363.634026287811 pbc="F F F"
K        0.00000000       0.00000000       0.00000000       0.00000000       0.00000000 -201301.46875000
K        0.00000000       0.00000000       0.10000000       0.00000000       0.00000000  201301.46875000
2
Properties=species:S:1:pos:R:3:forces:R:3 energy=3132.0283133971857 pbc="F F F"
K        0.00000000       0.00000000       0.00000000       0.00000000       0.00000000  -49851.86328125
K        0.00000000       0.00000000       0.15959596       0.00000000       0.00000000   49851.86328125
2
Properties=species:S:1:pos:R:3:forces:R:3 energy=1341.3970878112482 pbc="F F F"
K        0.00000000       0.00000000       0.00000000       0.00000000       0.00000000  -17139.29687500
K        0.00000000       0.00000000       0.21919192       0.00000000       0.00000000   17139.29687500
2
Properties=species:S:1:pos:R:3:forces:R:3 energy=669.8870780456231 pbc="F F F"
K        0.00000000       0.00000000       0.00000000       0.00000000       0.00000000   -7123.67871094
K        0.00000000       0.00000000       0.27878788       0.00000000       0.00000000    7123.67871094
2
Properties=species:S:1:pos:R:3:forces:R:3 energy=374.34908366244133 pbc="F F F"
K        0.00000000       0.00000000       0.00000000       0.00000000       0.00000000   -3346.98242188
K        0.00000000       0.00000000       0.33838384       0.00000000       0.00000000    3346.98242188
2
Properties=species:S:1:pos:R:3:forces:R:3 energy=229.99749064486323 pbc="F F F"
K        0.00000000       0.00000000       0.00000000       0.00000000       0.00000000   -1707.17431641
K        0.00000000       0.00000000       0.39797980       0.00000000       0.00000000    1707.17431641
2
Properties=species:S:1:pos:R:3:forces:R:3 energy=154.3436973114862 pbc="F F F"
K        0.00000000       0.00000000       0.00000000       0.00000000       0.00000000    -921.98706055
K        0.00000000       0.00000000       0.45757576       0.00000000       0.00000000     921.98706055
2
Properties=species:S:1:pos:R:3:forces:R:3 energy=112.67027354756418 pbc="F F F"
K        0.00000000       0.00000000       0.00000000       0.00000000       0.00000000    -519.07177734
K        0.00000000       0.00000000       0.51717172       0.00000000       0.00000000     519.07177734
2
Properties=species:S:1:pos:R:3:forces:R:3 energy=88.85618663825342 pbc="F F F"
K        0.00000000       0.00000000       0.00000000       0.00000000       0.00000000    -301.52423096
K        0.00000000       0.00000000       0.57676768       0.00000000       0.00000000     301.52423096
2
Properties=species:S:1:pos:R:3:forces:R:3 energy=74.86348034892876 pbc="F F F"
K        0.00000000       0.00000000       0.00000000       0.00000000       0.00000000    -179.40798950
K        0.00000000       0.00000000       0.63636364       0.00000000       0.00000000     179.40798950
2
Properties=species:S:1:pos:R:3:forces:R:3 energy=66.46023634462927 pbc="F F F"
K        0.00000000       0.00000000       0.00000000       0.00000000       0.00000000    -108.90296173
K        0.00000000       0.00000000       0.69595960       0.00000000       0.00000000     108.90296173
2
Properties=species:S:1:pos:R:3:forces:R:3 energy=61.306370551011135 pbc="F F F"
K        0.00000000       0.00000000       0.00000000       0.00000000       0.00000000     -67.76397705
K        0.00000000       0.00000000       0.75555556       0.00000000       0.00000000      67.76397705
2
Properties=species:S:1:pos:R:3:forces:R:3 energy=58.031609385906 pbc="F F F"
K        0.00000000       0.00000000       0.00000000       0.00000000       0.00000000     -44.50830460
K        0.00000000       0.00000000       0.81515152       0.00000000       0.00000000      44.50830460
2
Properties=species:S:1:pos:R:3:forces:R:3 energy=55.76453866315966 pbc="F F F"
K        0.00000000       0.00000000       0.00000000       0.00000000       0.00000000     -33.27161407
K        0.00000000       0.00000000       0.87474747       0.00000000       0.00000000      33.27161407
2
Properties=species:S:1:pos:R:3:forces:R:3 energy=53.88604065229135 pbc="F F F"
K        0.00000000       0.00000000       0.00000000       0.00000000       0.00000000     -31.12974167
K        0.00000000       0.00000000       0.93434343       0.00000000       0.00000000      31.12974167
2
Properties=species:S:1:pos:R:3:forces:R:3 energy=51.90519815541007 pbc="F F F"
K        0.00000000       0.00000000       0.00000000       0.00000000       0.00000000     -36.48886871
K        0.00000000       0.00000000       0.99393939       0.00000000       0.00000000      36.48886871
2
Properties=species:S:1:pos:R:3:forces:R:3 energy=49.415417857681476 pbc="F F F"
K        0.00000000       0.00000000       0.00000000       0.00000000       0.00000000     -47.94033813
K        0.00000000       0.00000000       1.05353535       0.00000000       0.00000000      47.94033813
2
Properties=species:S:1:pos:R:3:forces:R:3 energy=46.110326167665896 pbc="F F F"
K        0.00000000       0.00000000       0.00000000       0.00000000       0.00000000     -63.41860962
K        0.00000000       0.00000000       1.11313131       0.00000000       0.00000000      63.41860962
2
Properties=species:S:1:pos:R:3:forces:R:3 energy=41.83780441834111 pbc="F F F"
K        0.00000000       0.00000000       0.00000000       0.00000000       0.00000000     -79.80833435
K        0.00000000       0.00000000       1.17272727       0.00000000       0.00000000      79.80833435
2
Properties=species:S:1:pos:R:3:forces:R:3 energy=36.65700331659527 pbc="F F F"
K        0.00000000       0.00000000       0.00000000       0.00000000       0.00000000     -93.22500610
K        0.00000000       0.00000000       1.23232323       0.00000000       0.00000000      93.22500610
2
Properties=species:S:1:pos:R:3:forces:R:3 energy=30.858597086278316 pbc="F F F"
K        0.00000000       0.00000000       0.00000000       0.00000000       0.00000000    -100.02841949
K        0.00000000       0.00000000       1.29191919       0.00000000       0.00000000     100.02841949
2
Properties=species:S:1:pos:R:3:forces:R:3 energy=24.906664651179323 pbc="F F F"
K        0.00000000       0.00000000       0.00000000       0.00000000       0.00000000     -98.25747681
K        0.00000000       0.00000000       1.35151515       0.00000000       0.00000000      98.25747681
2
Properties=species:S:1:pos:R:3:forces:R:3 energy=19.305310646146953 pbc="F F F"
K        0.00000000       0.00000000       0.00000000       0.00000000       0.00000000     -88.60836029
K        0.00000000       0.00000000       1.41111111       0.00000000       0.00000000      88.60836029
2
Properties=species:S:1:pos:R:3:forces:R:3 energy=14.439925378201027 pbc="F F F"
K        0.00000000       0.00000000       0.00000000       0.00000000       0.00000000     -74.23616028
K        0.00000000       0.00000000       1.47070707       0.00000000       0.00000000      74.23616028
2
Properties=species:S:1:pos:R:3:forces:R:3 energy=10.46644129913676 pbc="F F F"
K        0.00000000       0.00000000       0.00000000       0.00000000       0.00000000     -59.32828522
K        0.00000000       0.00000000       1.53030303       0.00000000       0.00000000      59.32828522
2
Properties=species:S:1:pos:R:3:forces:R:3 energy=7.323411301829418 pbc="F F F"
K        0.00000000       0.00000000       0.00000000       0.00000000       0.00000000     -46.59442902
K        0.00000000       0.00000000       1.58989899       0.00000000       0.00000000      46.59442902
2
Properties=species:S:1:pos:R:3:forces:R:3 energy=4.8638141274849085 pbc="F F F"
K        0.00000000       0.00000000       0.00000000       0.00000000       0.00000000     -36.29107285
K        0.00000000       0.00000000       1.64949495       0.00000000       0.00000000      36.29107285
2
Properties=species:S:1:pos:R:3:forces:R:3 energy=2.9663746354979574 pbc="F F F"
K        0.00000000       0.00000000       0.00000000       0.00000000       0.00000000     -27.58012390
K        0.00000000       0.00000000       1.70909091       0.00000000       0.00000000      27.58012390
2
Properties=species:S:1:pos:R:3:forces:R:3 energy=1.5579338892182693 pbc="F F F"
K        0.00000000       0.00000000       0.00000000       0.00000000       0.00000000     -19.82844925
K        0.00000000       0.00000000       1.76868687       0.00000000       0.00000000      19.82844925
2
Properties=species:S:1:pos:R:3:forces:R:3 energy=0.5832812376787154 pbc="F F F"
K        0.00000000       0.00000000       0.00000000       0.00000000       0.00000000     -13.08591270
K        0.00000000       0.00000000       1.82828283       0.00000000       0.00000000      13.08591270
2
Properties=species:S:1:pos:R:3:forces:R:3 energy=-0.0318147361076537 pbc="F F F"
K        0.00000000       0.00000000       0.00000000       0.00000000       0.00000000      -7.84472275
K        0.00000000       0.00000000       1.88787879       0.00000000       0.00000000       7.84472275
2
Properties=species:S:1:pos:R:3:forces:R:3 energy=-0.38742857675181214 pbc="F F F"
K        0.00000000       0.00000000       0.00000000       0.00000000       0.00000000      -4.38051939
K        0.00000000       0.00000000       1.94747475       0.00000000       0.00000000       4.38051939
2
Properties=species:S:1:pos:R:3:forces:R:3 energy=-0.5849587719862178 pbc="F F F"
K        0.00000000       0.00000000       0.00000000       0.00000000       0.00000000      -2.46877027
K        0.00000000       0.00000000       2.00707071       0.00000000       0.00000000       2.46877027
2
Properties=species:S:1:pos:R:3:forces:R:3 energy=-0.7024998629614265 pbc="F F F"
K        0.00000000       0.00000000       0.00000000       0.00000000       0.00000000      -1.60550272
K        0.00000000       0.00000000       2.06666667       0.00000000       0.00000000       1.60550272
2
Properties=species:S:1:pos:R:3:forces:R:3 energy=-0.7871176071314335 pbc="F F F"
K        0.00000000       0.00000000       0.00000000       0.00000000       0.00000000      -1.29190373
K        0.00000000       0.00000000       2.12626263       0.00000000       0.00000000       1.29190373
2
Properties=species:S:1:pos:R:3:forces:R:3 energy=-0.8606746468270533 pbc="F F F"
K        0.00000000       0.00000000       0.00000000       0.00000000       0.00000000      -1.19550800
K        0.00000000       0.00000000       2.18585859       0.00000000       0.00000000       1.19550800
2
Properties=species:S:1:pos:R:3:forces:R:3 energy=-0.9307657451129691 pbc="F F F"
K        0.00000000       0.00000000       0.00000000       0.00000000       0.00000000      -1.16039836
K        0.00000000       0.00000000       2.24545455       0.00000000       0.00000000       1.16039836
2
Properties=species:S:1:pos:R:3:forces:R:3 energy=-0.9990707917939341 pbc="F F F"
K        0.00000000       0.00000000       0.00000000       0.00000000       0.00000000      -1.13084829
K        0.00000000       0.00000000       2.30505051       0.00000000       0.00000000       1.13084829
2
Properties=species:S:1:pos:R:3:forces:R:3 energy=-1.065361356944551 pbc="F F F"
K        0.00000000       0.00000000       0.00000000       0.00000000       0.00000000      -1.09196055
K        0.00000000       0.00000000       2.36464646       0.00000000       0.00000000       1.09196055
2
Properties=species:S:1:pos:R:3:forces:R:3 energy=-1.1290152433491032 pbc="F F F"
K        0.00000000       0.00000000       0.00000000       0.00000000       0.00000000      -1.04261184
K        0.00000000       0.00000000       2.42424242       0.00000000       0.00000000       1.04261184
2
Properties=species:S:1:pos:R:3:forces:R:3 energy=-1.189459261481168 pbc="F F F"
K        0.00000000       0.00000000       0.00000000       0.00000000       0.00000000      -0.98452950
K        0.00000000       0.00000000       2.48383838       0.00000000       0.00000000       0.98452950
2
Properties=species:S:1:pos:R:3:forces:R:3 energy=-1.2462017102832212 pbc="F F F"
K        0.00000000       0.00000000       0.00000000       0.00000000       0.00000000      -0.91826415
K        0.00000000       0.00000000       2.54343434       0.00000000       0.00000000       0.91826415
2
Properties=species:S:1:pos:R:3:forces:R:3 energy=-1.2987176372255094 pbc="F F F"
K        0.00000000       0.00000000       0.00000000       0.00000000       0.00000000      -0.84230757
K        0.00000000       0.00000000       2.60303030       0.00000000       0.00000000       0.84230757
2
Properties=species:S:1:pos:R:3:forces:R:3 energy=-1.3463509342171955 pbc="F F F"
K        0.00000000       0.00000000       0.00000000       0.00000000       0.00000000      -0.75397074
K        0.00000000       0.00000000       2.66262626       0.00000000       0.00000000       0.75397074
2
Properties=species:S:1:pos:R:3:forces:R:3 energy=-1.3883004059585935 pbc="F F F"
K        0.00000000       0.00000000       0.00000000       0.00000000       0.00000000      -0.65143955
K        0.00000000       0.00000000       2.72222222       0.00000000       0.00000000       0.65143955
2
Properties=species:S:1:pos:R:3:forces:R:3 energy=-1.4237319442987235 pbc="F F F"
K        0.00000000       0.00000000       0.00000000       0.00000000       0.00000000      -0.53568333
K        0.00000000       0.00000000       2.78181818       0.00000000       0.00000000       0.53568333
2
Properties=species:S:1:pos:R:3:forces:R:3 energy=-1.451969967266953 pbc="F F F"
K        0.00000000       0.00000000       0.00000000       0.00000000       0.00000000      -0.41093802
K        0.00000000       0.00000000       2.84141414       0.00000000       0.00000000       0.41093802
2
Properties=species:S:1:pos:R:3:forces:R:3 energy=-1.4726602874729229 pbc="F F F"
K        0.00000000       0.00000000       0.00000000       0.00000000       0.00000000      -0.28354752
K        0.00000000       0.00000000       2.90101010       0.00000000       0.00000000       0.28354752
2
Properties=species:S:1:pos:R:3:forces:R:3 energy=-1.485844112564959 pbc="F F F"
K        0.00000000       0.00000000       0.00000000       0.00000000       0.00000000      -0.16005179
K        0.00000000       0.00000000       2.96060606       0.00000000       0.00000000       0.16005179
2
Properties=species:S:1:pos:R:3:forces:R:3 energy=-1.4919202237911038 pbc="F F F"
K        0.00000000       0.00000000       0.00000000       0.00000000       0.00000000      -0.04568512
K        0.00000000       0.00000000       3.02020202       0.00000000       0.00000000       0.04568512
2
Properties=species:S:1:pos:R:3:forces:R:3 energy=-1.4915370793367435 pbc="F F F"
K        0.00000000       0.00000000       0.00000000       0.00000000       0.00000000       0.05631068
K        0.00000000       0.00000000       3.07979798       0.00000000       0.00000000      -0.05631068
2
Properties=species:S:1:pos:R:3:forces:R:3 energy=-1.4854800751828667 pbc="F F F"
K        0.00000000       0.00000000       0.00000000       0.00000000       0.00000000       0.14467643
K        0.00000000       0.00000000       3.13939394       0.00000000       0.00000000      -0.14467643
2
Properties=species:S:1:pos:R:3:forces:R:3 energy=-1.4745570693420522 pbc="F F F"
K        0.00000000       0.00000000       0.00000000       0.00000000       0.00000000       0.21977977
K        0.00000000       0.00000000       3.19898990       0.00000000       0.00000000      -0.21977977
2
Properties=species:S:1:pos:R:3:forces:R:3 energy=-1.4595210308686608 pbc="F F F"
K        0.00000000       0.00000000       0.00000000       0.00000000       0.00000000       0.28295961
K        0.00000000       0.00000000       3.25858586       0.00000000       0.00000000      -0.28295961
2
Properties=species:S:1:pos:R:3:forces:R:3 energy=-1.4410375559114084 pbc="F F F"
K        0.00000000       0.00000000       0.00000000       0.00000000       0.00000000       0.33568189
K        0.00000000       0.00000000       3.31818182       0.00000000       0.00000000      -0.33568189
2
Properties=species:S:1:pos:R:3:forces:R:3 energy=-1.4196999086746946 pbc="F F F"
K        0.00000000       0.00000000       0.00000000       0.00000000       0.00000000       0.37885502
K        0.00000000       0.00000000       3.37777778       0.00000000       0.00000000      -0.37885502
2
Properties=species:S:1:pos:R:3:forces:R:3 energy=-1.39606748442148 pbc="F F F"
K        0.00000000       0.00000000       0.00000000       0.00000000       0.00000000       0.41264465
K        0.00000000       0.00000000       3.43737374       0.00000000       0.00000000      -0.41264465
2
Properties=species:S:1:pos:R:3:forces:R:3 energy=-1.3707049718927904 pbc="F F F"
K        0.00000000       0.00000000       0.00000000       0.00000000       0.00000000       0.43690541
K        0.00000000       0.00000000       3.49696970       0.00000000       0.00000000      -0.43690541
2
Properties=species:S:1:pos:R:3:forces:R:3 energy=-1.3441769710507063 pbc="F F F"
K        0.00000000       0.00000000       0.00000000       0.00000000       0.00000000       0.45186535
K        0.00000000       0.00000000       3.55656566       0.00000000       0.00000000      -0.45186535
2
Properties=species:S:1:pos:R:3:forces:R:3 energy=-1.3170096357815688 pbc="F F F"
K        0.00000000       0.00000000       0.00000000       0.00000000       0.00000000       0.45864168
K        0.00000000       0.00000000       3.61616162       0.00000000       0.00000000      -0.45864168
2
Properties=species:S:1:pos:R:3:forces:R:3 energy=-1.2896337690512565 pbc="F F F"
K        0.00000000       0.00000000       0.00000000       0.00000000       0.00000000       0.45925403
K        0.00000000       0.00000000       3.67575758       0.00000000       0.00000000      -0.45925403
2
Properties=species:S:1:pos:R:3:forces:R:3 energy=-1.2623434485302394 pbc="F F F"
K        0.00000000       0.00000000       0.00000000       0.00000000       0.00000000       0.45617586
K        0.00000000       0.00000000       3.73535354       0.00000000       0.00000000      -0.45617586
2
Properties=species:S:1:pos:R:3:forces:R:3 energy=-1.2352879614636514 pbc="F F F"
K        0.00000000       0.00000000       0.00000000       0.00000000       0.00000000       0.45172331
K        0.00000000       0.00000000       3.79494949       0.00000000       0.00000000      -0.45172331
2
Properties=species:S:1:pos:R:3:forces:R:3 energy=-1.2084954713871396 pbc="F F F"
K        0.00000000       0.00000000       0.00000000       0.00000000       0.00000000       0.44755691
K        0.00000000       0.00000000       3.85454545       0.00000000       0.00000000      -0.44755691
2
Properties=species:S:1:pos:R:3:forces:R:3 energy=-1.1819210383039014 pbc="F F F"
K        0.00000000       0.00000000       0.00000000       0.00000000       0.00000000       0.44445905
K        0.00000000       0.00000000       3.91414141       0.00000000       0.00000000      -0.44445905
2
Properties=species:S:1:pos:R:3:forces:R:3 energy=-1.1555001477516904 pbc="F F F"
K        0.00000000       0.00000000       0.00000000       0.00000000       0.00000000       0.44229403
K        0.00000000       0.00000000       3.97373737       0.00000000       0.00000000      -0.44229403
2
Properties=species:S:1:pos:R:3:forces:R:3 energy=-1.1292028084139762 pbc="F F F"
K        0.00000000       0.00000000       0.00000000       0.00000000       0.00000000       0.44014043
K        0.00000000       0.00000000       4.03333333       0.00000000       0.00000000      -0.44014043
2
Properties=species:S:1:pos:R:3:forces:R:3 energy=-1.1030670131969877 pbc="F F F"
K        0.00000000       0.00000000       0.00000000       0.00000000       0.00000000       0.43656653
K        0.00000000       0.00000000       4.09292929       0.00000000       0.00000000      -0.43656653
2
Properties=species:S:1:pos:R:3:forces:R:3 energy=-1.077226622749134 pbc="F F F"
K        0.00000000       0.00000000       0.00000000       0.00000000       0.00000000       0.42999840
K        0.00000000       0.00000000       4.15252525       0.00000000       0.00000000      -0.42999840
2
Properties=species:S:1:pos:R:3:forces:R:3 energy=-1.05190273570849 pbc="F F F"
K        0.00000000       0.00000000       0.00000000       0.00000000       0.00000000       0.41904584
K        0.00000000       0.00000000       4.21212121       0.00000000       0.00000000      -0.41904584
2
Properties=species:S:1:pos:R:3:forces:R:3 energy=-1.0273887717532404 pbc="F F F"
K        0.00000000       0.00000000       0.00000000       0.00000000       0.00000000       0.40261051
K        0.00000000       0.00000000       4.27171717       0.00000000       0.00000000      -0.40261051
2
Properties=species:S:1:pos:R:3:forces:R:3 energy=-1.004043263571824 pbc="F F F"
K        0.00000000       0.00000000       0.00000000       0.00000000       0.00000000       0.37969851
K        0.00000000       0.00000000       4.33131313       0.00000000       0.00000000      -0.37969851
2
Properties=species:S:1:pos:R:3:forces:R:3 energy=-0.9822855013624088 pbc="F F F"
K        0.00000000       0.00000000       0.00000000       0.00000000       0.00000000       0.34904027
K        0.00000000       0.00000000       4.39090909       0.00000000       0.00000000      -0.34904027
2
Properties=species:S:1:pos:R:3:forces:R:3 energy=-0.9626280079559066 pbc="F F F"
K        0.00000000       0.00000000       0.00000000       0.00000000       0.00000000       0.30892953
K        0.00000000       0.00000000       4.45050505       0.00000000       0.00000000      -0.30892953
2
Properties=species:S:1:pos:R:3:forces:R:3 energy=-0.9456779195803853 pbc="F F F"
K        0.00000000       0.00000000       0.00000000       0.00000000       0.00000000       0.25814474
K        0.00000000       0.00000000       4.51010101       0.00000000       0.00000000      -0.25814474
2
Properties=species:S:1:pos:R:3:forces:R:3 energy=-0.9320313122648837 pbc="F F F"
K        0.00000000       0.00000000       0.00000000       0.00000000       0.00000000       0.19895376
K        0.00000000       0.00000000       4.56969697       0.00000000       0.00000000      -0.19895376
2
Properties=species:S:1:pos:R:3:forces:R:3 energy=-0.9219386137414587 pbc="F F F"
K        0.00000000       0.00000000       0.00000000       0.00000000       0.00000000       0.14134951
K        0.00000000       0.00000000       4.62929293       0.00000000       0.00000000      -0.14134951
2
Properties=species:S:1:pos:R:3:forces:R:3 energy=-0.9147976815665317 pbc="F F F"
K        0.00000000       0.00000000       0.00000000       0.00000000       0.00000000       0.10317630
K        0.00000000       0.00000000       4.68888889       0.00000000       0.00000000      -0.10317630
2
Properties=species:S:1:pos:R:3:forces:R:3 energy=-0.9089186323920698 pbc="F F F"
K        0.00000000       0.00000000       0.00000000       0.00000000       0.00000000       0.10084587
K        0.00000000       0.00000000       4.74848485       0.00000000       0.00000000      -0.10084587
2
Properties=species:S:1:pos:R:3:forces:R:3 energy=-0.9019972712365957 pbc="F F F"
K        0.00000000       0.00000000       0.00000000       0.00000000       0.00000000       0.13724494
K        0.00000000       0.00000000       4.80808081       0.00000000       0.00000000      -0.13724494
2
Properties=species:S:1:pos:R:3:forces:R:3 energy=-0.8920260478497489 pbc="F F F"
K        0.00000000       0.00000000       0.00000000       0.00000000       0.00000000       0.20035984
K        0.00000000       0.00000000       4.86767677       0.00000000       0.00000000      -0.20035984
2
Properties=species:S:1:pos:R:3:forces:R:3 energy=-0.8779312138629112 pbc="F F F"
K        0.00000000       0.00000000       0.00000000       0.00000000       0.00000000       0.27288738
K        0.00000000       0.00000000       4.92727273       0.00000000       0.00000000      -0.27288738
2
Properties=species:S:1:pos:R:3:forces:R:3 energy=-0.8595872754311222 pbc="F F F"
K        0.00000000       0.00000000       0.00000000       0.00000000       0.00000000       0.34123164
K        0.00000000       0.00000000       4.98686869       0.00000000       0.00000000      -0.34123164
2
Properties=species:S:1:pos:R:3:forces:R:3 energy=-0.8374952692285756 pbc="F F F"
K        0.00000000       0.00000000       0.00000000       0.00000000       0.00000000       0.39798531
K        0.00000000       0.00000000       5.04646465       0.00000000       0.00000000      -0.39798531
2
Properties=species:S:1:pos:R:3:forces:R:3 energy=-0.8124420983913523 pbc="F F F"
K        0.00000000       0.00000000       0.00000000       0.00000000       0.00000000       0.44024143
K        0.00000000       0.00000000       5.10606061       0.00000000       0.00000000      -0.44024143
2
Properties=species:S:1:pos:R:3:forces:R:3 energy=-0.7853181172926724 pbc="F F F"
K        0.00000000       0.00000000       0.00000000       0.00000000       0.00000000       0.46736243
K        0.00000000       0.00000000       5.16565657       0.00000000       0.00000000      -0.46736243
2
Properties=species:S:1:pos:R:3:forces:R:3 energy=-0.7570291256136502 pbc="F F F"
K        0.00000000       0.00000000       0.00000000       0.00000000       0.00000000       0.47961718
K        0.00000000       0.00000000       5.22525253       0.00000000       0.00000000      -0.47961718
2
Properties=species:S:1:pos:R:3:forces:R:3 energy=-0.7284363206339628 pbc="F F F"
K        0.00000000       0.00000000       0.00000000       0.00000000       0.00000000       0.47768673
K        0.00000000       0.00000000       5.28484848       0.00000000       0.00000000      -0.47768673
2
Properties=species:S:1:pos:R:3:forces:R:3 energy=-0.7003536255606533 pbc="F F F"
K        0.00000000       0.00000000       0.00000000       0.00000000       0.00000000       0.46262088
K        0.00000000       0.00000000       5.34444444       0.00000000       0.00000000      -0.46262088
2
Properties=species:S:1:pos:R:3:forces:R:3 energy=-0.6735263332134791 pbc="F F F"
K        0.00000000       0.00000000       0.00000000       0.00000000       0.00000000       0.43587118
K        0.00000000       0.00000000       5.40404040       0.00000000       0.00000000      -0.43587118
2
Properties=species:S:1:pos:R:3:forces:R:3 energy=-0.6485896865192857 pbc="F F F"
K        0.00000000       0.00000000       0.00000000       0.00000000       0.00000000       0.39940232
K        0.00000000       0.00000000       5.46363636       0.00000000       0.00000000      -0.39940232
2
Properties=species:S:1:pos:R:3:forces:R:3 energy=-0.6260734162427963 pbc="F F F"
K        0.00000000       0.00000000       0.00000000       0.00000000       0.00000000       0.35556823
K        0.00000000       0.00000000       5.52323232       0.00000000       0.00000000      -0.35556823
2
Properties=species:S:1:pos:R:3:forces:R:3 energy=-0.6063077705059051 pbc="F F F"
K        0.00000000       0.00000000       0.00000000       0.00000000       0.00000000       0.30713296
K        0.00000000       0.00000000       5.58282828       0.00000000       0.00000000      -0.30713296
2
Properties=species:S:1:pos:R:3:forces:R:3 energy=-0.5894994571178546 pbc="F F F"
K        0.00000000       0.00000000       0.00000000       0.00000000       0.00000000       0.25696534
K        0.00000000       0.00000000       5.64242424       0.00000000       0.00000000      -0.25696534
2
Properties=species:S:1:pos:R:3:forces:R:3 energy=-0.5756505859269397 pbc="F F F"
K        0.00000000       0.00000000       0.00000000       0.00000000       0.00000000       0.20796067
K        0.00000000       0.00000000       5.70202020       0.00000000       0.00000000      -0.20796067
2
Properties=species:S:1:pos:R:3:forces:R:3 energy=-0.5646362061083018 pbc="F F F"
K        0.00000000       0.00000000       0.00000000       0.00000000       0.00000000       0.16283396
K        0.00000000       0.00000000       5.76161616       0.00000000       0.00000000      -0.16283396
2
Properties=species:S:1:pos:R:3:forces:R:3 energy=-0.5561196970150906 pbc="F F F"
K        0.00000000       0.00000000       0.00000000       0.00000000       0.00000000       0.12407420
K        0.00000000       0.00000000       5.82121212       0.00000000       0.00000000      -0.12407420
2
Properties=species:S:1:pos:R:3:forces:R:3 energy=-0.5496820409537877 pbc="F F F"
K        0.00000000       0.00000000       0.00000000       0.00000000       0.00000000       0.09382836
K        0.00000000       0.00000000       5.88080808       0.00000000       0.00000000      -0.09382836
2
Properties=species:S:1:pos:R:3:forces:R:3 energy=-0.544729090036456 pbc="F F F"
K        0.00000000       0.00000000       0.00000000       0.00000000       0.00000000       0.07388192
K        0.00000000       0.00000000       5.94040404       0.00000000       0.00000000      -0.07388192
2
Properties=species:S:1:pos:R:3:forces:R:3 energy=-0.5406347146628909 pbc="F F F"
K        0.00000000       0.00000000       0.00000000       0.00000000       0.00000000       0.06572454
K        0.00000000       0.00000000       6.00000000       0.00000000       0.00000000      -0.06572454
