2
Properties=species:S:1:pos:R:3:forces:R:3 energy=6397.89499152575 pbc="F F F"
P        0.00000000       0.00000000       0.00000000       0.00000000       0.00000000 -132373.71875000
P        0.00000000       0.00000000       0.10000000       0.00000000       0.00000000  132373.71875000
2
Properties=species:S:1:pos:R:3:forces:R:3 energy=2251.0153528538754 pbc="F F F"
P        0.00000000       0.00000000       0.00000000       0.00000000       0.00000000  -33766.69140625
P        0.00000000       0.00000000       0.15959596       0.00000000       0.00000000   33766.69140625
2
Properties=species:S:1:pos:R:3:forces:R:3 energy=1025.7901331273129 pbc="F F F"
P        0.00000000       0.00000000       0.00000000       0.00000000       0.00000000  -11885.79687500
P        0.00000000       0.00000000       0.21919192       0.00000000       0.00000000   11885.79687500
2
Properties=species:S:1:pos:R:3:forces:R:3 energy=555.7012659398127 pbc="F F F"
P        0.00000000       0.00000000       0.00000000       0.00000000       0.00000000   -5053.85449219
P        0.00000000       0.00000000       0.27878788       0.00000000       0.00000000    5053.85449219
2
Properties=species:S:1:pos:R:3:forces:R:3 energy=343.19873299033185 pbc="F F F"
P        0.00000000       0.00000000       0.00000000       0.00000000       0.00000000   -2457.30834961
P        0.00000000       0.00000000       0.33838384       0.00000000       0.00000000    2457.30834961
2
Properties=species:S:1:pos:R:3:forces:R:3 energy=234.48172250812408 pbc="F F F"
P        0.00000000       0.00000000       0.00000000       0.00000000       0.00000000   -1337.79943848
P        0.00000000       0.00000000       0.39797980       0.00000000       0.00000000    1337.79943848
2
Properties=species:S:1:pos:R:3:forces:R:3 energy=171.58247632081418 pbc="F F F"
P        0.00000000       0.00000000       0.00000000       0.00000000       0.00000000    -848.50610352
P        0.00000000       0.00000000       0.45757576       0.00000000       0.00000000     848.50610352
2
Properties=species:S:1:pos:R:3:forces:R:3 energy=127.08288073891296 pbc="F F F"
P        0.00000000       0.00000000       0.00000000       0.00000000       0.00000000    -671.73968506
P        0.00000000       0.00000000       0.51717172       0.00000000       0.00000000     671.73968506
2
Properties=species:S:1:pos:R:3:forces:R:3 energy=90.26642881391608 pbc="F F F"
P        0.00000000       0.00000000       0.00000000       0.00000000       0.00000000    -565.51934814
P        0.00000000       0.00000000       0.57676768       0.00000000       0.00000000     565.51934814
2
Properties=species:S:1:pos:R:3:forces:R:3 energy=60.500708617546834 pbc="F F F"
P        0.00000000       0.00000000       0.00000000       0.00000000       0.00000000    -417.23123169
P        0.00000000       0.00000000       0.63636364       0.00000000       0.00000000     417.23123169
2
Properties=species:S:1:pos:R:3:forces:R:3 energy=39.78065045515307 pbc="F F F"
P        0.00000000       0.00000000       0.00000000       0.00000000       0.00000000    -269.43142700
P        0.00000000       0.00000000       0.69595960       0.00000000       0.00000000     269.43142700
2
Properties=species:S:1:pos:R:3:forces:R:3 energy=29.596637516109844 pbc="F F F"
P        0.00000000       0.00000000       0.00000000       0.00000000       0.00000000     -93.57495117
P        0.00000000       0.00000000       0.75555556       0.00000000       0.00000000      93.57495117
2
Properties=species:S:1:pos:R:3:forces:R:3 energy=25.673532919309576 pbc="F F F"
P        0.00000000       0.00000000       0.00000000       0.00000000       0.00000000     -54.69561386
P        0.00000000       0.00000000       0.81515152       0.00000000       0.00000000      54.69561386
2
Properties=species:S:1:pos:R:3:forces:R:3 energy=22.55745641805012 pbc="F F F"
P        0.00000000       0.00000000       0.00000000       0.00000000       0.00000000     -58.92929840
P        0.00000000       0.00000000       0.87474747       0.00000000       0.00000000      58.92929840
2
Properties=species:S:1:pos:R:3:forces:R:3 energy=18.475144182427364 pbc="F F F"
P        0.00000000       0.00000000       0.00000000       0.00000000       0.00000000     -72.69890594
P        0.00000000       0.00000000       0.93434343       0.00000000       0.00000000      72.69890594
2
Properties=species:S:1:pos:R:3:forces:R:3 energy=14.392616926428468 pbc="F F F"
P        0.00000000       0.00000000       0.00000000       0.00000000       0.00000000     -62.26145172
P        0.00000000       0.00000000       0.99393939       0.00000000       0.00000000      62.26145172
2
Properties=species:S:1:pos:R:3:forces:R:3 energy=11.057204495016025 pbc="F F F"
P        0.00000000       0.00000000       0.00000000       0.00000000       0.00000000     -51.54104996
P        0.00000000       0.00000000       1.05353535       0.00000000       0.00000000      51.54104996
2
Properties=species:S:1:pos:R:3:forces:R:3 energy=7.9943453774717135 pbc="F F F"
P        0.00000000       0.00000000       0.00000000       0.00000000       0.00000000     -51.71956253
P        0.00000000       0.00000000       1.11313131       0.00000000       0.00000000      51.71956253
2
Properties=species:S:1:pos:R:3:forces:R:3 energy=5.039387444810567 pbc="F F F"
P        0.00000000       0.00000000       0.00000000       0.00000000       0.00000000     -46.17478180
P        0.00000000       0.00000000       1.17272727       0.00000000       0.00000000      46.17478180
2
Properties=species:S:1:pos:R:3:forces:R:3 energy=2.52852355200235 pbc="F F F"
P        0.00000000       0.00000000       0.00000000       0.00000000       0.00000000     -38.39459991
P        0.00000000       0.00000000       1.23232323       0.00000000       0.00000000      38.39459991
2
Properties=species:S:1:pos:R:3:forces:R:3 energy=0.41641583981541297 pbc="F F F"
P        0.00000000       0.00000000       0.00000000       0.00000000       0.00000000     -32.79534912
P        0.00000000       0.00000000       1.29191919       0.00000000       0.00000000      32.79534912
2
Properties=species:S:1:pos:R:3:forces:R:3 energy=-1.4027545590976218 pbc="F F F"
P        0.00000000       0.00000000       0.00000000       0.00000000       0.00000000     -28.36744308
P        0.00000000       0.00000000       1.35151515       0.00000000       0.00000000      28.36744308
2
Properties=species:S:1:pos:R:3:forces:R:3 energy=-2.978210420673268 pbc="F F F"
P        0.00000000       0.00000000       0.00000000       0.00000000       0.00000000     -24.63183594
P        0.00000000       0.00000000       1.41111111       0.00000000       0.00000000      24.63183594
2
Properties=species:S:1:pos:R:3:forces:R:3 energy=-4.352205965597261 pbc="F F F"
P        0.00000000       0.00000000       0.00000000       0.00000000       0.00000000     -21.55311394
P        0.00000000       0.00000000       1.47070707       0.00000000       0.00000000      21.55311394
2
Properties=species:S:1:pos:R:3:forces:R:3 energy=-5.550876335231706 pbc="F F F"
P        0.00000000       0.00000000       0.00000000       0.00000000       0.00000000     -18.67636108
P        0.00000000       0.00000000       1.53030303       0.00000000       0.00000000      18.67636108
2
Properties=species:S:1:pos:R:3:forces:R:3 energy=-6.577893266889542 pbc="F F F"
P        0.00000000       0.00000000       0.00000000       0.00000000       0.00000000     -15.78499603
P        0.00000000       0.00000000       1.58989899       0.00000000       0.00000000      15.78499603
2
Properties=species:S:1:pos:R:3:forces:R:3 energy=-7.430969152639152 pbc="F F F"
P        0.00000000       0.00000000       0.00000000       0.00000000       0.00000000     -12.81945705
P        0.00000000       0.00000000       1.64949495       0.00000000       0.00000000      12.81945705
2
Properties=species:S:1:pos:R:3:forces:R:3 energy=-8.10134750712261 pbc="F F F"
P        0.00000000       0.00000000       0.00000000       0.00000000       0.00000000      -9.63326550
P        0.00000000       0.00000000       1.70909091       0.00000000       0.00000000       9.63326550
2
Properties=species:S:1:pos:R:3:forces:R:3 energy=-8.575186275319437 pbc="F F F"
P        0.00000000       0.00000000       0.00000000       0.00000000       0.00000000      -6.25870419
P        0.00000000       0.00000000       1.76868687       0.00000000       0.00000000       6.25870419
2
Properties=species:S:1:pos:R:3:forces:R:3 energy=-8.850283391714685 pbc="F F F"
P        0.00000000       0.00000000       0.00000000       0.00000000       0.00000000      -3.03278661
P        0.00000000       0.00000000       1.82828283       0.00000000       0.00000000       3.03278661
2
Properties=species:S:1:pos:R:3:forces:R:3 energy=-8.946909017161907 pbc="F F F"
P        0.00000000       0.00000000       0.00000000       0.00000000       0.00000000      -0.31367460
P        0.00000000       0.00000000       1.88787879       0.00000000       0.00000000       0.31367460
2
Properties=species:S:1:pos:R:3:forces:R:3 energy=-8.900672165870233 pbc="F F F"
P        0.00000000       0.00000000       0.00000000       0.00000000       0.00000000       1.75755560
P        0.00000000       0.00000000       1.94747475       0.00000000       0.00000000      -1.75755560
2
Properties=species:S:1:pos:R:3:forces:R:3 energy=-8.749309334721938 pbc="F F F"
P        0.00000000       0.00000000       0.00000000       0.00000000       0.00000000       3.23283601
P        0.00000000       0.00000000       2.00707071       0.00000000       0.00000000      -3.23283601
2
Properties=species:S:1:pos:R:3:forces:R:3 energy=-8.524572590718783 pbc="F F F"
P        0.00000000       0.00000000       0.00000000       0.00000000       0.00000000       4.24329901
P        0.00000000       0.00000000       2.06666667       0.00000000       0.00000000      -4.24329901
2
Properties=species:S:1:pos:R:3:forces:R:3 energy=-8.250308028108241 pbc="F F F"
P        0.00000000       0.00000000       0.00000000       0.00000000       0.00000000       4.91103220
P        0.00000000       0.00000000       2.12626263       0.00000000       0.00000000      -4.91103220
2
Properties=species:S:1:pos:R:3:forces:R:3 energy=-7.944677178473329 pbc="F F F"
P        0.00000000       0.00000000       0.00000000       0.00000000       0.00000000       5.30204010
P        0.00000000       0.00000000       2.18585859       0.00000000       0.00000000      -5.30204010
2
Properties=species:S:1:pos:R:3:forces:R:3 energy=-7.623487447353953 pbc="F F F"
P        0.00000000       0.00000000       0.00000000       0.00000000       0.00000000       5.43439627
P        0.00000000       0.00000000       2.24545455       0.00000000       0.00000000      -5.43439627
2
Properties=species:S:1:pos:R:3:forces:R:3 energy=-7.301733750954129 pbc="F F F"
P        0.00000000       0.00000000       0.00000000       0.00000000       0.00000000       5.32698250
P        0.00000000       0.00000000       2.30505051       0.00000000       0.00000000      -5.32698250
2
Properties=species:S:1:pos:R:3:forces:R:3 energy=-6.992201278730314 pbc="F F F"
P        0.00000000       0.00000000       0.00000000       0.00000000       0.00000000       5.03716421
P        0.00000000       0.00000000       2.36464646       0.00000000       0.00000000      -5.03716421
2
Properties=species:S:1:pos:R:3:forces:R:3 energy=-6.703237645168008 pbc="F F F"
P        0.00000000       0.00000000       0.00000000       0.00000000       0.00000000       4.65176439
P        0.00000000       0.00000000       2.42424242       0.00000000       0.00000000      -4.65176439
2
Properties=species:S:1:pos:R:3:forces:R:3 energy=-6.438030494158359 pbc="F F F"
P        0.00000000       0.00000000       0.00000000       0.00000000       0.00000000       4.25092793
P        0.00000000       0.00000000       2.48383838       0.00000000       0.00000000      -4.25092793
2
Properties=species:S:1:pos:R:3:forces:R:3 energy=-6.1959189198966325 pbc="F F F"
P        0.00000000       0.00000000       0.00000000       0.00000000       0.00000000       3.88110256
P        0.00000000       0.00000000       2.54343434       0.00000000       0.00000000      -3.88110256
2
Properties=species:S:1:pos:R:3:forces:R:3 energy=-5.974611887412535 pbc="F F F"
P        0.00000000       0.00000000       0.00000000       0.00000000       0.00000000       3.55197048
P        0.00000000       0.00000000       2.60303030       0.00000000       0.00000000      -3.55197048
2
Properties=species:S:1:pos:R:3:forces:R:3 energy=-5.77200485027873 pbc="F F F"
P        0.00000000       0.00000000       0.00000000       0.00000000       0.00000000       3.25021315
P        0.00000000       0.00000000       2.66262626       0.00000000       0.00000000      -3.25021315
2
Properties=species:S:1:pos:R:3:forces:R:3 energy=-5.587024201732048 pbc="F F F"
P        0.00000000       0.00000000       0.00000000       0.00000000       0.00000000       2.95826387
P        0.00000000       0.00000000       2.72222222       0.00000000       0.00000000      -2.95826387
2
Properties=species:S:1:pos:R:3:forces:R:3 energy=-5.4193826694030705 pbc="F F F"
P        0.00000000       0.00000000       0.00000000       0.00000000       0.00000000       2.66795492
P        0.00000000       0.00000000       2.78181818       0.00000000       0.00000000      -2.66795492
2
Properties=species:S:1:pos:R:3:forces:R:3 energy=-5.268895861723418 pbc="F F F"
P        0.00000000       0.00000000       0.00000000       0.00000000       0.00000000       2.38445425
P        0.00000000       0.00000000       2.84141414       0.00000000       0.00000000      -2.38445425
2
Properties=species:S:1:pos:R:3:forces:R:3 energy=-5.134756951694026 pbc="F F F"
P        0.00000000       0.00000000       0.00000000       0.00000000       0.00000000       2.12208104
P        0.00000000       0.00000000       2.90101010       0.00000000       0.00000000      -2.12208104
2
Properties=species:S:1:pos:R:3:forces:R:3 energy=-5.015223847129878 pbc="F F F"
P        0.00000000       0.00000000       0.00000000       0.00000000       0.00000000       1.89660549
P        0.00000000       0.00000000       2.96060606       0.00000000       0.00000000      -1.89660549
2
Properties=species:S:1:pos:R:3:forces:R:3 energy=-4.907755974997657 pbc="F F F"
P        0.00000000       0.00000000       0.00000000       0.00000000       0.00000000       1.71818590
P        0.00000000       0.00000000       3.02020202       0.00000000       0.00000000      -1.71818590
2
Properties=species:S:1:pos:R:3:forces:R:3 energy=-4.809451935926445 pbc="F F F"
P        0.00000000       0.00000000       0.00000000       0.00000000       0.00000000       1.58874989
P        0.00000000       0.00000000       3.07979798       0.00000000       0.00000000      -1.58874989
2
Properties=species:S:1:pos:R:3:forces:R:3 energy=-4.717521820469511 pbc="F F F"
P        0.00000000       0.00000000       0.00000000       0.00000000       0.00000000       1.50279558
P        0.00000000       0.00000000       3.13939394       0.00000000       0.00000000      -1.50279558
2
Properties=species:S:1:pos:R:3:forces:R:3 energy=-4.629689051182635 pbc="F F F"
P        0.00000000       0.00000000       0.00000000       0.00000000       0.00000000       1.44903255
P        0.00000000       0.00000000       3.19898990       0.00000000       0.00000000      -1.44903255
2
Properties=species:S:1:pos:R:3:forces:R:3 energy=-4.544460521718337 pbc="F F F"
P        0.00000000       0.00000000       0.00000000       0.00000000       0.00000000       1.41279280
P        0.00000000       0.00000000       3.25858586       0.00000000       0.00000000      -1.41279280
2
Properties=species:S:1:pos:R:3:forces:R:3 energy=-4.461245838433048 pbc="F F F"
P        0.00000000       0.00000000       0.00000000       0.00000000       0.00000000       1.37911320
P        0.00000000       0.00000000       3.31818182       0.00000000       0.00000000      -1.37911320
2
Properties=species:S:1:pos:R:3:forces:R:3 energy=-4.380280661662702 pbc="F F F"
P        0.00000000       0.00000000       0.00000000       0.00000000       0.00000000       1.33560157
P        0.00000000       0.00000000       3.37777778       0.00000000       0.00000000      -1.33560157
2
Properties=species:S:1:pos:R:3:forces:R:3 energy=-4.302409010905453 pbc="F F F"
P        0.00000000       0.00000000       0.00000000       0.00000000       0.00000000       1.27438748
P        0.00000000       0.00000000       3.43737374       0.00000000       0.00000000      -1.27438748
2
Properties=species:S:1:pos:R:3:forces:R:3 energy=-4.228790690891291 pbc="F F F"
P        0.00000000       0.00000000       0.00000000       0.00000000       0.00000000       1.19279957
P        0.00000000       0.00000000       3.49696970       0.00000000       0.00000000      -1.19279957
2
Properties=species:S:1:pos:R:3:forces:R:3 energy=-4.160603754538938 pbc="F F F"
P        0.00000000       0.00000000       0.00000000       0.00000000       0.00000000       1.09280598
P        0.00000000       0.00000000       3.55656566       0.00000000       0.00000000      -1.09280598
2
Properties=species:S:1:pos:R:3:forces:R:3 energy=-4.098800780483374 pbc="F F F"
P        0.00000000       0.00000000       0.00000000       0.00000000       0.00000000       0.97960985
P        0.00000000       0.00000000       3.61616162       0.00000000       0.00000000      -0.97960985
2
Properties=species:S:1:pos:R:3:forces:R:3 energy=-4.0439712698777335 pbc="F F F"
P        0.00000000       0.00000000       0.00000000       0.00000000       0.00000000       0.85992640
P        0.00000000       0.00000000       3.67575758       0.00000000       0.00000000      -0.85992640
2
Properties=species:S:1:pos:R:3:forces:R:3 energy=-3.9962997227372474 pbc="F F F"
P        0.00000000       0.00000000       0.00000000       0.00000000       0.00000000       0.74044812
P        0.00000000       0.00000000       3.73535354       0.00000000       0.00000000      -0.74044812
2
Properties=species:S:1:pos:R:3:forces:R:3 energy=-3.95559942051757 pbc="F F F"
P        0.00000000       0.00000000       0.00000000       0.00000000       0.00000000       0.62676418
P        0.00000000       0.00000000       3.79494949       0.00000000       0.00000000      -0.62676418
2
Properties=species:S:1:pos:R:3:forces:R:3 energy=-3.9213995891122386 pbc="F F F"
P        0.00000000       0.00000000       0.00000000       0.00000000       0.00000000       0.52282715
P        0.00000000       0.00000000       3.85454545       0.00000000       0.00000000      -0.52282715
2
Properties=species:S:1:pos:R:3:forces:R:3 energy=-3.893043999606294 pbc="F F F"
P        0.00000000       0.00000000       0.00000000       0.00000000       0.00000000       0.43086872
P        0.00000000       0.00000000       3.91414141       0.00000000       0.00000000      -0.43086872
2
Properties=species:S:1:pos:R:3:forces:R:3 energy=-3.8697901607405707 pbc="F F F"
P        0.00000000       0.00000000       0.00000000       0.00000000       0.00000000       0.35162565
P        0.00000000       0.00000000       3.97373737       0.00000000       0.00000000      -0.35162565
2
Properties=species:S:1:pos:R:3:forces:R:3 energy=-3.8508872184306187 pbc="F F F"
P        0.00000000       0.00000000       0.00000000       0.00000000       0.00000000       0.28472862
P        0.00000000       0.00000000       4.03333333       0.00000000       0.00000000      -0.28472862
2
Properties=species:S:1:pos:R:3:forces:R:3 energy=-3.835628710461048 pbc="F F F"
P        0.00000000       0.00000000       0.00000000       0.00000000       0.00000000       0.22910677
P        0.00000000       0.00000000       4.09292929       0.00000000       0.00000000      -0.22910677
2
Properties=species:S:1:pos:R:3:forces:R:3 energy=-3.8233829716059664 pbc="F F F"
P        0.00000000       0.00000000       0.00000000       0.00000000       0.00000000       0.18337134
P        0.00000000       0.00000000       4.15252525       0.00000000       0.00000000      -0.18337134
2
Properties=species:S:1:pos:R:3:forces:R:3 energy=-3.813604749615089 pbc="F F F"
P        0.00000000       0.00000000       0.00000000       0.00000000       0.00000000       0.14607579
P        0.00000000       0.00000000       4.21212121       0.00000000       0.00000000      -0.14607579
2
Properties=species:S:1:pos:R:3:forces:R:3 energy=-3.805831303401366 pbc="F F F"
P        0.00000000       0.00000000       0.00000000       0.00000000       0.00000000       0.11586856
P        0.00000000       0.00000000       4.27171717       0.00000000       0.00000000      -0.11586856
2
Properties=species:S:1:pos:R:3:forces:R:3 energy=-3.799677151496597 pbc="F F F"
P        0.00000000       0.00000000       0.00000000       0.00000000       0.00000000       0.09155626
P        0.00000000       0.00000000       4.33131313       0.00000000       0.00000000      -0.09155626
2
Properties=species:S:1:pos:R:3:forces:R:3 energy=-3.7948223816214988 pbc="F F F"
P        0.00000000       0.00000000       0.00000000       0.00000000       0.00000000       0.07210289
P        0.00000000       0.00000000       4.39090909       0.00000000       0.00000000      -0.07210289
2
Properties=species:S:1:pos:R:3:forces:R:3 energy=-3.7910040802881477 pbc="F F F"
P        0.00000000       0.00000000       0.00000000       0.00000000       0.00000000       0.05663083
P        0.00000000       0.00000000       4.45050505       0.00000000       0.00000000      -0.05663083
2
Properties=species:S:1:pos:R:3:forces:R:3 energy=-3.788007573085084 pbc="F F F"
P        0.00000000       0.00000000       0.00000000       0.00000000       0.00000000       0.04442509
P        0.00000000       0.00000000       4.51010101       0.00000000       0.00000000      -0.04442509
2
Properties=species:S:1:pos:R:3:forces:R:3 energy=-3.7856552063328057 pbc="F F F"
P        0.00000000       0.00000000       0.00000000       0.00000000       0.00000000       0.03492831
P        0.00000000       0.00000000       4.56969697       0.00000000       0.00000000      -0.03492831
2
Properties=species:S:1:pos:R:3:forces:R:3 energy=-3.7837988697447003 pbc="F F F"
P        0.00000000       0.00000000       0.00000000       0.00000000       0.00000000       0.02771438
P        0.00000000       0.00000000       4.62929293       0.00000000       0.00000000      -0.02771438
2
Properties=species:S:1:pos:R:3:forces:R:3 energy=-3.782313795960077 pbc="F F F"
P        0.00000000       0.00000000       0.00000000       0.00000000       0.00000000       0.02242001
P        0.00000000       0.00000000       4.68888889       0.00000000       0.00000000      -0.02242001
2
Properties=species:S:1:pos:R:3:forces:R:3 energy=-3.78109580564326 pbc="F F F"
P        0.00000000       0.00000000       0.00000000       0.00000000       0.00000000       0.01867253
P        0.00000000       0.00000000       4.74848485       0.00000000       0.00000000      -0.01867253
2
Properties=species:S:1:pos:R:3:forces:R:3 energy=-3.7800658619872127 pbc="F F F"
P        0.00000000       0.00000000       0.00000000       0.00000000       0.00000000       0.01604812
P        0.00000000       0.00000000       4.80808081       0.00000000       0.00000000      -0.01604812
2
Properties=species:S:1:pos:R:3:forces:R:3 energy=-3.7791699518802444 pbc="F F F"
P        0.00000000       0.00000000       0.00000000       0.00000000       0.00000000       0.01408384
P        0.00000000       0.00000000       4.86767677       0.00000000       0.00000000      -0.01408384
2
Properties=species:S:1:pos:R:3:forces:R:3 energy=-3.7783826891111847 pbc="F F F"
P        0.00000000       0.00000000       0.00000000       0.00000000       0.00000000       0.01233707
P        0.00000000       0.00000000       4.92727273       0.00000000       0.00000000      -0.01233707
2
Properties=species:S:1:pos:R:3:forces:R:3 energy=-3.7777023527206897 pbc="F F F"
P        0.00000000       0.00000000       0.00000000       0.00000000       0.00000000       0.01045313
P        0.00000000       0.00000000       4.98686869       0.00000000       0.00000000      -0.01045313
2
Properties=species:S:1:pos:R:3:forces:R:3 energy=-3.777144051266045 pbc="F F F"
P        0.00000000       0.00000000       0.00000000       0.00000000       0.00000000       0.00821786
P        0.00000000       0.00000000       5.04646465       0.00000000       0.00000000      -0.00821786
2
Properties=species:S:1:pos:R:3:forces:R:3 energy=-3.7767311381684063 pbc="F F F"
P        0.00000000       0.00000000       0.00000000       0.00000000       0.00000000       0.00557156
P        0.00000000       0.00000000       5.10606061       0.00000000       0.00000000      -0.00557156
2
Properties=species:S:1:pos:R:3:forces:R:3 energy=-3.7764864646691945 pbc="F F F"
P        0.00000000       0.00000000       0.00000000       0.00000000       0.00000000       0.00259855
P        0.00000000       0.00000000       5.16565657       0.00000000       0.00000000      -0.00259855
2
Properties=species:S:1:pos:R:3:forces:R:3 energy=-3.7764240438913372 pbc="F F F"
P        0.00000000       0.00000000       0.00000000       0.00000000       0.00000000      -0.00050478
P        0.00000000       0.00000000       5.22525253       0.00000000       0.00000000       0.00050478
2
Properties=species:S:1:pos:R:3:forces:R:3 energy=-3.776544063056041 pbc="F F F"
P        0.00000000       0.00000000       0.00000000       0.00000000       0.00000000      -0.00347297
P        0.00000000       0.00000000       5.28484848       0.00000000       0.00000000       0.00347297
2
Properties=species:S:1:pos:R:3:forces:R:3 energy=-3.77682958007275 pbc="F F F"
P        0.00000000       0.00000000       0.00000000       0.00000000       0.00000000      -0.00601591
P        0.00000000       0.00000000       5.34444444       0.00000000       0.00000000       0.00601591
2
Properties=species:S:1:pos:R:3:forces:R:3 energy=-3.7772472360230376 pbc="F F F"
P        0.00000000       0.00000000       0.00000000       0.00000000       0.00000000      -0.00786804
P        0.00000000       0.00000000       5.40404040       0.00000000       0.00000000       0.00786804
2
Properties=species:S:1:pos:R:3:forces:R:3 energy=-3.7777499050874432 pbc="F F F"
P        0.00000000       0.00000000       0.00000000       0.00000000       0.00000000      -0.00883841
P        0.00000000       0.00000000       5.46363636       0.00000000       0.00000000       0.00883841
2
Properties=species:S:1:pos:R:3:forces:R:3 energy=-3.7782812213306545 pbc="F F F"
P        0.00000000       0.00000000       0.00000000       0.00000000       0.00000000      -0.00884466
P        0.00000000       0.00000000       5.52323232       0.00000000       0.00000000       0.00884466
2
Properties=species:S:1:pos:R:3:forces:R:3 energy=-3.7787856049531157 pbc="F F F"
P        0.00000000       0.00000000       0.00000000       0.00000000       0.00000000      -0.00794147
P        0.00000000       0.00000000       5.58282828       0.00000000       0.00000000       0.00794147
2
Properties=species:S:1:pos:R:3:forces:R:3 energy=-3.7792130215551234 pbc="F F F"
P        0.00000000       0.00000000       0.00000000       0.00000000       0.00000000      -0.00630124
P        0.00000000       0.00000000       5.64242424       0.00000000       0.00000000       0.00630124
2
Properties=species:S:1:pos:R:3:forces:R:3 energy=-3.7795278226311844 pbc="F F F"
P        0.00000000       0.00000000       0.00000000       0.00000000       0.00000000      -0.00419245
P        0.00000000       0.00000000       5.70202020       0.00000000       0.00000000       0.00419245
2
Properties=species:S:1:pos:R:3:forces:R:3 energy=-3.779709450926309 pbc="F F F"
P        0.00000000       0.00000000       0.00000000       0.00000000       0.00000000      -0.00192913
P        0.00000000       0.00000000       5.76161616       0.00000000       0.00000000       0.00192913
2
Properties=species:S:1:pos:R:3:forces:R:3 energy=-3.7797605462717243 pbc="F F F"
P        0.00000000       0.00000000       0.00000000       0.00000000       0.00000000       0.00017020
P        0.00000000       0.00000000       5.82121212       0.00000000       0.00000000      -0.00017020
2
Properties=species:S:1:pos:R:3:forces:R:3 energy=-3.779697646468332 pbc="F F F"
P        0.00000000       0.00000000       0.00000000       0.00000000       0.00000000       0.00183327
P        0.00000000       0.00000000       5.88080808       0.00000000       0.00000000      -0.00183327
2
Properties=species:S:1:pos:R:3:forces:R:3 energy=-3.779555240798531 pbc="F F F"
P        0.00000000       0.00000000       0.00000000       0.00000000       0.00000000       0.00284940
P        0.00000000       0.00000000       5.94040404       0.00000000       0.00000000      -0.00284940
2
Properties=species:S:1:pos:R:3:forces:R:3 energy=-3.779374323162577 pbc="F F F"
P        0.00000000       0.00000000       0.00000000       0.00000000       0.00000000       0.00307396
P        0.00000000       0.00000000       6.00000000       0.00000000       0.00000000      -0.00307396
