2
Properties=species:S:1:pos:R:3:forces:R:3 energy=37637.64996199633 pbc="F F F"
Rh       0.00000000       0.00000000       0.00000000       0.00000000       0.00000000 -896949.93750000
Rh       0.00000000       0.00000000       0.10000000       0.00000000       0.00000000  896949.93750000
2
Properties=species:S:1:pos:R:3:forces:R:3 energy=11142.365782308829 pbc="F F F"
Rh       0.00000000       0.00000000       0.00000000       0.00000000       0.00000000 -197966.62500000
Rh       0.00000000       0.00000000       0.15959596       0.00000000       0.00000000  197966.62500000
2
Properties=species:S:1:pos:R:3:forces:R:3 energy=4284.05425887133 pbc="F F F"
Rh       0.00000000       0.00000000       0.00000000       0.00000000       0.00000000  -62575.85937500
Rh       0.00000000       0.00000000       0.21919192       0.00000000       0.00000000   62575.85937500
2
Properties=species:S:1:pos:R:3:forces:R:3 energy=1907.5858750886025 pbc="F F F"
Rh       0.00000000       0.00000000       0.00000000       0.00000000       0.00000000  -24179.42968750
Rh       0.00000000       0.00000000       0.27878788       0.00000000       0.00000000   24179.42968750
2
Properties=species:S:1:pos:R:3:forces:R:3 energy=936.0986924714149 pbc="F F F"
Rh       0.00000000       0.00000000       0.00000000       0.00000000       0.00000000  -10544.98828125
Rh       0.00000000       0.00000000       0.33838384       0.00000000       0.00000000   10544.98828125
2
Properties=species:S:1:pos:R:3:forces:R:3 energy=496.57922226924245 pbc="F F F"
Rh       0.00000000       0.00000000       0.00000000       0.00000000       0.00000000   -4975.22021484
Rh       0.00000000       0.00000000       0.39797980       0.00000000       0.00000000    4975.22021484
2
Properties=species:S:1:pos:R:3:forces:R:3 energy=283.7839952311325 pbc="F F F"
Rh       0.00000000       0.00000000       0.00000000       0.00000000       0.00000000   -2480.73046875
Rh       0.00000000       0.00000000       0.45757576       0.00000000       0.00000000    2480.73046875
2
Properties=species:S:1:pos:R:3:forces:R:3 energy=175.69940053624822 pbc="F F F"
Rh       0.00000000       0.00000000       0.00000000       0.00000000       0.00000000   -1285.65576172
Rh       0.00000000       0.00000000       0.51717172       0.00000000       0.00000000    1285.65576172
2
Properties=species:S:1:pos:R:3:forces:R:3 energy=119.0933901562573 pbc="F F F"
Rh       0.00000000       0.00000000       0.00000000       0.00000000       0.00000000    -679.05383301
Rh       0.00000000       0.00000000       0.57676768       0.00000000       0.00000000     679.05383301
2
Properties=species:S:1:pos:R:3:forces:R:3 energy=89.2956455003154 pbc="F F F"
Rh       0.00000000       0.00000000       0.00000000       0.00000000       0.00000000    -352.73669434
Rh       0.00000000       0.00000000       0.63636364       0.00000000       0.00000000     352.73669434
2
Properties=species:S:1:pos:R:3:forces:R:3 energy=74.30214589651149 pbc="F F F"
Rh       0.00000000       0.00000000       0.00000000       0.00000000       0.00000000    -167.25119019
Rh       0.00000000       0.00000000       0.69595960       0.00000000       0.00000000     167.25119019
2
Properties=species:S:1:pos:R:3:forces:R:3 energy=67.77210156893062 pbc="F F F"
Rh       0.00000000       0.00000000       0.00000000       0.00000000       0.00000000     -62.95944595
Rh       0.00000000       0.00000000       0.75555556       0.00000000       0.00000000      62.95944595
2
Properties=species:S:1:pos:R:3:forces:R:3 energy=65.62651017521557 pbc="F F F"
Rh       0.00000000       0.00000000       0.00000000       0.00000000       0.00000000     -17.90719223
Rh       0.00000000       0.00000000       0.81515152       0.00000000       0.00000000      17.90719223
2
Properties=species:S:1:pos:R:3:forces:R:3 energy=64.68272406097337 pbc="F F F"
Rh       0.00000000       0.00000000       0.00000000       0.00000000       0.00000000     -20.84864998
Rh       0.00000000       0.00000000       0.87474747       0.00000000       0.00000000      20.84864998
2
Properties=species:S:1:pos:R:3:forces:R:3 energy=62.44934922124912 pbc="F F F"
Rh       0.00000000       0.00000000       0.00000000       0.00000000       0.00000000     -58.29909897
Rh       0.00000000       0.00000000       0.93434343       0.00000000       0.00000000      58.29909897
2
Properties=species:S:1:pos:R:3:forces:R:3 energy=57.476625282387566 pbc="F F F"
Rh       0.00000000       0.00000000       0.00000000       0.00000000       0.00000000    -108.59772491
Rh       0.00000000       0.00000000       0.99393939       0.00000000       0.00000000     108.59772491
2
Properties=species:S:1:pos:R:3:forces:R:3 energy=49.7301628372381 pbc="F F F"
Rh       0.00000000       0.00000000       0.00000000       0.00000000       0.00000000    -147.97418213
Rh       0.00000000       0.00000000       1.05353535       0.00000000       0.00000000     147.97418213
2
Properties=species:S:1:pos:R:3:forces:R:3 energy=40.332055187854635 pbc="F F F"
Rh       0.00000000       0.00000000       0.00000000       0.00000000       0.00000000    -163.06733704
Rh       0.00000000       0.00000000       1.11313131       0.00000000       0.00000000     163.06733704
2
Properties=species:S:1:pos:R:3:forces:R:3 energy=30.76272540924029 pbc="F F F"
Rh       0.00000000       0.00000000       0.00000000       0.00000000       0.00000000    -154.85707092
Rh       0.00000000       0.00000000       1.17272727       0.00000000       0.00000000     154.85707092
2
Properties=species:S:1:pos:R:3:forces:R:3 energy=22.142145882454436 pbc="F F F"
Rh       0.00000000       0.00000000       0.00000000       0.00000000       0.00000000    -133.19932556
Rh       0.00000000       0.00000000       1.23232323       0.00000000       0.00000000     133.19932556
2
Properties=species:S:1:pos:R:3:forces:R:3 energy=14.937997696979485 pbc="F F F"
Rh       0.00000000       0.00000000       0.00000000       0.00000000       0.00000000    -108.66838074
Rh       0.00000000       0.00000000       1.29191919       0.00000000       0.00000000     108.66838074
2
Properties=species:S:1:pos:R:3:forces:R:3 energy=9.163240516834769 pbc="F F F"
Rh       0.00000000       0.00000000       0.00000000       0.00000000       0.00000000     -85.33107758
Rh       0.00000000       0.00000000       1.35151515       0.00000000       0.00000000      85.33107758
2
Properties=species:S:1:pos:R:3:forces:R:3 energy=4.735174800743326 pbc="F F F"
Rh       0.00000000       0.00000000       0.00000000       0.00000000       0.00000000     -63.76145935
Rh       0.00000000       0.00000000       1.41111111       0.00000000       0.00000000      63.76145935
2
Properties=species:S:1:pos:R:3:forces:R:3 energy=1.4732633398964292 pbc="F F F"
Rh       0.00000000       0.00000000       0.00000000       0.00000000       0.00000000     -46.60305023
Rh       0.00000000       0.00000000       1.47070707       0.00000000       0.00000000      46.60305023
2
Properties=species:S:1:pos:R:3:forces:R:3 energy=-0.9184735699272676 pbc="F F F"
Rh       0.00000000       0.00000000       0.00000000       0.00000000       0.00000000     -34.34912109
Rh       0.00000000       0.00000000       1.53030303       0.00000000       0.00000000      34.34912109
2
Properties=species:S:1:pos:R:3:forces:R:3 energy=-2.6813063608306833 pbc="F F F"
Rh       0.00000000       0.00000000       0.00000000       0.00000000       0.00000000     -25.14982414
Rh       0.00000000       0.00000000       1.58989899       0.00000000       0.00000000      25.14982414
2
Properties=species:S:1:pos:R:3:forces:R:3 energy=-3.9445949340131454 pbc="F F F"
Rh       0.00000000       0.00000000       0.00000000       0.00000000       0.00000000     -17.44494057
Rh       0.00000000       0.00000000       1.64949495       0.00000000       0.00000000      17.44494057
2
Properties=species:S:1:pos:R:3:forces:R:3 energy=-4.787944853843682 pbc="F F F"
Rh       0.00000000       0.00000000       0.00000000       0.00000000       0.00000000     -11.13342857
Rh       0.00000000       0.00000000       1.70909091       0.00000000       0.00000000      11.13342857
2
Properties=species:S:1:pos:R:3:forces:R:3 energy=-5.308529207568148 pbc="F F F"
Rh       0.00000000       0.00000000       0.00000000       0.00000000       0.00000000      -6.65658808
Rh       0.00000000       0.00000000       1.76868687       0.00000000       0.00000000       6.65658808
2
Properties=species:S:1:pos:R:3:forces:R:3 energy=-5.616513707572343 pbc="F F F"
Rh       0.00000000       0.00000000       0.00000000       0.00000000       0.00000000      -3.93334055
Rh       0.00000000       0.00000000       1.82828283       0.00000000       0.00000000       3.93334055
2
Properties=species:S:1:pos:R:3:forces:R:3 energy=-5.801452787086455 pbc="F F F"
Rh       0.00000000       0.00000000       0.00000000       0.00000000       0.00000000      -2.42351508
Rh       0.00000000       0.00000000       1.88787879       0.00000000       0.00000000       2.42351508
2
Properties=species:S:1:pos:R:3:forces:R:3 energy=-5.917984695187285 pbc="F F F"
Rh       0.00000000       0.00000000       0.00000000       0.00000000       0.00000000      -1.55571520
Rh       0.00000000       0.00000000       1.94747475       0.00000000       0.00000000       1.55571520
2
Properties=species:S:1:pos:R:3:forces:R:3 energy=-5.992014164063845 pbc="F F F"
Rh       0.00000000       0.00000000       0.00000000       0.00000000       0.00000000      -0.95353526
Rh       0.00000000       0.00000000       2.00707071       0.00000000       0.00000000       0.95353526
2
Properties=species:S:1:pos:R:3:forces:R:3 energy=-6.033451233756294 pbc="F F F"
Rh       0.00000000       0.00000000       0.00000000       0.00000000       0.00000000      -0.44669613
Rh       0.00000000       0.00000000       2.06666667       0.00000000       0.00000000       0.44669613
2
Properties=species:S:1:pos:R:3:forces:R:3 energy=-6.046163209131467 pbc="F F F"
Rh       0.00000000       0.00000000       0.00000000       0.00000000       0.00000000       0.01343541
Rh       0.00000000       0.00000000       2.12626263       0.00000000       0.00000000      -0.01343541
2
Properties=species:S:1:pos:R:3:forces:R:3 energy=-6.032561411225199 pbc="F F F"
Rh       0.00000000       0.00000000       0.00000000       0.00000000       0.00000000       0.43798867
Rh       0.00000000       0.00000000       2.18585859       0.00000000       0.00000000      -0.43798867
2
Properties=species:S:1:pos:R:3:forces:R:3 energy=-5.994421887396389 pbc="F F F"
Rh       0.00000000       0.00000000       0.00000000       0.00000000       0.00000000       0.83921945
Rh       0.00000000       0.00000000       2.24545455       0.00000000       0.00000000      -0.83921945
2
Properties=species:S:1:pos:R:3:forces:R:3 energy=-5.932778756596168 pbc="F F F"
Rh       0.00000000       0.00000000       0.00000000       0.00000000       0.00000000       1.22737360
Rh       0.00000000       0.00000000       2.30505051       0.00000000       0.00000000      -1.22737360
2
Properties=species:S:1:pos:R:3:forces:R:3 energy=-5.848540899967703 pbc="F F F"
Rh       0.00000000       0.00000000       0.00000000       0.00000000       0.00000000       1.59393132
Rh       0.00000000       0.00000000       2.36464646       0.00000000       0.00000000      -1.59393132
2
Properties=species:S:1:pos:R:3:forces:R:3 energy=-5.7438618534642245 pbc="F F F"
Rh       0.00000000       0.00000000       0.00000000       0.00000000       0.00000000       1.90647531
Rh       0.00000000       0.00000000       2.42424242       0.00000000       0.00000000      -1.90647531
2
Properties=species:S:1:pos:R:3:forces:R:3 energy=-5.623224952016465 pbc="F F F"
Rh       0.00000000       0.00000000       0.00000000       0.00000000       0.00000000       2.12281823
Rh       0.00000000       0.00000000       2.48383838       0.00000000       0.00000000      -2.12281823
2
Properties=species:S:1:pos:R:3:forces:R:3 energy=-5.493326719201408 pbc="F F F"
Rh       0.00000000       0.00000000       0.00000000       0.00000000       0.00000000       2.21509933
Rh       0.00000000       0.00000000       2.54343434       0.00000000       0.00000000      -2.21509933
2
Properties=species:S:1:pos:R:3:forces:R:3 energy=-5.361584359497719 pbc="F F F"
Rh       0.00000000       0.00000000       0.00000000       0.00000000       0.00000000       2.18891454
Rh       0.00000000       0.00000000       2.60303030       0.00000000       0.00000000      -2.18891454
2
Properties=species:S:1:pos:R:3:forces:R:3 energy=-5.233944655711945 pbc="F F F"
Rh       0.00000000       0.00000000       0.00000000       0.00000000       0.00000000       2.08693767
Rh       0.00000000       0.00000000       2.66262626       0.00000000       0.00000000      -2.08693767
2
Properties=species:S:1:pos:R:3:forces:R:3 energy=-5.1131368717828325 pbc="F F F"
Rh       0.00000000       0.00000000       0.00000000       0.00000000       0.00000000       1.96886086
Rh       0.00000000       0.00000000       2.72222222       0.00000000       0.00000000      -1.96886086
2
Properties=species:S:1:pos:R:3:forces:R:3 energy=-4.998904112215807 pbc="F F F"
Rh       0.00000000       0.00000000       0.00000000       0.00000000       0.00000000       1.86768150
Rh       0.00000000       0.00000000       2.78181818       0.00000000       0.00000000      -1.86768150
2
Properties=species:S:1:pos:R:3:forces:R:3 energy=-4.8903485293096285 pbc="F F F"
Rh       0.00000000       0.00000000       0.00000000       0.00000000       0.00000000       1.77550852
Rh       0.00000000       0.00000000       2.84141414       0.00000000       0.00000000      -1.77550852
2
Properties=species:S:1:pos:R:3:forces:R:3 energy=-4.787301239210311 pbc="F F F"
Rh       0.00000000       0.00000000       0.00000000       0.00000000       0.00000000       1.68281114
Rh       0.00000000       0.00000000       2.90101010       0.00000000       0.00000000      -1.68281114
2
Properties=species:S:1:pos:R:3:forces:R:3 energy=-4.689647053395929 pbc="F F F"
Rh       0.00000000       0.00000000       0.00000000       0.00000000       0.00000000       1.59651840
Rh       0.00000000       0.00000000       2.96060606       0.00000000       0.00000000      -1.59651840
2
Properties=species:S:1:pos:R:3:forces:R:3 energy=-4.596637693745176 pbc="F F F"
Rh       0.00000000       0.00000000       0.00000000       0.00000000       0.00000000       1.52879977
Rh       0.00000000       0.00000000       3.02020202       0.00000000       0.00000000      -1.52879977
2
Properties=species:S:1:pos:R:3:forces:R:3 energy=-4.506869284434071 pbc="F F F"
Rh       0.00000000       0.00000000       0.00000000       0.00000000       0.00000000       1.48891747
Rh       0.00000000       0.00000000       3.07979798       0.00000000       0.00000000      -1.48891747
2
Properties=species:S:1:pos:R:3:forces:R:3 energy=-4.418543609959646 pbc="F F F"
Rh       0.00000000       0.00000000       0.00000000       0.00000000       0.00000000       1.48034751
Rh       0.00000000       0.00000000       3.13939394       0.00000000       0.00000000      -1.48034751
2
Properties=species:S:1:pos:R:3:forces:R:3 energy=-4.329864837333905 pbc="F F F"
Rh       0.00000000       0.00000000       0.00000000       0.00000000       0.00000000       1.49967539
Rh       0.00000000       0.00000000       3.19898990       0.00000000       0.00000000      -1.49967539
2
Properties=species:S:1:pos:R:3:forces:R:3 energy=-4.2394339213431715 pbc="F F F"
Rh       0.00000000       0.00000000       0.00000000       0.00000000       0.00000000       1.53705490
Rh       0.00000000       0.00000000       3.25858586       0.00000000       0.00000000      -1.53705490
2
Properties=species:S:1:pos:R:3:forces:R:3 energy=-4.146580378577557 pbc="F F F"
Rh       0.00000000       0.00000000       0.00000000       0.00000000       0.00000000       1.57839990
Rh       0.00000000       0.00000000       3.31818182       0.00000000       0.00000000      -1.57839990
2
Properties=species:S:1:pos:R:3:forces:R:3 energy=-4.0515226547880445 pbc="F F F"
Rh       0.00000000       0.00000000       0.00000000       0.00000000       0.00000000       1.60871565
Rh       0.00000000       0.00000000       3.37777778       0.00000000       0.00000000      -1.60871565
2
Properties=species:S:1:pos:R:3:forces:R:3 energy=-3.9553027275119605 pbc="F F F"
Rh       0.00000000       0.00000000       0.00000000       0.00000000       0.00000000       1.61566174
Rh       0.00000000       0.00000000       3.43737374       0.00000000       0.00000000      -1.61566174
2
Properties=species:S:1:pos:R:3:forces:R:3 energy=-3.8595570808531203 pbc="F F F"
Rh       0.00000000       0.00000000       0.00000000       0.00000000       0.00000000       1.59213495
Rh       0.00000000       0.00000000       3.49696970       0.00000000       0.00000000      -1.59213495
2
Properties=species:S:1:pos:R:3:forces:R:3 energy=-3.76616415643133 pbc="F F F"
Rh       0.00000000       0.00000000       0.00000000       0.00000000       0.00000000       1.53697884
Rh       0.00000000       0.00000000       3.55656566       0.00000000       0.00000000      -1.53697884
2
Properties=species:S:1:pos:R:3:forces:R:3 energy=-3.6769197286479587 pbc="F F F"
Rh       0.00000000       0.00000000       0.00000000       0.00000000       0.00000000       1.45382500
Rh       0.00000000       0.00000000       3.61616162       0.00000000       0.00000000      -1.45382500
2
Properties=species:S:1:pos:R:3:forces:R:3 energy=-3.5933120632945577 pbc="F F F"
Rh       0.00000000       0.00000000       0.00000000       0.00000000       0.00000000       1.34898460
Rh       0.00000000       0.00000000       3.67575758       0.00000000       0.00000000      -1.34898460
2
Properties=species:S:1:pos:R:3:forces:R:3 energy=-3.5164220541823403 pbc="F F F"
Rh       0.00000000       0.00000000       0.00000000       0.00000000       0.00000000       1.22953618
Rh       0.00000000       0.00000000       3.73535354       0.00000000       0.00000000      -1.22953618
2
Properties=species:S:1:pos:R:3:forces:R:3 energy=-3.446917676158422 pbc="F F F"
Rh       0.00000000       0.00000000       0.00000000       0.00000000       0.00000000       1.10217690
Rh       0.00000000       0.00000000       3.79494949       0.00000000       0.00000000      -1.10217690
2
Properties=species:S:1:pos:R:3:forces:R:3 energy=-3.38509035144273 pbc="F F F"
Rh       0.00000000       0.00000000       0.00000000       0.00000000       0.00000000       0.97280347
Rh       0.00000000       0.00000000       3.85454545       0.00000000       0.00000000      -0.97280347
2
Properties=species:S:1:pos:R:3:forces:R:3 energy=-3.3309069375495324 pbc="F F F"
Rh       0.00000000       0.00000000       0.00000000       0.00000000       0.00000000       0.84646082
Rh       0.00000000       0.00000000       3.91414141       0.00000000       0.00000000      -0.84646082
2
Properties=species:S:1:pos:R:3:forces:R:3 energy=-3.2840552398934735 pbc="F F F"
Rh       0.00000000       0.00000000       0.00000000       0.00000000       0.00000000       0.72732353
Rh       0.00000000       0.00000000       3.97373737       0.00000000       0.00000000      -0.72732353
2
Properties=species:S:1:pos:R:3:forces:R:3 energy=-3.2440071293565906 pbc="F F F"
Rh       0.00000000       0.00000000       0.00000000       0.00000000       0.00000000       0.61863095
Rh       0.00000000       0.00000000       4.03333333       0.00000000       0.00000000      -0.61863095
2
Properties=species:S:1:pos:R:3:forces:R:3 energy=-3.2100681967092113 pbc="F F F"
Rh       0.00000000       0.00000000       0.00000000       0.00000000       0.00000000       0.52256405
Rh       0.00000000       0.00000000       4.09292929       0.00000000       0.00000000      -0.52256405
2
Properties=species:S:1:pos:R:3:forces:R:3 energy=-3.1814482714883074 pbc="F F F"
Rh       0.00000000       0.00000000       0.00000000       0.00000000       0.00000000       0.44021639
Rh       0.00000000       0.00000000       4.15252525       0.00000000       0.00000000      -0.44021639
2
Properties=species:S:1:pos:R:3:forces:R:3 energy=-3.157323649246642 pbc="F F F"
Rh       0.00000000       0.00000000       0.00000000       0.00000000       0.00000000       0.37165686
Rh       0.00000000       0.00000000       4.21212121       0.00000000       0.00000000      -0.37165686
2
Properties=species:S:1:pos:R:3:forces:R:3 energy=-3.13689167440019 pbc="F F F"
Rh       0.00000000       0.00000000       0.00000000       0.00000000       0.00000000       0.31607872
Rh       0.00000000       0.00000000       4.27171717       0.00000000       0.00000000      -0.31607872
2
Properties=species:S:1:pos:R:3:forces:R:3 energy=-3.11941974674948 pbc="F F F"
Rh       0.00000000       0.00000000       0.00000000       0.00000000       0.00000000       0.27205953
Rh       0.00000000       0.00000000       4.33131313       0.00000000       0.00000000      -0.27205953
2
Properties=species:S:1:pos:R:3:forces:R:3 energy=-3.1042703340875653 pbc="F F F"
Rh       0.00000000       0.00000000       0.00000000       0.00000000       0.00000000       0.23780167
Rh       0.00000000       0.00000000       4.39090909       0.00000000       0.00000000      -0.23780167
2
Properties=species:S:1:pos:R:3:forces:R:3 energy=-3.090919871456129 pbc="F F F"
Rh       0.00000000       0.00000000       0.00000000       0.00000000       0.00000000       0.21138166
Rh       0.00000000       0.00000000       4.45050505       0.00000000       0.00000000      -0.21138166
2
Properties=species:S:1:pos:R:3:forces:R:3 energy=-3.078957146900329 pbc="F F F"
Rh       0.00000000       0.00000000       0.00000000       0.00000000       0.00000000       0.19092938
Rh       0.00000000       0.00000000       4.51010101       0.00000000       0.00000000      -0.19092938
2
Properties=species:S:1:pos:R:3:forces:R:3 energy=-3.068077516898375 pbc="F F F"
Rh       0.00000000       0.00000000       0.00000000       0.00000000       0.00000000       0.17476225
Rh       0.00000000       0.00000000       4.56969697       0.00000000       0.00000000      -0.17476225
2
Properties=species:S:1:pos:R:3:forces:R:3 energy=-3.0580696182775373 pbc="F F F"
Rh       0.00000000       0.00000000       0.00000000       0.00000000       0.00000000       0.16147994
Rh       0.00000000       0.00000000       4.62929293       0.00000000       0.00000000      -0.16147994
2
Properties=species:S:1:pos:R:3:forces:R:3 energy=-3.048794697153692 pbc="F F F"
Rh       0.00000000       0.00000000       0.00000000       0.00000000       0.00000000       0.15001984
Rh       0.00000000       0.00000000       4.68888889       0.00000000       0.00000000      -0.15001984
2
Properties=species:S:1:pos:R:3:forces:R:3 energy=-3.040166460561517 pbc="F F F"
Rh       0.00000000       0.00000000       0.00000000       0.00000000       0.00000000       0.13968009
Rh       0.00000000       0.00000000       4.74848485       0.00000000       0.00000000      -0.13968009
2
Properties=species:S:1:pos:R:3:forces:R:3 energy=-3.032130748350741 pbc="F F F"
Rh       0.00000000       0.00000000       0.00000000       0.00000000       0.00000000       0.13011104
Rh       0.00000000       0.00000000       4.80808081       0.00000000       0.00000000      -0.13011104
2
Properties=species:S:1:pos:R:3:forces:R:3 energy=-3.0246442592477107 pbc="F F F"
Rh       0.00000000       0.00000000       0.00000000       0.00000000       0.00000000       0.12125039
Rh       0.00000000       0.00000000       4.86767677       0.00000000       0.00000000      -0.12125039
2
Properties=species:S:1:pos:R:3:forces:R:3 energy=-3.017661737272657 pbc="F F F"
Rh       0.00000000       0.00000000       0.00000000       0.00000000       0.00000000       0.11323097
Rh       0.00000000       0.00000000       4.92727273       0.00000000       0.00000000      -0.11323097
2
Properties=species:S:1:pos:R:3:forces:R:3 energy=-3.0111274456916477 pbc="F F F"
Rh       0.00000000       0.00000000       0.00000000       0.00000000       0.00000000       0.10624863
Rh       0.00000000       0.00000000       4.98686869       0.00000000       0.00000000      -0.10624863
2
Properties=species:S:1:pos:R:3:forces:R:3 energy=-3.004975004625738 pbc="F F F"
Rh       0.00000000       0.00000000       0.00000000       0.00000000       0.00000000       0.10043751
Rh       0.00000000       0.00000000       5.04646465       0.00000000       0.00000000      -0.10043751
2
Properties=species:S:1:pos:R:3:forces:R:3 energy=-2.9991337523248762 pbc="F F F"
Rh       0.00000000       0.00000000       0.00000000       0.00000000       0.00000000       0.09576430
Rh       0.00000000       0.00000000       5.10606061       0.00000000       0.00000000      -0.09576430
2
Properties=species:S:1:pos:R:3:forces:R:3 energy=-2.993542070433837 pbc="F F F"
Rh       0.00000000       0.00000000       0.00000000       0.00000000       0.00000000       0.09197810
Rh       0.00000000       0.00000000       5.16565657       0.00000000       0.00000000      -0.09197810
2
Properties=species:S:1:pos:R:3:forces:R:3 energy=-2.9881614570240345 pbc="F F F"
Rh       0.00000000       0.00000000       0.00000000       0.00000000       0.00000000       0.08863211
Rh       0.00000000       0.00000000       5.22525253       0.00000000       0.00000000      -0.08863211
2
Properties=species:S:1:pos:R:3:forces:R:3 energy=-2.9829803919759392 pbc="F F F"
Rh       0.00000000       0.00000000       0.00000000       0.00000000       0.00000000       0.08517730
Rh       0.00000000       0.00000000       5.28484848       0.00000000       0.00000000      -0.08517730
2
Properties=species:S:1:pos:R:3:forces:R:3 energy=-2.9780216352562734 pbc="F F F"
Rh       0.00000000       0.00000000       0.00000000       0.00000000       0.00000000       0.08109263
Rh       0.00000000       0.00000000       5.34444444       0.00000000       0.00000000      -0.08109263
2
Properties=species:S:1:pos:R:3:forces:R:3 energy=-2.973334629201699 pbc="F F F"
Rh       0.00000000       0.00000000       0.00000000       0.00000000       0.00000000       0.07600467
Rh       0.00000000       0.00000000       5.40404040       0.00000000       0.00000000      -0.07600467
2
Properties=species:S:1:pos:R:3:forces:R:3 energy=-2.9689846437218663 pbc="F F F"
Rh       0.00000000       0.00000000       0.00000000       0.00000000       0.00000000       0.06976978
Rh       0.00000000       0.00000000       5.46363636       0.00000000       0.00000000      -0.06976978
2
Properties=species:S:1:pos:R:3:forces:R:3 energy=-2.9650411397224583 pbc="F F F"
Rh       0.00000000       0.00000000       0.00000000       0.00000000       0.00000000       0.06247010
Rh       0.00000000       0.00000000       5.52323232       0.00000000       0.00000000      -0.06247010
2
Properties=species:S:1:pos:R:3:forces:R:3 energy=-2.9615552238783067 pbc="F F F"
Rh       0.00000000       0.00000000       0.00000000       0.00000000       0.00000000       0.05439983
Rh       0.00000000       0.00000000       5.58282828       0.00000000       0.00000000      -0.05439983
2
Properties=species:S:1:pos:R:3:forces:R:3 energy=-2.9585641754185747 pbc="F F F"
Rh       0.00000000       0.00000000       0.00000000       0.00000000       0.00000000       0.04596947
Rh       0.00000000       0.00000000       5.64242424       0.00000000       0.00000000      -0.04596947
2
Properties=species:S:1:pos:R:3:forces:R:3 energy=-2.9560732193607833 pbc="F F F"
Rh       0.00000000       0.00000000       0.00000000       0.00000000       0.00000000       0.03764403
Rh       0.00000000       0.00000000       5.70202020       0.00000000       0.00000000      -0.03764403
2
Properties=species:S:1:pos:R:3:forces:R:3 energy=-2.954066256930782 pbc="F F F"
Rh       0.00000000       0.00000000       0.00000000       0.00000000       0.00000000       0.02988392
Rh       0.00000000       0.00000000       5.76161616       0.00000000       0.00000000      -0.02988392
2
Properties=species:S:1:pos:R:3:forces:R:3 energy=-2.952492310549785 pbc="F F F"
Rh       0.00000000       0.00000000       0.00000000       0.00000000       0.00000000       0.02311508
Rh       0.00000000       0.00000000       5.82121212       0.00000000       0.00000000      -0.02311508
2
Properties=species:S:1:pos:R:3:forces:R:3 energy=-2.9512849085991872 pbc="F F F"
Rh       0.00000000       0.00000000       0.00000000       0.00000000       0.00000000       0.01770190
Rh       0.00000000       0.00000000       5.88080808       0.00000000       0.00000000      -0.01770190
2
Properties=species:S:1:pos:R:3:forces:R:3 energy=-2.9503487165571114 pbc="F F F"
Rh       0.00000000       0.00000000       0.00000000       0.00000000       0.00000000       0.01396442
Rh       0.00000000       0.00000000       5.94040404       0.00000000       0.00000000      -0.01396442
2
Properties=species:S:1:pos:R:3:forces:R:3 energy=-2.949580825944038 pbc="F F F"
Rh       0.00000000       0.00000000       0.00000000       0.00000000       0.00000000       0.01216704
Rh       0.00000000       0.00000000       6.00000000       0.00000000       0.00000000      -0.01216704
