2
Properties=species:S:1:pos:R:3:forces:R:3 energy=10982.202134460771 pbc="F F F"
Sc       0.00000000       0.00000000       0.00000000       0.00000000       0.00000000 -240115.71875000
Sc       0.00000000       0.00000000       0.10000000       0.00000000       0.00000000  240115.71875000
2
Properties=species:S:1:pos:R:3:forces:R:3 energy=3587.426011413895 pbc="F F F"
Sc       0.00000000       0.00000000       0.00000000       0.00000000       0.00000000  -58707.53125000
Sc       0.00000000       0.00000000       0.15959596       0.00000000       0.00000000   58707.53125000
2
Properties=species:S:1:pos:R:3:forces:R:3 energy=1487.4980328982701 pbc="F F F"
Sc       0.00000000       0.00000000       0.00000000       0.00000000       0.00000000  -19991.57617188
Sc       0.00000000       0.00000000       0.21919192       0.00000000       0.00000000   19991.57617188
2
Properties=species:S:1:pos:R:3:forces:R:3 energy=706.870530456864 pbc="F F F"
Sc       0.00000000       0.00000000       0.00000000       0.00000000       0.00000000   -8245.46484375
Sc       0.00000000       0.00000000       0.27878788       0.00000000       0.00000000    8245.46484375
2
Properties=species:S:1:pos:R:3:forces:R:3 energy=365.886247015934 pbc="F F F"
Sc       0.00000000       0.00000000       0.00000000       0.00000000       0.00000000   -3845.75610352
Sc       0.00000000       0.00000000       0.33838384       0.00000000       0.00000000    3845.75610352
2
Properties=species:S:1:pos:R:3:forces:R:3 energy=200.56668219659804 pbc="F F F"
Sc       0.00000000       0.00000000       0.00000000       0.00000000       0.00000000   -1947.14379883
Sc       0.00000000       0.00000000       0.39797980       0.00000000       0.00000000    1947.14379883
2
Properties=species:S:1:pos:R:3:forces:R:3 energy=114.55370460600385 pbc="F F F"
Sc       0.00000000       0.00000000       0.00000000       0.00000000       0.00000000   -1044.30236816
Sc       0.00000000       0.00000000       0.45757576       0.00000000       0.00000000    1044.30236816
2
Properties=species:S:1:pos:R:3:forces:R:3 energy=67.47408426051484 pbc="F F F"
Sc       0.00000000       0.00000000       0.00000000       0.00000000       0.00000000    -584.83801270
Sc       0.00000000       0.00000000       0.51717172       0.00000000       0.00000000     584.83801270
2
Properties=species:S:1:pos:R:3:forces:R:3 energy=40.67200222408984 pbc="F F F"
Sc       0.00000000       0.00000000       0.00000000       0.00000000       0.00000000    -339.23764038
Sc       0.00000000       0.00000000       0.57676768       0.00000000       0.00000000     339.23764038
2
Properties=species:S:1:pos:R:3:forces:R:3 energy=24.898549509650284 pbc="F F F"
Sc       0.00000000       0.00000000       0.00000000       0.00000000       0.00000000    -203.06842041
Sc       0.00000000       0.00000000       0.63636364       0.00000000       0.00000000     203.06842041
2
Properties=species:S:1:pos:R:3:forces:R:3 energy=15.316940813400185 pbc="F F F"
Sc       0.00000000       0.00000000       0.00000000       0.00000000       0.00000000    -125.61116791
Sc       0.00000000       0.00000000       0.69595960       0.00000000       0.00000000     125.61116791
2
Properties=species:S:1:pos:R:3:forces:R:3 energy=9.281490939416685 pbc="F F F"
Sc       0.00000000       0.00000000       0.00000000       0.00000000       0.00000000     -81.01109314
Sc       0.00000000       0.00000000       0.75555556       0.00000000       0.00000000      81.01109314
2
Properties=species:S:1:pos:R:3:forces:R:3 energy=5.287294218694413 pbc="F F F"
Sc       0.00000000       0.00000000       0.00000000       0.00000000       0.00000000     -55.40292358
Sc       0.00000000       0.00000000       0.81515152       0.00000000       0.00000000      55.40292358
2
Properties=species:S:1:pos:R:3:forces:R:3 energy=2.465128970252119 pbc="F F F"
Sc       0.00000000       0.00000000       0.00000000       0.00000000       0.00000000     -40.58074570
Sc       0.00000000       0.00000000       0.87474747       0.00000000       0.00000000      40.58074570
2
Properties=species:S:1:pos:R:3:forces:R:3 energy=0.35004752526753585 pbc="F F F"
Sc       0.00000000       0.00000000       0.00000000       0.00000000       0.00000000     -30.86515427
Sc       0.00000000       0.00000000       0.93434343       0.00000000       0.00000000      30.86515427
2
Properties=species:S:1:pos:R:3:forces:R:3 energy=-1.2385354721178332 pbc="F F F"
Sc       0.00000000       0.00000000       0.00000000       0.00000000       0.00000000     -22.50859070
Sc       0.00000000       0.00000000       0.99393939       0.00000000       0.00000000      22.50859070
2
Properties=species:S:1:pos:R:3:forces:R:3 energy=-2.3464511778473494 pbc="F F F"
Sc       0.00000000       0.00000000       0.00000000       0.00000000       0.00000000     -14.95485497
Sc       0.00000000       0.00000000       1.05353535       0.00000000       0.00000000      14.95485497
2
Properties=species:S:1:pos:R:3:forces:R:3 energy=-3.0814213689831234 pbc="F F F"
Sc       0.00000000       0.00000000       0.00000000       0.00000000       0.00000000     -10.37170982
Sc       0.00000000       0.00000000       1.11313131       0.00000000       0.00000000      10.37170982
2
Properties=species:S:1:pos:R:3:forces:R:3 energy=-3.654527000649865 pbc="F F F"
Sc       0.00000000       0.00000000       0.00000000       0.00000000       0.00000000      -9.27224922
Sc       0.00000000       0.00000000       1.17272727       0.00000000       0.00000000       9.27224922
2
Properties=species:S:1:pos:R:3:forces:R:3 energy=-4.207844501800701 pbc="F F F"
Sc       0.00000000       0.00000000       0.00000000       0.00000000       0.00000000      -9.32849407
Sc       0.00000000       0.00000000       1.23232323       0.00000000       0.00000000       9.32849407
2
Properties=species:S:1:pos:R:3:forces:R:3 energy=-4.769248269332802 pbc="F F F"
Sc       0.00000000       0.00000000       0.00000000       0.00000000       0.00000000      -9.54447460
Sc       0.00000000       0.00000000       1.29191919       0.00000000       0.00000000       9.54447460
2
Properties=species:S:1:pos:R:3:forces:R:3 energy=-5.343077423183331 pbc="F F F"
Sc       0.00000000       0.00000000       0.00000000       0.00000000       0.00000000      -9.60604954
Sc       0.00000000       0.00000000       1.35151515       0.00000000       0.00000000       9.60604954
2
Properties=species:S:1:pos:R:3:forces:R:3 energy=-5.892661650836861 pbc="F F F"
Sc       0.00000000       0.00000000       0.00000000       0.00000000       0.00000000      -8.61352062
Sc       0.00000000       0.00000000       1.41111111       0.00000000       0.00000000       8.61352062
2
Properties=species:S:1:pos:R:3:forces:R:3 energy=-6.342064981805995 pbc="F F F"
Sc       0.00000000       0.00000000       0.00000000       0.00000000       0.00000000      -6.24185944
Sc       0.00000000       0.00000000       1.47070707       0.00000000       0.00000000       6.24185944
2
Properties=species:S:1:pos:R:3:forces:R:3 energy=-6.613147014749675 pbc="F F F"
Sc       0.00000000       0.00000000       0.00000000       0.00000000       0.00000000      -2.71090198
Sc       0.00000000       0.00000000       1.53030303       0.00000000       0.00000000       2.71090198
2
Properties=species:S:1:pos:R:3:forces:R:3 energy=-6.658954857316537 pbc="F F F"
Sc       0.00000000       0.00000000       0.00000000       0.00000000       0.00000000       1.11322594
Sc       0.00000000       0.00000000       1.58989899       0.00000000       0.00000000      -1.11322594
2
Properties=species:S:1:pos:R:3:forces:R:3 energy=-6.502004573215429 pbc="F F F"
Sc       0.00000000       0.00000000       0.00000000       0.00000000       0.00000000       3.86657000
Sc       0.00000000       0.00000000       1.64949495       0.00000000       0.00000000      -3.86657000
2
Properties=species:S:1:pos:R:3:forces:R:3 energy=-6.238563637726289 pbc="F F F"
Sc       0.00000000       0.00000000       0.00000000       0.00000000       0.00000000       4.63837528
Sc       0.00000000       0.00000000       1.70909091       0.00000000       0.00000000      -4.63837528
2
Properties=species:S:1:pos:R:3:forces:R:3 energy=-5.979182725372807 pbc="F F F"
Sc       0.00000000       0.00000000       0.00000000       0.00000000       0.00000000       3.92563415
Sc       0.00000000       0.00000000       1.76868687       0.00000000       0.00000000      -3.92563415
2
Properties=species:S:1:pos:R:3:forces:R:3 energy=-5.775939763275258 pbc="F F F"
Sc       0.00000000       0.00000000       0.00000000       0.00000000       0.00000000       2.91393352
Sc       0.00000000       0.00000000       1.82828283       0.00000000       0.00000000      -2.91393352
2
Properties=species:S:1:pos:R:3:forces:R:3 energy=-5.6275213613340895 pbc="F F F"
Sc       0.00000000       0.00000000       0.00000000       0.00000000       0.00000000       2.10343790
Sc       0.00000000       0.00000000       1.88787879       0.00000000       0.00000000      -2.10343790
2
Properties=species:S:1:pos:R:3:forces:R:3 energy=-5.521919959950729 pbc="F F F"
Sc       0.00000000       0.00000000       0.00000000       0.00000000       0.00000000       1.46003652
Sc       0.00000000       0.00000000       1.94747475       0.00000000       0.00000000      -1.46003652
2
Properties=species:S:1:pos:R:3:forces:R:3 energy=-5.451728647974011 pbc="F F F"
Sc       0.00000000       0.00000000       0.00000000       0.00000000       0.00000000       0.90782738
Sc       0.00000000       0.00000000       2.00707071       0.00000000       0.00000000      -0.90782738
2
Properties=species:S:1:pos:R:3:forces:R:3 energy=-5.412283039168437 pbc="F F F"
Sc       0.00000000       0.00000000       0.00000000       0.00000000       0.00000000       0.42832908
Sc       0.00000000       0.00000000       2.06666667       0.00000000       0.00000000      -0.42832908
2
Properties=species:S:1:pos:R:3:forces:R:3 energy=-5.399080572493179 pbc="F F F"
Sc       0.00000000       0.00000000       0.00000000       0.00000000       0.00000000       0.02929817
Sc       0.00000000       0.00000000       2.12626263       0.00000000       0.00000000      -0.02929817
2
Properties=species:S:1:pos:R:3:forces:R:3 energy=-5.406880807419734 pbc="F F F"
Sc       0.00000000       0.00000000       0.00000000       0.00000000       0.00000000      -0.27350131
Sc       0.00000000       0.00000000       2.18585859       0.00000000       0.00000000       0.27350131
2
Properties=species:S:1:pos:R:3:forces:R:3 energy=-5.429419009526598 pbc="F F F"
Sc       0.00000000       0.00000000       0.00000000       0.00000000       0.00000000      -0.46276367
Sc       0.00000000       0.00000000       2.24545455       0.00000000       0.00000000       0.46276367
2
Properties=species:S:1:pos:R:3:forces:R:3 energy=-5.459621538182925 pbc="F F F"
Sc       0.00000000       0.00000000       0.00000000       0.00000000       0.00000000      -0.53113335
Sc       0.00000000       0.00000000       2.30505051       0.00000000       0.00000000       0.53113335
2
Properties=species:S:1:pos:R:3:forces:R:3 energy=-5.490602070085941 pbc="F F F"
Sc       0.00000000       0.00000000       0.00000000       0.00000000       0.00000000      -0.49339798
Sc       0.00000000       0.00000000       2.36464646       0.00000000       0.00000000       0.49339798
2
Properties=species:S:1:pos:R:3:forces:R:3 energy=-5.5170457036520535 pbc="F F F"
Sc       0.00000000       0.00000000       0.00000000       0.00000000       0.00000000      -0.38624606
Sc       0.00000000       0.00000000       2.42424242       0.00000000       0.00000000       0.38624606
2
Properties=species:S:1:pos:R:3:forces:R:3 energy=-5.536148711205299 pbc="F F F"
Sc       0.00000000       0.00000000       0.00000000       0.00000000       0.00000000      -0.25413767
Sc       0.00000000       0.00000000       2.48383838       0.00000000       0.00000000       0.25413767
2
Properties=species:S:1:pos:R:3:forces:R:3 energy=-5.547565329141045 pbc="F F F"
Sc       0.00000000       0.00000000       0.00000000       0.00000000       0.00000000      -0.13294105
Sc       0.00000000       0.00000000       2.54343434       0.00000000       0.00000000       0.13294105
2
Properties=species:S:1:pos:R:3:forces:R:3 energy=-5.55261717545356 pbc="F F F"
Sc       0.00000000       0.00000000       0.00000000       0.00000000       0.00000000      -0.04256409
Sc       0.00000000       0.00000000       2.60303030       0.00000000       0.00000000       0.04256409
2
Properties=species:S:1:pos:R:3:forces:R:3 energy=-5.553374443601834 pbc="F F F"
Sc       0.00000000       0.00000000       0.00000000       0.00000000       0.00000000       0.01103622
Sc       0.00000000       0.00000000       2.66262626       0.00000000       0.00000000      -0.01103622
2
Properties=species:S:1:pos:R:3:forces:R:3 energy=-5.551985730795883 pbc="F F F"
Sc       0.00000000       0.00000000       0.00000000       0.00000000       0.00000000       0.03035332
Sc       0.00000000       0.00000000       2.72222222       0.00000000       0.00000000      -0.03035332
2
Properties=species:S:1:pos:R:3:forces:R:3 energy=-5.550300446934115 pbc="F F F"
Sc       0.00000000       0.00000000       0.00000000       0.00000000       0.00000000       0.02239492
Sc       0.00000000       0.00000000       2.78181818       0.00000000       0.00000000      -0.02239492
2
Properties=species:S:1:pos:R:3:forces:R:3 energy=-5.549656405667755 pbc="F F F"
Sc       0.00000000       0.00000000       0.00000000       0.00000000       0.00000000      -0.00260082
Sc       0.00000000       0.00000000       2.84141414       0.00000000       0.00000000       0.00260082
2
Properties=species:S:1:pos:R:3:forces:R:3 energy=-5.5506914914876475 pbc="F F F"
Sc       0.00000000       0.00000000       0.00000000       0.00000000       0.00000000      -0.03159107
Sc       0.00000000       0.00000000       2.90101010       0.00000000       0.00000000       0.03159107
2
Properties=species:S:1:pos:R:3:forces:R:3 energy=-5.553222068079587 pbc="F F F"
Sc       0.00000000       0.00000000       0.00000000       0.00000000       0.00000000      -0.05060663
Sc       0.00000000       0.00000000       2.96060606       0.00000000       0.00000000       0.05060663
2
Properties=species:S:1:pos:R:3:forces:R:3 energy=-5.556289379747732 pbc="F F F"
Sc       0.00000000       0.00000000       0.00000000       0.00000000       0.00000000      -0.04796697
Sc       0.00000000       0.00000000       3.02020202       0.00000000       0.00000000       0.04796697
2
Properties=species:S:1:pos:R:3:forces:R:3 energy=-5.558339918715931 pbc="F F F"
Sc       0.00000000       0.00000000       0.00000000       0.00000000       0.00000000      -0.01510194
Sc       0.00000000       0.00000000       3.07979798       0.00000000       0.00000000       0.01510194
2
Properties=species:S:1:pos:R:3:forces:R:3 energy=-5.557274659880597 pbc="F F F"
Sc       0.00000000       0.00000000       0.00000000       0.00000000       0.00000000       0.05910420
Sc       0.00000000       0.00000000       3.13939394       0.00000000       0.00000000      -0.05910420
2
Properties=species:S:1:pos:R:3:forces:R:3 energy=-5.550131630409516 pbc="F F F"
Sc       0.00000000       0.00000000       0.00000000       0.00000000       0.00000000       0.19134751
Sc       0.00000000       0.00000000       3.19898990       0.00000000       0.00000000      -0.19134751
2
Properties=species:S:1:pos:R:3:forces:R:3 energy=-5.533313708460393 pbc="F F F"
Sc       0.00000000       0.00000000       0.00000000       0.00000000       0.00000000       0.37979361
Sc       0.00000000       0.00000000       3.25858586       0.00000000       0.00000000      -0.37979361
2
Properties=species:S:1:pos:R:3:forces:R:3 energy=-5.504680972428248 pbc="F F F"
Sc       0.00000000       0.00000000       0.00000000       0.00000000       0.00000000       0.57703245
Sc       0.00000000       0.00000000       3.31818182       0.00000000       0.00000000      -0.57703245
2
Properties=species:S:1:pos:R:3:forces:R:3 energy=-5.465550204382536 pbc="F F F"
Sc       0.00000000       0.00000000       0.00000000       0.00000000       0.00000000       0.72472912
Sc       0.00000000       0.00000000       3.37777778       0.00000000       0.00000000      -0.72472912
2
Properties=species:S:1:pos:R:3:forces:R:3 energy=-5.419749623902301 pbc="F F F"
Sc       0.00000000       0.00000000       0.00000000       0.00000000       0.00000000       0.80052418
Sc       0.00000000       0.00000000       3.43737374       0.00000000       0.00000000      -0.80052418
2
Properties=species:S:1:pos:R:3:forces:R:3 energy=-5.37137261069378 pbc="F F F"
Sc       0.00000000       0.00000000       0.00000000       0.00000000       0.00000000       0.81430745
Sc       0.00000000       0.00000000       3.49696970       0.00000000       0.00000000      -0.81430745
2
Properties=species:S:1:pos:R:3:forces:R:3 energy=-5.323491012376912 pbc="F F F"
Sc       0.00000000       0.00000000       0.00000000       0.00000000       0.00000000       0.78784209
Sc       0.00000000       0.00000000       3.55656566       0.00000000       0.00000000      -0.78784209
2
Properties=species:S:1:pos:R:3:forces:R:3 energy=-5.277803437580768 pbc="F F F"
Sc       0.00000000       0.00000000       0.00000000       0.00000000       0.00000000       0.74439687
Sc       0.00000000       0.00000000       3.61616162       0.00000000       0.00000000      -0.74439687
2
Properties=species:S:1:pos:R:3:forces:R:3 energy=-5.234695627875625 pbc="F F F"
Sc       0.00000000       0.00000000       0.00000000       0.00000000       0.00000000       0.70422852
Sc       0.00000000       0.00000000       3.67575758       0.00000000       0.00000000      -0.70422852
2
Properties=species:S:1:pos:R:3:forces:R:3 energy=-5.193517613200001 pbc="F F F"
Sc       0.00000000       0.00000000       0.00000000       0.00000000       0.00000000       0.68128037
Sc       0.00000000       0.00000000       3.73535354       0.00000000       0.00000000      -0.68128037
2
Properties=species:S:1:pos:R:3:forces:R:3 energy=-5.153030748784998 pbc="F F F"
Sc       0.00000000       0.00000000       0.00000000       0.00000000       0.00000000       0.68130577
Sc       0.00000000       0.00000000       3.79494949       0.00000000       0.00000000      -0.68130577
2
Properties=species:S:1:pos:R:3:forces:R:3 energy=-5.111891737703213 pbc="F F F"
Sc       0.00000000       0.00000000       0.00000000       0.00000000       0.00000000       0.70227116
Sc       0.00000000       0.00000000       3.85454545       0.00000000       0.00000000      -0.70227116
2
Properties=species:S:1:pos:R:3:forces:R:3 energy=-5.069055412932635 pbc="F F F"
Sc       0.00000000       0.00000000       0.00000000       0.00000000       0.00000000       0.73677754
Sc       0.00000000       0.00000000       3.91414141       0.00000000       0.00000000      -0.73677754
2
Properties=species:S:1:pos:R:3:forces:R:3 energy=-5.023994452605063 pbc="F F F"
Sc       0.00000000       0.00000000       0.00000000       0.00000000       0.00000000       0.77531081
Sc       0.00000000       0.00000000       3.97373737       0.00000000       0.00000000      -0.77531081
2
Properties=species:S:1:pos:R:3:forces:R:3 energy=-4.976740717455212 pbc="F F F"
Sc       0.00000000       0.00000000       0.00000000       0.00000000       0.00000000       0.80908519
Sc       0.00000000       0.00000000       4.03333333       0.00000000       0.00000000      -0.80908519
2
Properties=species:S:1:pos:R:3:forces:R:3 energy=-4.92778044001674 pbc="F F F"
Sc       0.00000000       0.00000000       0.00000000       0.00000000       0.00000000       0.83175772
Sc       0.00000000       0.00000000       4.09292929       0.00000000       0.00000000      -0.83175772
2
Properties=species:S:1:pos:R:3:forces:R:3 energy=-4.87789093557404 pbc="F F F"
Sc       0.00000000       0.00000000       0.00000000       0.00000000       0.00000000       0.83995503
Sc       0.00000000       0.00000000       4.15252525       0.00000000       0.00000000      -0.83995503
2
Properties=species:S:1:pos:R:3:forces:R:3 energy=-4.827968476619424 pbc="F F F"
Sc       0.00000000       0.00000000       0.00000000       0.00000000       0.00000000       0.83294630
Sc       0.00000000       0.00000000       4.21212121       0.00000000       0.00000000      -0.83294630
2
Properties=species:S:1:pos:R:3:forces:R:3 energy=-4.778889088081143 pbc="F F F"
Sc       0.00000000       0.00000000       0.00000000       0.00000000       0.00000000       0.81194872
Sc       0.00000000       0.00000000       4.27171717       0.00000000       0.00000000      -0.81194872
2
Properties=species:S:1:pos:R:3:forces:R:3 energy=-4.731421051704599 pbc="F F F"
Sc       0.00000000       0.00000000       0.00000000       0.00000000       0.00000000       0.77937114
Sc       0.00000000       0.00000000       4.33131313       0.00000000       0.00000000      -0.77937114
2
Properties=species:S:1:pos:R:3:forces:R:3 energy=-4.686165795587826 pbc="F F F"
Sc       0.00000000       0.00000000       0.00000000       0.00000000       0.00000000       0.73818564
Sc       0.00000000       0.00000000       4.39090909       0.00000000       0.00000000      -0.73818564
2
Properties=species:S:1:pos:R:3:forces:R:3 energy=-4.643545339688104 pbc="F F F"
Sc       0.00000000       0.00000000       0.00000000       0.00000000       0.00000000       0.69142443
Sc       0.00000000       0.00000000       4.45050505       0.00000000       0.00000000      -0.69142443
2
Properties=species:S:1:pos:R:3:forces:R:3 energy=-4.603810547773467 pbc="F F F"
Sc       0.00000000       0.00000000       0.00000000       0.00000000       0.00000000       0.64177632
Sc       0.00000000       0.00000000       4.51010101       0.00000000       0.00000000      -0.64177632
2
Properties=species:S:1:pos:R:3:forces:R:3 energy=-4.567066616867832 pbc="F F F"
Sc       0.00000000       0.00000000       0.00000000       0.00000000       0.00000000       0.59130293
Sc       0.00000000       0.00000000       4.56969697       0.00000000       0.00000000      -0.59130293
2
Properties=species:S:1:pos:R:3:forces:R:3 energy=-4.5333202461157915 pbc="F F F"
Sc       0.00000000       0.00000000       0.00000000       0.00000000       0.00000000       0.54137146
Sc       0.00000000       0.00000000       4.62929293       0.00000000       0.00000000      -0.54137146
2
Properties=species:S:1:pos:R:3:forces:R:3 energy=-4.502514129112951 pbc="F F F"
Sc       0.00000000       0.00000000       0.00000000       0.00000000       0.00000000       0.49273399
Sc       0.00000000       0.00000000       4.68888889       0.00000000       0.00000000      -0.49273399
2
Properties=species:S:1:pos:R:3:forces:R:3 energy=-4.474556867934009 pbc="F F F"
Sc       0.00000000       0.00000000       0.00000000       0.00000000       0.00000000       0.44577789
Sc       0.00000000       0.00000000       4.74848485       0.00000000       0.00000000      -0.44577789
2
Properties=species:S:1:pos:R:3:forces:R:3 energy=-4.449340700134821 pbc="F F F"
Sc       0.00000000       0.00000000       0.00000000       0.00000000       0.00000000       0.40086260
Sc       0.00000000       0.00000000       4.80808081       0.00000000       0.00000000      -0.40086260
2
Properties=species:S:1:pos:R:3:forces:R:3 energy=-4.426726392018801 pbc="F F F"
Sc       0.00000000       0.00000000       0.00000000       0.00000000       0.00000000       0.35851729
Sc       0.00000000       0.00000000       4.86767677       0.00000000       0.00000000      -0.35851729
2
Properties=species:S:1:pos:R:3:forces:R:3 energy=-4.406541288602616 pbc="F F F"
Sc       0.00000000       0.00000000       0.00000000       0.00000000       0.00000000       0.31950691
Sc       0.00000000       0.00000000       4.92727273       0.00000000       0.00000000      -0.31950691
2
Properties=species:S:1:pos:R:3:forces:R:3 energy=-4.388560678953148 pbc="F F F"
Sc       0.00000000       0.00000000       0.00000000       0.00000000       0.00000000       0.28466639
Sc       0.00000000       0.00000000       4.98686869       0.00000000       0.00000000      -0.28466639
2
Properties=species:S:1:pos:R:3:forces:R:3 energy=-4.372516767394481 pbc="F F F"
Sc       0.00000000       0.00000000       0.00000000       0.00000000       0.00000000       0.25463933
Sc       0.00000000       0.00000000       5.04646465       0.00000000       0.00000000      -0.25463933
2
Properties=species:S:1:pos:R:3:forces:R:3 energy=-4.358111199650736 pbc="F F F"
Sc       0.00000000       0.00000000       0.00000000       0.00000000       0.00000000       0.22960715
Sc       0.00000000       0.00000000       5.10606061       0.00000000       0.00000000      -0.22960715
2
Properties=species:S:1:pos:R:3:forces:R:3 energy=-4.345055790409491 pbc="F F F"
Sc       0.00000000       0.00000000       0.00000000       0.00000000       0.00000000       0.20917954
Sc       0.00000000       0.00000000       5.16565657       0.00000000       0.00000000      -0.20917954
2
Properties=species:S:1:pos:R:3:forces:R:3 energy=-4.333104675815835 pbc="F F F"
Sc       0.00000000       0.00000000       0.00000000       0.00000000       0.00000000       0.19242136
Sc       0.00000000       0.00000000       5.22525253       0.00000000       0.00000000      -0.19242136
2
Properties=species:S:1:pos:R:3:forces:R:3 energy=-4.322073895474075 pbc="F F F"
Sc       0.00000000       0.00000000       0.00000000       0.00000000       0.00000000       0.17806026
Sc       0.00000000       0.00000000       5.28484848       0.00000000       0.00000000      -0.17806026
2
Properties=species:S:1:pos:R:3:forces:R:3 energy=-4.311860036614239 pbc="F F F"
Sc       0.00000000       0.00000000       0.00000000       0.00000000       0.00000000       0.16476186
Sc       0.00000000       0.00000000       5.34444444       0.00000000       0.00000000      -0.16476186
2
Properties=species:S:1:pos:R:3:forces:R:3 energy=-4.302436333863611 pbc="F F F"
Sc       0.00000000       0.00000000       0.00000000       0.00000000       0.00000000       0.15140623
Sc       0.00000000       0.00000000       5.40404040       0.00000000       0.00000000      -0.15140623
2
Properties=species:S:1:pos:R:3:forces:R:3 energy=-4.293828000427391 pbc="F F F"
Sc       0.00000000       0.00000000       0.00000000       0.00000000       0.00000000       0.13726853
Sc       0.00000000       0.00000000       5.46363636       0.00000000       0.00000000      -0.13726853
2
Properties=species:S:1:pos:R:3:forces:R:3 energy=-4.286097907134839 pbc="F F F"
Sc       0.00000000       0.00000000       0.00000000       0.00000000       0.00000000       0.12207770
Sc       0.00000000       0.00000000       5.52323232       0.00000000       0.00000000      -0.12207770
2
Properties=species:S:1:pos:R:3:forces:R:3 energy=-4.279297168772861 pbc="F F F"
Sc       0.00000000       0.00000000       0.00000000       0.00000000       0.00000000       0.10602219
Sc       0.00000000       0.00000000       5.58282828       0.00000000       0.00000000      -0.10602219
2
Properties=species:S:1:pos:R:3:forces:R:3 energy=-4.273468361568877 pbc="F F F"
Sc       0.00000000       0.00000000       0.00000000       0.00000000       0.00000000       0.08961327
Sc       0.00000000       0.00000000       5.64242424       0.00000000       0.00000000      -0.08961327
2
Properties=species:S:1:pos:R:3:forces:R:3 energy=-4.268606729822593 pbc="F F F"
Sc       0.00000000       0.00000000       0.00000000       0.00000000       0.00000000       0.07358690
Sc       0.00000000       0.00000000       5.70202020       0.00000000       0.00000000      -0.07358690
2
Properties=species:S:1:pos:R:3:forces:R:3 energy=-4.264673966666257 pbc="F F F"
Sc       0.00000000       0.00000000       0.00000000       0.00000000       0.00000000       0.05875008
Sc       0.00000000       0.00000000       5.76161616       0.00000000       0.00000000      -0.05875008
2
Properties=species:S:1:pos:R:3:forces:R:3 energy=-4.2615668220077785 pbc="F F F"
Sc       0.00000000       0.00000000       0.00000000       0.00000000       0.00000000       0.04588459
Sc       0.00000000       0.00000000       5.82121212       0.00000000       0.00000000      -0.04588459
2
Properties=species:S:1:pos:R:3:forces:R:3 energy=-4.2591530173730465 pbc="F F F"
Sc       0.00000000       0.00000000       0.00000000       0.00000000       0.00000000       0.03569365
Sc       0.00000000       0.00000000       5.88080808       0.00000000       0.00000000      -0.03569365
2
Properties=species:S:1:pos:R:3:forces:R:3 energy=-4.257246933546511 pbc="F F F"
Sc       0.00000000       0.00000000       0.00000000       0.00000000       0.00000000       0.02874189
Sc       0.00000000       0.00000000       5.94040404       0.00000000       0.00000000      -0.02874189
2
Properties=species:S:1:pos:R:3:forces:R:3 energy=-4.255652643124841 pbc="F F F"
Sc       0.00000000       0.00000000       0.00000000       0.00000000       0.00000000       0.02544594
Sc       0.00000000       0.00000000       6.00000000       0.00000000       0.00000000      -0.02544594
