2
Properties=species:S:1:pos:R:3:forces:R:3 energy=44681.921699163446 pbc="F F F"
Sn       0.00000000       0.00000000       0.00000000       0.00000000       0.00000000 -1072242.50000000
Sn       0.00000000       0.00000000       0.10000000       0.00000000       0.00000000 1072242.50000000
2
Properties=species:S:1:pos:R:3:forces:R:3 energy=13197.265449163444 pbc="F F F"
Sn       0.00000000       0.00000000       0.00000000       0.00000000       0.00000000 -233221.59375000
Sn       0.00000000       0.00000000       0.15959596       0.00000000       0.00000000  233221.59375000
2
Properties=species:S:1:pos:R:3:forces:R:3 energy=5153.886542913444 pbc="F F F"
Sn       0.00000000       0.00000000       0.00000000       0.00000000       0.00000000  -72930.55468750
Sn       0.00000000       0.00000000       0.21919192       0.00000000       0.00000000   72930.55468750
2
Properties=species:S:1:pos:R:3:forces:R:3 energy=2396.295478460319 pbc="F F F"
Sn       0.00000000       0.00000000       0.00000000       0.00000000       0.00000000  -27883.24804688
Sn       0.00000000       0.00000000       0.27878788       0.00000000       0.00000000   27883.24804688
2
Properties=species:S:1:pos:R:3:forces:R:3 energy=1281.6768261229047 pbc="F F F"
Sn       0.00000000       0.00000000       0.00000000       0.00000000       0.00000000  -12012.72851562
Sn       0.00000000       0.00000000       0.33838384       0.00000000       0.00000000   12012.72851562
2
Properties=species:S:1:pos:R:3:forces:R:3 energy=784.1539989808027 pbc="F F F"
Sn       0.00000000       0.00000000       0.00000000       0.00000000       0.00000000   -5581.32617188
Sn       0.00000000       0.00000000       0.39797980       0.00000000       0.00000000    5581.32617188
2
Properties=species:S:1:pos:R:3:forces:R:3 energy=547.5498119754196 pbc="F F F"
Sn       0.00000000       0.00000000       0.00000000       0.00000000       0.00000000   -2723.15673828
Sn       0.00000000       0.00000000       0.45757576       0.00000000       0.00000000    2723.15673828
2
Properties=species:S:1:pos:R:3:forces:R:3 energy=430.41458860258683 pbc="F F F"
Sn       0.00000000       0.00000000       0.00000000       0.00000000       0.00000000   -1369.60974121
Sn       0.00000000       0.00000000       0.51717172       0.00000000       0.00000000    1369.60974121
2
Properties=species:S:1:pos:R:3:forces:R:3 energy=370.7625195393004 pbc="F F F"
Sn       0.00000000       0.00000000       0.00000000       0.00000000       0.00000000    -712.02038574
Sn       0.00000000       0.00000000       0.57676768       0.00000000       0.00000000     712.02038574
2
Properties=species:S:1:pos:R:3:forces:R:3 energy=338.40851569007117 pbc="F F F"
Sn       0.00000000       0.00000000       0.00000000       0.00000000       0.00000000    -419.71191406
Sn       0.00000000       0.00000000       0.63636364       0.00000000       0.00000000     419.71191406
2
Properties=species:S:1:pos:R:3:forces:R:3 energy=316.2846754404033 pbc="F F F"
Sn       0.00000000       0.00000000       0.00000000       0.00000000       0.00000000    -353.36303711
Sn       0.00000000       0.00000000       0.69595960       0.00000000       0.00000000     353.36303711
2
Properties=species:S:1:pos:R:3:forces:R:3 energy=293.33991238985806 pbc="F F F"
Sn       0.00000000       0.00000000       0.00000000       0.00000000       0.00000000    -435.19183350
Sn       0.00000000       0.00000000       0.75555556       0.00000000       0.00000000     435.19183350
2
Properties=species:S:1:pos:R:3:forces:R:3 energy=263.0731889471149 pbc="F F F"
Sn       0.00000000       0.00000000       0.00000000       0.00000000       0.00000000    -583.83776855
Sn       0.00000000       0.00000000       0.81515152       0.00000000       0.00000000     583.83776855
2
Properties=species:S:1:pos:R:3:forces:R:3 energy=224.31162306377388 pbc="F F F"
Sn       0.00000000       0.00000000       0.00000000       0.00000000       0.00000000    -705.11328125
Sn       0.00000000       0.00000000       0.87474747       0.00000000       0.00000000     705.11328125
2
Properties=species:S:1:pos:R:3:forces:R:3 energy=180.98169792264227 pbc="F F F"
Sn       0.00000000       0.00000000       0.00000000       0.00000000       0.00000000    -730.46783447
Sn       0.00000000       0.00000000       0.93434343       0.00000000       0.00000000     730.46783447
2
Properties=species:S:1:pos:R:3:forces:R:3 energy=139.27723069723802 pbc="F F F"
Sn       0.00000000       0.00000000       0.00000000       0.00000000       0.00000000    -655.52545166
Sn       0.00000000       0.00000000       0.99393939       0.00000000       0.00000000     655.52545166
2
Properties=species:S:1:pos:R:3:forces:R:3 energy=103.89426634428213 pbc="F F F"
Sn       0.00000000       0.00000000       0.00000000       0.00000000       0.00000000    -527.72766113
Sn       0.00000000       0.00000000       1.05353535       0.00000000       0.00000000     527.72766113
2
Properties=species:S:1:pos:R:3:forces:R:3 energy=76.44096686290406 pbc="F F F"
Sn       0.00000000       0.00000000       0.00000000       0.00000000       0.00000000    -396.08816528
Sn       0.00000000       0.00000000       1.11313131       0.00000000       0.00000000     396.08816528
2
Properties=species:S:1:pos:R:3:forces:R:3 energy=56.141880640464905 pbc="F F F"
Sn       0.00000000       0.00000000       0.00000000       0.00000000       0.00000000    -290.77362061
Sn       0.00000000       0.00000000       1.17272727       0.00000000       0.00000000     290.77362061
2
Properties=species:S:1:pos:R:3:forces:R:3 energy=41.156320967567964 pbc="F F F"
Sn       0.00000000       0.00000000       0.00000000       0.00000000       0.00000000    -216.36898804
Sn       0.00000000       0.00000000       1.23232323       0.00000000       0.00000000     216.36898804
2
Properties=species:S:1:pos:R:3:forces:R:3 energy=29.991970733205235 pbc="F F F"
Sn       0.00000000       0.00000000       0.00000000       0.00000000       0.00000000    -160.34443665
Sn       0.00000000       0.00000000       1.29191919       0.00000000       0.00000000     160.34443665
2
Properties=species:S:1:pos:R:3:forces:R:3 energy=21.850841143977643 pbc="F F F"
Sn       0.00000000       0.00000000       0.00000000       0.00000000       0.00000000    -114.45224762
Sn       0.00000000       0.00000000       1.35151515       0.00000000       0.00000000     114.45224762
2
Properties=species:S:1:pos:R:3:forces:R:3 energy=16.119735006273558 pbc="F F F"
Sn       0.00000000       0.00000000       0.00000000       0.00000000       0.00000000     -80.17903900
Sn       0.00000000       0.00000000       1.41111111       0.00000000       0.00000000      80.17903900
2
Properties=species:S:1:pos:R:3:forces:R:3 energy=12.024021916075156 pbc="F F F"
Sn       0.00000000       0.00000000       0.00000000       0.00000000       0.00000000     -59.14273453
Sn       0.00000000       0.00000000       1.47070707       0.00000000       0.00000000      59.14273453
2
Properties=species:S:1:pos:R:3:forces:R:3 energy=8.92100375331314 pbc="F F F"
Sn       0.00000000       0.00000000       0.00000000       0.00000000       0.00000000     -45.73410034
Sn       0.00000000       0.00000000       1.53030303       0.00000000       0.00000000      45.73410034
2
Properties=species:S:1:pos:R:3:forces:R:3 energy=6.511884531146441 pbc="F F F"
Sn       0.00000000       0.00000000       0.00000000       0.00000000       0.00000000     -35.53555298
Sn       0.00000000       0.00000000       1.58989899       0.00000000       0.00000000      35.53555298
2
Properties=species:S:1:pos:R:3:forces:R:3 energy=4.636982197457861 pbc="F F F"
Sn       0.00000000       0.00000000       0.00000000       0.00000000       0.00000000     -27.77489662
Sn       0.00000000       0.00000000       1.64949495       0.00000000       0.00000000      27.77489662
2
Properties=species:S:1:pos:R:3:forces:R:3 energy=3.158579784006474 pbc="F F F"
Sn       0.00000000       0.00000000       0.00000000       0.00000000       0.00000000     -22.15944099
Sn       0.00000000       0.00000000       1.70909091       0.00000000       0.00000000      22.15944099
2
Properties=species:S:1:pos:R:3:forces:R:3 energy=1.9624597511932964 pbc="F F F"
Sn       0.00000000       0.00000000       0.00000000       0.00000000       0.00000000     -18.22055435
Sn       0.00000000       0.00000000       1.76868687       0.00000000       0.00000000      18.22055435
2
Properties=species:S:1:pos:R:3:forces:R:3 energy=0.9629196357238461 pbc="F F F"
Sn       0.00000000       0.00000000       0.00000000       0.00000000       0.00000000     -15.48707581
Sn       0.00000000       0.00000000       1.82828283       0.00000000       0.00000000      15.48707581
2
Properties=species:S:1:pos:R:3:forces:R:3 energy=0.10126241901131484 pbc="F F F"
Sn       0.00000000       0.00000000       0.00000000       0.00000000       0.00000000     -13.52395058
Sn       0.00000000       0.00000000       1.88787879       0.00000000       0.00000000      13.52395058
2
Properties=species:S:1:pos:R:3:forces:R:3 energy=-0.6566896882630969 pbc="F F F"
Sn       0.00000000       0.00000000       0.00000000       0.00000000       0.00000000     -11.94994450
Sn       0.00000000       0.00000000       1.94747475       0.00000000       0.00000000      11.94994450
2
Properties=species:S:1:pos:R:3:forces:R:3 energy=-1.325197259416715 pbc="F F F"
Sn       0.00000000       0.00000000       0.00000000       0.00000000       0.00000000     -10.48789692
Sn       0.00000000       0.00000000       2.00707071       0.00000000       0.00000000      10.48789692
2
Properties=species:S:1:pos:R:3:forces:R:3 energy=-1.9063683551759254 pbc="F F F"
Sn       0.00000000       0.00000000       0.00000000       0.00000000       0.00000000      -9.01102161
Sn       0.00000000       0.00000000       2.06666667       0.00000000       0.00000000       9.01102161
2
Properties=species:S:1:pos:R:3:forces:R:3 energy=-2.3990376588818734 pbc="F F F"
Sn       0.00000000       0.00000000       0.00000000       0.00000000       0.00000000      -7.52634001
Sn       0.00000000       0.00000000       2.12626263       0.00000000       0.00000000       7.52634001
2
Properties=species:S:1:pos:R:3:forces:R:3 energy=-2.804690898580869 pbc="F F F"
Sn       0.00000000       0.00000000       0.00000000       0.00000000       0.00000000      -6.10396385
Sn       0.00000000       0.00000000       2.18585859       0.00000000       0.00000000       6.10396385
2
Properties=species:S:1:pos:R:3:forces:R:3 energy=-3.1292522647762686 pbc="F F F"
Sn       0.00000000       0.00000000       0.00000000       0.00000000       0.00000000      -4.81512737
Sn       0.00000000       0.00000000       2.24545455       0.00000000       0.00000000       4.81512737
2
Properties=species:S:1:pos:R:3:forces:R:3 energy=-3.382220905852299 pbc="F F F"
Sn       0.00000000       0.00000000       0.00000000       0.00000000       0.00000000      -3.70686388
Sn       0.00000000       0.00000000       2.30505051       0.00000000       0.00000000       3.70686388
2
Properties=species:S:1:pos:R:3:forces:R:3 energy=-3.57506099394739 pbc="F F F"
Sn       0.00000000       0.00000000       0.00000000       0.00000000       0.00000000      -2.79815912
Sn       0.00000000       0.00000000       2.36464646       0.00000000       0.00000000       2.79815912
2
Properties=species:S:1:pos:R:3:forces:R:3 energy=-3.7196027053971097 pbc="F F F"
Sn       0.00000000       0.00000000       0.00000000       0.00000000       0.00000000      -2.08338451
Sn       0.00000000       0.00000000       2.42424242       0.00000000       0.00000000       2.08338451
2
Properties=species:S:1:pos:R:3:forces:R:3 energy=-3.826800737178925 pbc="F F F"
Sn       0.00000000       0.00000000       0.00000000       0.00000000       0.00000000      -1.54037488
Sn       0.00000000       0.00000000       2.48383838       0.00000000       0.00000000       1.54037488
2
Properties=species:S:1:pos:R:3:forces:R:3 energy=-3.9060330315079406 pbc="F F F"
Sn       0.00000000       0.00000000       0.00000000       0.00000000       0.00000000      -1.13977706
Sn       0.00000000       0.00000000       2.54343434       0.00000000       0.00000000       1.13977706
2
Properties=species:S:1:pos:R:3:forces:R:3 energy=-3.964850862480852 pbc="F F F"
Sn       0.00000000       0.00000000       0.00000000       0.00000000       0.00000000      -0.84974056
Sn       0.00000000       0.00000000       2.60303030       0.00000000       0.00000000       0.84974056
2
Properties=species:S:1:pos:R:3:forces:R:3 energy=-4.008814002474666 pbc="F F F"
Sn       0.00000000       0.00000000       0.00000000       0.00000000       0.00000000      -0.63497257
Sn       0.00000000       0.00000000       2.66262626       0.00000000       0.00000000       0.63497257
2
Properties=species:S:1:pos:R:3:forces:R:3 energy=-4.041243796526486 pbc="F F F"
Sn       0.00000000       0.00000000       0.00000000       0.00000000       0.00000000      -0.45587981
Sn       0.00000000       0.00000000       2.72222222       0.00000000       0.00000000       0.45587981
2
Properties=species:S:1:pos:R:3:forces:R:3 energy=-4.063077875887899 pbc="F F F"
Sn       0.00000000       0.00000000       0.00000000       0.00000000       0.00000000      -0.27345857
Sn       0.00000000       0.00000000       2.78181818       0.00000000       0.00000000       0.27345857
2
Properties=species:S:1:pos:R:3:forces:R:3 energy=-4.073193817917785 pbc="F F F"
Sn       0.00000000       0.00000000       0.00000000       0.00000000       0.00000000      -0.05934024
Sn       0.00000000       0.00000000       2.84141414       0.00000000       0.00000000       0.05934024
2
Properties=species:S:1:pos:R:3:forces:R:3 energy=-4.069333056762272 pbc="F F F"
Sn       0.00000000       0.00000000       0.00000000       0.00000000       0.00000000       0.19523571
Sn       0.00000000       0.00000000       2.90101010       0.00000000       0.00000000      -0.19523571
2
Properties=species:S:1:pos:R:3:forces:R:3 energy=-4.049353326837203 pbc="F F F"
Sn       0.00000000       0.00000000       0.00000000       0.00000000       0.00000000       0.47809085
Sn       0.00000000       0.00000000       2.96060606       0.00000000       0.00000000      -0.47809085
2
Properties=species:S:1:pos:R:3:forces:R:3 energy=-4.012297680572133 pbc="F F F"
Sn       0.00000000       0.00000000       0.00000000       0.00000000       0.00000000       0.76342988
Sn       0.00000000       0.00000000       3.02020202       0.00000000       0.00000000      -0.76342988
2
Properties=species:S:1:pos:R:3:forces:R:3 energy=-3.9588700574805658 pbc="F F F"
Sn       0.00000000       0.00000000       0.00000000       0.00000000       0.00000000       1.02325499
Sn       0.00000000       0.00000000       3.07979798       0.00000000       0.00000000      -1.02325499
2
Properties=species:S:1:pos:R:3:forces:R:3 energy=-3.891267587072649 pbc="F F F"
Sn       0.00000000       0.00000000       0.00000000       0.00000000       0.00000000       1.23644471
Sn       0.00000000       0.00000000       3.13939394       0.00000000       0.00000000      -1.23644471
2
Properties=species:S:1:pos:R:3:forces:R:3 energy=-3.8126380620508837 pbc="F F F"
Sn       0.00000000       0.00000000       0.00000000       0.00000000       0.00000000       1.39245784
Sn       0.00000000       0.00000000       3.19898990       0.00000000       0.00000000      -1.39245784
2
Properties=species:S:1:pos:R:3:forces:R:3 energy=-3.726448253834032 pbc="F F F"
Sn       0.00000000       0.00000000       0.00000000       0.00000000       0.00000000       1.49082875
Sn       0.00000000       0.00000000       3.25858586       0.00000000       0.00000000      -1.49082875
2
Properties=species:S:1:pos:R:3:forces:R:3 energy=-3.6359420039507104 pbc="F F F"
Sn       0.00000000       0.00000000       0.00000000       0.00000000       0.00000000       1.53908086
Sn       0.00000000       0.00000000       3.31818182       0.00000000       0.00000000      -1.53908086
2
Properties=species:S:1:pos:R:3:forces:R:3 energy=-3.543748560799056 pbc="F F F"
Sn       0.00000000       0.00000000       0.00000000       0.00000000       0.00000000       1.54978907
Sn       0.00000000       0.00000000       3.37777778       0.00000000       0.00000000      -1.54978907
2
Properties=species:S:1:pos:R:3:forces:R:3 energy=-3.4516907173946225 pbc="F F F"
Sn       0.00000000       0.00000000       0.00000000       0.00000000       0.00000000       1.53678048
Sn       0.00000000       0.00000000       3.43737374       0.00000000       0.00000000      -1.53678048
2
Properties=species:S:1:pos:R:3:forces:R:3 energy=-3.3607995058868605 pbc="F F F"
Sn       0.00000000       0.00000000       0.00000000       0.00000000       0.00000000       1.51248026
Sn       0.00000000       0.00000000       3.49696970       0.00000000       0.00000000      -1.51248026
2
Properties=species:S:1:pos:R:3:forces:R:3 energy=-3.271434980209652 pbc="F F F"
Sn       0.00000000       0.00000000       0.00000000       0.00000000       0.00000000       1.48698628
Sn       0.00000000       0.00000000       3.55656566       0.00000000       0.00000000      -1.48698628
2
Properties=species:S:1:pos:R:3:forces:R:3 energy=-3.1834527941246566 pbc="F F F"
Sn       0.00000000       0.00000000       0.00000000       0.00000000       0.00000000       1.46689022
Sn       0.00000000       0.00000000       3.61616162       0.00000000       0.00000000      -1.46689022
2
Properties=species:S:1:pos:R:3:forces:R:3 energy=-3.0964487509679355 pbc="F F F"
Sn       0.00000000       0.00000000       0.00000000       0.00000000       0.00000000       1.45397711
Sn       0.00000000       0.00000000       3.67575758       0.00000000       0.00000000      -1.45397711
2
Properties=species:S:1:pos:R:3:forces:R:3 energy=-3.010064652477318 pbc="F F F"
Sn       0.00000000       0.00000000       0.00000000       0.00000000       0.00000000       1.44526100
Sn       0.00000000       0.00000000       3.73535354       0.00000000       0.00000000      -1.44526100
2
Properties=species:S:1:pos:R:3:forces:R:3 energy=-2.924222963149889 pbc="F F F"
Sn       0.00000000       0.00000000       0.00000000       0.00000000       0.00000000       1.43463171
Sn       0.00000000       0.00000000       3.79494949       0.00000000       0.00000000      -1.43463171
2
Properties=species:S:1:pos:R:3:forces:R:3 energy=-2.83924208647324 pbc="F F F"
Sn       0.00000000       0.00000000       0.00000000       0.00000000       0.00000000       1.41529882
Sn       0.00000000       0.00000000       3.85454545       0.00000000       0.00000000      -1.41529882
2
Properties=species:S:1:pos:R:3:forces:R:3 energy=-2.755809379469037 pbc="F F F"
Sn       0.00000000       0.00000000       0.00000000       0.00000000       0.00000000       1.38204956
Sn       0.00000000       0.00000000       3.91414141       0.00000000       0.00000000      -1.38204956
2
Properties=species:S:1:pos:R:3:forces:R:3 energy=-2.6748370048396954 pbc="F F F"
Sn       0.00000000       0.00000000       0.00000000       0.00000000       0.00000000       1.33254540
Sn       0.00000000       0.00000000       3.97373737       0.00000000       0.00000000      -1.33254540
2
Properties=species:S:1:pos:R:3:forces:R:3 energy=-2.5972892585766156 pbc="F F F"
Sn       0.00000000       0.00000000       0.00000000       0.00000000       0.00000000       1.26759434
Sn       0.00000000       0.00000000       4.03333333       0.00000000       0.00000000      -1.26759434
2
Properties=species:S:1:pos:R:3:forces:R:3 energy=-2.523992301438823 pbc="F F F"
Sn       0.00000000       0.00000000       0.00000000       0.00000000       0.00000000       1.19052792
Sn       0.00000000       0.00000000       4.09292929       0.00000000       0.00000000      -1.19052792
2
Properties=species:S:1:pos:R:3:forces:R:3 energy=-2.4555317893555824 pbc="F F F"
Sn       0.00000000       0.00000000       0.00000000       0.00000000       0.00000000       1.10620010
Sn       0.00000000       0.00000000       4.15252525       0.00000000       0.00000000      -1.10620010
2
Properties=species:S:1:pos:R:3:forces:R:3 energy=-2.392181663802963 pbc="F F F"
Sn       0.00000000       0.00000000       0.00000000       0.00000000       0.00000000       1.01991427
Sn       0.00000000       0.00000000       4.21212121       0.00000000       0.00000000      -1.01991427
2
Properties=species:S:1:pos:R:3:forces:R:3 energy=-2.3339070951901673 pbc="F F F"
Sn       0.00000000       0.00000000       0.00000000       0.00000000       0.00000000       0.93655562
Sn       0.00000000       0.00000000       4.27171717       0.00000000       0.00000000      -0.93655562
2
Properties=species:S:1:pos:R:3:forces:R:3 energy=-2.2804150711158866 pbc="F F F"
Sn       0.00000000       0.00000000       0.00000000       0.00000000       0.00000000       0.86002707
Sn       0.00000000       0.00000000       4.33131313       0.00000000       0.00000000      -0.86002707
2
Properties=species:S:1:pos:R:3:forces:R:3 energy=-2.231211610491647 pbc="F F F"
Sn       0.00000000       0.00000000       0.00000000       0.00000000       0.00000000       0.79289550
Sn       0.00000000       0.00000000       4.39090909       0.00000000       0.00000000      -0.79289550
2
Properties=species:S:1:pos:R:3:forces:R:3 energy=-2.1856966699753997 pbc="F F F"
Sn       0.00000000       0.00000000       0.00000000       0.00000000       0.00000000       0.73632979
Sn       0.00000000       0.00000000       4.45050505       0.00000000       0.00000000      -0.73632979
2
Properties=species:S:1:pos:R:3:forces:R:3 energy=-2.143240218505186 pbc="F F F"
Sn       0.00000000       0.00000000       0.00000000       0.00000000       0.00000000       0.69015759
Sn       0.00000000       0.00000000       4.51010101       0.00000000       0.00000000      -0.69015759
2
Properties=species:S:1:pos:R:3:forces:R:3 energy=-2.10325361398523 pbc="F F F"
Sn       0.00000000       0.00000000       0.00000000       0.00000000       0.00000000       0.65308458
Sn       0.00000000       0.00000000       4.56969697       0.00000000       0.00000000      -0.65308458
2
Properties=species:S:1:pos:R:3:forces:R:3 energy=-2.065257638112178 pbc="F F F"
Sn       0.00000000       0.00000000       0.00000000       0.00000000       0.00000000       0.62301385
Sn       0.00000000       0.00000000       4.62929293       0.00000000       0.00000000      -0.62301385
2
Properties=species:S:1:pos:R:3:forces:R:3 energy=-2.0289072990748895 pbc="F F F"
Sn       0.00000000       0.00000000       0.00000000       0.00000000       0.00000000       0.59742725
Sn       0.00000000       0.00000000       4.68888889       0.00000000       0.00000000      -0.59742725
2
Properties=species:S:1:pos:R:3:forces:R:3 energy=-1.9940108270131616 pbc="F F F"
Sn       0.00000000       0.00000000       0.00000000       0.00000000       0.00000000       0.57376713
Sn       0.00000000       0.00000000       4.74848485       0.00000000       0.00000000      -0.57376713
2
Properties=species:S:1:pos:R:3:forces:R:3 energy=-1.9605249286528212 pbc="F F F"
Sn       0.00000000       0.00000000       0.00000000       0.00000000       0.00000000       0.54981869
Sn       0.00000000       0.00000000       4.80808081       0.00000000       0.00000000      -0.54981869
2
Properties=species:S:1:pos:R:3:forces:R:3 energy=-1.9285152605067482 pbc="F F F"
Sn       0.00000000       0.00000000       0.00000000       0.00000000       0.00000000       0.52396548
Sn       0.00000000       0.00000000       4.86767677       0.00000000       0.00000000      -0.52396548
2
Properties=species:S:1:pos:R:3:forces:R:3 energy=-1.8981276634220978 pbc="F F F"
Sn       0.00000000       0.00000000       0.00000000       0.00000000       0.00000000       0.49530843
Sn       0.00000000       0.00000000       4.92727273       0.00000000       0.00000000      -0.49530843
2
Properties=species:S:1:pos:R:3:forces:R:3 energy=-1.8695386178652287 pbc="F F F"
Sn       0.00000000       0.00000000       0.00000000       0.00000000       0.00000000       0.46362570
Sn       0.00000000       0.00000000       4.98686869       0.00000000       0.00000000      -0.46362570
2
Properties=species:S:1:pos:R:3:forces:R:3 energy=-1.8429243956421961 pbc="F F F"
Sn       0.00000000       0.00000000       0.00000000       0.00000000       0.00000000       0.42921126
Sn       0.00000000       0.00000000       5.04646465       0.00000000       0.00000000      -0.42921126
2
Properties=species:S:1:pos:R:3:forces:R:3 energy=-1.8184246381249556 pbc="F F F"
Sn       0.00000000       0.00000000       0.00000000       0.00000000       0.00000000       0.39265612
Sn       0.00000000       0.00000000       5.10606061       0.00000000       0.00000000      -0.39265612
2
Properties=species:S:1:pos:R:3:forces:R:3 energy=-1.7961478252075238 pbc="F F F"
Sn       0.00000000       0.00000000       0.00000000       0.00000000       0.00000000       0.35465005
Sn       0.00000000       0.00000000       5.16565657       0.00000000       0.00000000      -0.35465005
2
Properties=species:S:1:pos:R:3:forces:R:3 energy=-1.7761654899036372 pbc="F F F"
Sn       0.00000000       0.00000000       0.00000000       0.00000000       0.00000000       0.31591055
Sn       0.00000000       0.00000000       5.22525253       0.00000000       0.00000000      -0.31591055
2
Properties=species:S:1:pos:R:3:forces:R:3 energy=-1.7584960949983517 pbc="F F F"
Sn       0.00000000       0.00000000       0.00000000       0.00000000       0.00000000       0.27713692
Sn       0.00000000       0.00000000       5.28484848       0.00000000       0.00000000      -0.27713692
2
Properties=species:S:1:pos:R:3:forces:R:3 energy=-1.7431189215142515 pbc="F F F"
Sn       0.00000000       0.00000000       0.00000000       0.00000000       0.00000000       0.23906353
Sn       0.00000000       0.00000000       5.34444444       0.00000000       0.00000000      -0.23906353
2
Properties=species:S:1:pos:R:3:forces:R:3 energy=-1.7299722441421523 pbc="F F F"
Sn       0.00000000       0.00000000       0.00000000       0.00000000       0.00000000       0.20242444
Sn       0.00000000       0.00000000       5.40404040       0.00000000       0.00000000      -0.20242444
2
Properties=species:S:1:pos:R:3:forces:R:3 energy=-1.7189456507454546 pbc="F F F"
Sn       0.00000000       0.00000000       0.00000000       0.00000000       0.00000000       0.16796650
Sn       0.00000000       0.00000000       5.46363636       0.00000000       0.00000000      -0.16796650
2
Properties=species:S:1:pos:R:3:forces:R:3 energy=-1.7098987756416268 pbc="F F F"
Sn       0.00000000       0.00000000       0.00000000       0.00000000       0.00000000       0.13630636
Sn       0.00000000       0.00000000       5.52323232       0.00000000       0.00000000      -0.13630636
2
Properties=species:S:1:pos:R:3:forces:R:3 energy=-1.7026373765488703 pbc="F F F"
Sn       0.00000000       0.00000000       0.00000000       0.00000000       0.00000000       0.10791890
Sn       0.00000000       0.00000000       5.58282828       0.00000000       0.00000000      -0.10791890
2
Properties=species:S:1:pos:R:3:forces:R:3 energy=-1.6969648456704944 pbc="F F F"
Sn       0.00000000       0.00000000       0.00000000       0.00000000       0.00000000       0.08307614
Sn       0.00000000       0.00000000       5.64242424       0.00000000       0.00000000      -0.08307614
2
Properties=species:S:1:pos:R:3:forces:R:3 energy=-1.6926614225130654 pbc="F F F"
Sn       0.00000000       0.00000000       0.00000000       0.00000000       0.00000000       0.06186068
Sn       0.00000000       0.00000000       5.70202020       0.00000000       0.00000000      -0.06186068
2
Properties=species:S:1:pos:R:3:forces:R:3 energy=-1.6895199899354039 pbc="F F F"
Sn       0.00000000       0.00000000       0.00000000       0.00000000       0.00000000       0.04426101
Sn       0.00000000       0.00000000       5.76161616       0.00000000       0.00000000      -0.04426101
2
Properties=species:S:1:pos:R:3:forces:R:3 energy=-1.687316033407619 pbc="F F F"
Sn       0.00000000       0.00000000       0.00000000       0.00000000       0.00000000       0.03024402
Sn       0.00000000       0.00000000       5.82121212       0.00000000       0.00000000      -0.03024402
2
Properties=species:S:1:pos:R:3:forces:R:3 energy=-1.6858443174585527 pbc="F F F"
Sn       0.00000000       0.00000000       0.00000000       0.00000000       0.00000000       0.01984281
Sn       0.00000000       0.00000000       5.88080808       0.00000000       0.00000000      -0.01984281
2
Properties=species:S:1:pos:R:3:forces:R:3 energy=-1.684875611911719 pbc="F F F"
Sn       0.00000000       0.00000000       0.00000000       0.00000000       0.00000000       0.01319104
Sn       0.00000000       0.00000000       5.94040404       0.00000000       0.00000000      -0.01319104
2
Properties=species:S:1:pos:R:3:forces:R:3 energy=-1.6841906114719334 pbc="F F F"
Sn       0.00000000       0.00000000       0.00000000       0.00000000       0.00000000       0.01052490
Sn       0.00000000       0.00000000       6.00000000       0.00000000       0.00000000      -0.01052490
