2
Properties=species:S:1:pos:R:3:forces:R:3 energy=28763.69156342823 pbc="F F F"
Sr       0.00000000       0.00000000       0.00000000       0.00000000       0.00000000 -672234.75000000
Sr       0.00000000       0.00000000       0.10000000       0.00000000       0.00000000  672234.75000000
2
Properties=species:S:1:pos:R:3:forces:R:3 energy=8716.603672803229 pbc="F F F"
Sr       0.00000000       0.00000000       0.00000000       0.00000000       0.00000000 -151862.10937500
Sr       0.00000000       0.00000000       0.15959596       0.00000000       0.00000000  151862.10937500
2
Properties=species:S:1:pos:R:3:forces:R:3 energy=3417.8219345219786 pbc="F F F"
Sr       0.00000000       0.00000000       0.00000000       0.00000000       0.00000000  -48819.76562500
Sr       0.00000000       0.00000000       0.21919192       0.00000000       0.00000000   48819.76562500
2
Properties=species:S:1:pos:R:3:forces:R:3 energy=1551.4682968266661 pbc="F F F"
Sr       0.00000000       0.00000000       0.00000000       0.00000000       0.00000000  -19164.13085938
Sr       0.00000000       0.00000000       0.27878788       0.00000000       0.00000000   19164.13085938
2
Properties=species:S:1:pos:R:3:forces:R:3 energy=775.9306991704162 pbc="F F F"
Sr       0.00000000       0.00000000       0.00000000       0.00000000       0.00000000   -8500.08691406
Sr       0.00000000       0.00000000       0.33838384       0.00000000       0.00000000    8500.08691406
2
Properties=species:S:1:pos:R:3:forces:R:3 energy=418.84412080127555 pbc="F F F"
Sr       0.00000000       0.00000000       0.00000000       0.00000000       0.00000000   -4084.13330078
Sr       0.00000000       0.00000000       0.39797980       0.00000000       0.00000000    4084.13330078
2
Properties=species:S:1:pos:R:3:forces:R:3 energy=242.6186264291812 pbc="F F F"
Sr       0.00000000       0.00000000       0.00000000       0.00000000       0.00000000   -2078.57104492
Sr       0.00000000       0.00000000       0.45757576       0.00000000       0.00000000    2078.57104492
2
Properties=species:S:1:pos:R:3:forces:R:3 energy=151.0357254345403 pbc="F F F"
Sr       0.00000000       0.00000000       0.00000000       0.00000000       0.00000000   -1106.69287109
Sr       0.00000000       0.00000000       0.51717172       0.00000000       0.00000000    1106.69287109
2
Properties=species:S:1:pos:R:3:forces:R:3 energy=101.42785344426989 pbc="F F F"
Sr       0.00000000       0.00000000       0.00000000       0.00000000       0.00000000    -611.42175293
Sr       0.00000000       0.00000000       0.57676768       0.00000000       0.00000000     611.42175293
2
Properties=species:S:1:pos:R:3:forces:R:3 energy=73.63406074500308 pbc="F F F"
Sr       0.00000000       0.00000000       0.00000000       0.00000000       0.00000000    -347.93237305
Sr       0.00000000       0.00000000       0.63636364       0.00000000       0.00000000     347.93237305
2
Properties=species:S:1:pos:R:3:forces:R:3 energy=57.65453809061012 pbc="F F F"
Sr       0.00000000       0.00000000       0.00000000       0.00000000       0.00000000    -202.16122437
Sr       0.00000000       0.00000000       0.69595960       0.00000000       0.00000000     202.16122437
2
Properties=species:S:1:pos:R:3:forces:R:3 energy=48.318890583630036 pbc="F F F"
Sr       0.00000000       0.00000000       0.00000000       0.00000000       0.00000000    -118.62174225
Sr       0.00000000       0.00000000       0.75555556       0.00000000       0.00000000     118.62174225
2
Properties=species:S:1:pos:R:3:forces:R:3 energy=42.842572338296634 pbc="F F F"
Sr       0.00000000       0.00000000       0.00000000       0.00000000       0.00000000     -69.39224243
Sr       0.00000000       0.00000000       0.81515152       0.00000000       0.00000000      69.39224243
2
Properties=species:S:1:pos:R:3:forces:R:3 energy=39.65937546886772 pbc="F F F"
Sr       0.00000000       0.00000000       0.00000000       0.00000000       0.00000000     -39.92315292
Sr       0.00000000       0.00000000       0.87474747       0.00000000       0.00000000      39.92315292
2
Properties=species:S:1:pos:R:3:forces:R:3 energy=37.85517267617494 pbc="F F F"
Sr       0.00000000       0.00000000       0.00000000       0.00000000       0.00000000     -22.06139755
Sr       0.00000000       0.00000000       0.93434343       0.00000000       0.00000000      22.06139755
2
Properties=species:S:1:pos:R:3:forces:R:3 energy=36.90278041483216 pbc="F F F"
Sr       0.00000000       0.00000000       0.00000000       0.00000000       0.00000000     -10.72101307
Sr       0.00000000       0.00000000       0.99393939       0.00000000       0.00000000      10.72101307
2
Properties=species:S:1:pos:R:3:forces:R:3 energy=36.44652397286524 pbc="F F F"
Sr       0.00000000       0.00000000       0.00000000       0.00000000       0.00000000      -6.58887434
Sr       0.00000000       0.00000000       1.05353535       0.00000000       0.00000000       6.58887434
2
Properties=species:S:1:pos:R:3:forces:R:3 energy=35.79990666000458 pbc="F F F"
Sr       0.00000000       0.00000000       0.00000000       0.00000000       0.00000000     -16.56541252
Sr       0.00000000       0.00000000       1.11313131       0.00000000       0.00000000      16.56541252
2
Properties=species:S:1:pos:R:3:forces:R:3 energy=34.542606083379845 pbc="F F F"
Sr       0.00000000       0.00000000       0.00000000       0.00000000       0.00000000     -24.78664780
Sr       0.00000000       0.00000000       1.17272727       0.00000000       0.00000000      24.78664780
2
Properties=species:S:1:pos:R:3:forces:R:3 energy=32.84614252683049 pbc="F F F"
Sr       0.00000000       0.00000000       0.00000000       0.00000000       0.00000000     -32.55392075
Sr       0.00000000       0.00000000       1.23232323       0.00000000       0.00000000      32.55392075
2
Properties=species:S:1:pos:R:3:forces:R:3 energy=30.623884272474974 pbc="F F F"
Sr       0.00000000       0.00000000       0.00000000       0.00000000       0.00000000     -42.15155411
Sr       0.00000000       0.00000000       1.29191919       0.00000000       0.00000000      42.15155411
2
Properties=species:S:1:pos:R:3:forces:R:3 energy=27.831229930568764 pbc="F F F"
Sr       0.00000000       0.00000000       0.00000000       0.00000000       0.00000000     -51.31886292
Sr       0.00000000       0.00000000       1.35151515       0.00000000       0.00000000      51.31886292
2
Properties=species:S:1:pos:R:3:forces:R:3 energy=24.550100200918884 pbc="F F F"
Sr       0.00000000       0.00000000       0.00000000       0.00000000       0.00000000     -58.36069489
Sr       0.00000000       0.00000000       1.41111111       0.00000000       0.00000000      58.36069489
2
Properties=species:S:1:pos:R:3:forces:R:3 energy=20.929253094123382 pbc="F F F"
Sr       0.00000000       0.00000000       0.00000000       0.00000000       0.00000000     -62.69757843
Sr       0.00000000       0.00000000       1.47070707       0.00000000       0.00000000      62.69757843
2
Properties=species:S:1:pos:R:3:forces:R:3 energy=17.13050628755432 pbc="F F F"
Sr       0.00000000       0.00000000       0.00000000       0.00000000       0.00000000     -64.33358765
Sr       0.00000000       0.00000000       1.53030303       0.00000000       0.00000000      64.33358765
2
Properties=species:S:1:pos:R:3:forces:R:3 energy=13.319757220288553 pbc="F F F"
Sr       0.00000000       0.00000000       0.00000000       0.00000000       0.00000000     -62.99470520
Sr       0.00000000       0.00000000       1.58989899       0.00000000       0.00000000      62.99470520
2
Properties=species:S:1:pos:R:3:forces:R:3 energy=9.698894128793166 pbc="F F F"
Sr       0.00000000       0.00000000       0.00000000       0.00000000       0.00000000     -57.80537796
Sr       0.00000000       0.00000000       1.64949495       0.00000000       0.00000000      57.80537796
2
Properties=species:S:1:pos:R:3:forces:R:3 energy=6.512028213548525 pbc="F F F"
Sr       0.00000000       0.00000000       0.00000000       0.00000000       0.00000000     -48.56971741
Sr       0.00000000       0.00000000       1.70909091       0.00000000       0.00000000      48.56971741
2
Properties=species:S:1:pos:R:3:forces:R:3 energy=3.951710762626936 pbc="F F F"
Sr       0.00000000       0.00000000       0.00000000       0.00000000       0.00000000     -37.23239899
Sr       0.00000000       0.00000000       1.76868687       0.00000000       0.00000000      37.23239899
2
Properties=species:S:1:pos:R:3:forces:R:3 energy=2.0728602552823006 pbc="F F F"
Sr       0.00000000       0.00000000       0.00000000       0.00000000       0.00000000     -25.86456871
Sr       0.00000000       0.00000000       1.82828283       0.00000000       0.00000000      25.86456871
2
Properties=species:S:1:pos:R:3:forces:R:3 energy=0.8675968279306377 pbc="F F F"
Sr       0.00000000       0.00000000       0.00000000       0.00000000       0.00000000     -14.60718060
Sr       0.00000000       0.00000000       1.88787879       0.00000000       0.00000000      14.60718060
2
Properties=species:S:1:pos:R:3:forces:R:3 energy=0.31011997835650995 pbc="F F F"
Sr       0.00000000       0.00000000       0.00000000       0.00000000       0.00000000      -4.51078796
Sr       0.00000000       0.00000000       1.94747475       0.00000000       0.00000000       4.51078796
2
Properties=species:S:1:pos:R:3:forces:R:3 energy=0.2581423200979011 pbc="F F F"
Sr       0.00000000       0.00000000       0.00000000       0.00000000       0.00000000       2.07091284
Sr       0.00000000       0.00000000       2.00707071       0.00000000       0.00000000      -2.07091284
2
Properties=species:S:1:pos:R:3:forces:R:3 energy=0.48121098566880277 pbc="F F F"
Sr       0.00000000       0.00000000       0.00000000       0.00000000       0.00000000       4.89905739
Sr       0.00000000       0.00000000       2.06666667       0.00000000       0.00000000      -4.89905739
2
Properties=species:S:1:pos:R:3:forces:R:3 energy=0.7967363220833131 pbc="F F F"
Sr       0.00000000       0.00000000       0.00000000       0.00000000       0.00000000       5.42750740
Sr       0.00000000       0.00000000       2.12626263       0.00000000       0.00000000      -5.42750740
2
Properties=species:S:1:pos:R:3:forces:R:3 energy=1.1069104042794697 pbc="F F F"
Sr       0.00000000       0.00000000       0.00000000       0.00000000       0.00000000       4.86887693
Sr       0.00000000       0.00000000       2.18585859       0.00000000       0.00000000      -4.86887693
2
Properties=species:S:1:pos:R:3:forces:R:3 energy=1.368807662282677 pbc="F F F"
Sr       0.00000000       0.00000000       0.00000000       0.00000000       0.00000000       3.88347101
Sr       0.00000000       0.00000000       2.24545455       0.00000000       0.00000000      -3.88347101
2
Properties=species:S:1:pos:R:3:forces:R:3 energy=1.5678318199127683 pbc="F F F"
Sr       0.00000000       0.00000000       0.00000000       0.00000000       0.00000000       2.79316592
Sr       0.00000000       0.00000000       2.30505051       0.00000000       0.00000000      -2.79316592
2
Properties=species:S:1:pos:R:3:forces:R:3 energy=1.702309045200036 pbc="F F F"
Sr       0.00000000       0.00000000       0.00000000       0.00000000       0.00000000       1.72919190
Sr       0.00000000       0.00000000       2.36464646       0.00000000       0.00000000      -1.72919190
2
Properties=species:S:1:pos:R:3:forces:R:3 energy=1.775296170775393 pbc="F F F"
Sr       0.00000000       0.00000000       0.00000000       0.00000000       0.00000000       0.73299277
Sr       0.00000000       0.00000000       2.42424242       0.00000000       0.00000000      -0.73299277
2
Properties=species:S:1:pos:R:3:forces:R:3 energy=1.7913152433189083 pbc="F F F"
Sr       0.00000000       0.00000000       0.00000000       0.00000000       0.00000000      -0.18063094
Sr       0.00000000       0.00000000       2.48383838       0.00000000       0.00000000       0.18063094
2
Properties=species:S:1:pos:R:3:forces:R:3 energy=1.7556949429201956 pbc="F F F"
Sr       0.00000000       0.00000000       0.00000000       0.00000000       0.00000000      -0.99708790
Sr       0.00000000       0.00000000       2.54343434       0.00000000       0.00000000       0.99708790
2
Properties=species:S:1:pos:R:3:forces:R:3 energy=1.6747590466295468 pbc="F F F"
Sr       0.00000000       0.00000000       0.00000000       0.00000000       0.00000000      -1.69846022
Sr       0.00000000       0.00000000       2.60303030       0.00000000       0.00000000       1.69846022
2
Properties=species:S:1:pos:R:3:forces:R:3 energy=1.5558515055902968 pbc="F F F"
Sr       0.00000000       0.00000000       0.00000000       0.00000000       0.00000000      -2.26925611
Sr       0.00000000       0.00000000       2.66262626       0.00000000       0.00000000       2.26925611
2
Properties=species:S:1:pos:R:3:forces:R:3 energy=1.407027462063904 pbc="F F F"
Sr       0.00000000       0.00000000       0.00000000       0.00000000       0.00000000      -2.70210743
Sr       0.00000000       0.00000000       2.72222222       0.00000000       0.00000000       2.70210743
2
Properties=species:S:1:pos:R:3:forces:R:3 energy=1.236477442050891 pbc="F F F"
Sr       0.00000000       0.00000000       0.00000000       0.00000000       0.00000000      -2.99960947
Sr       0.00000000       0.00000000       2.78181818       0.00000000       0.00000000       2.99960947
2
Properties=species:S:1:pos:R:3:forces:R:3 energy=1.051985374007699 pbc="F F F"
Sr       0.00000000       0.00000000       0.00000000       0.00000000       0.00000000      -3.17209649
Sr       0.00000000       0.00000000       2.84141414       0.00000000       0.00000000       3.17209649
2
Properties=species:S:1:pos:R:3:forces:R:3 energy=0.8605916273666874 pbc="F F F"
Sr       0.00000000       0.00000000       0.00000000       0.00000000       0.00000000      -3.23371768
Sr       0.00000000       0.00000000       2.90101010       0.00000000       0.00000000       3.23371768
2
Properties=species:S:1:pos:R:3:forces:R:3 energy=0.668457229403536 pbc="F F F"
Sr       0.00000000       0.00000000       0.00000000       0.00000000       0.00000000      -3.19946742
Sr       0.00000000       0.00000000       2.96060606       0.00000000       0.00000000       3.19946742
2
Properties=species:S:1:pos:R:3:forces:R:3 energy=0.4808476185117995 pbc="F F F"
Sr       0.00000000       0.00000000       0.00000000       0.00000000       0.00000000      -3.08436584
Sr       0.00000000       0.00000000       3.02020202       0.00000000       0.00000000       3.08436584
2
Properties=species:S:1:pos:R:3:forces:R:3 energy=0.30212494136448986 pbc="F F F"
Sr       0.00000000       0.00000000       0.00000000       0.00000000       0.00000000      -2.90392327
Sr       0.00000000       0.00000000       3.07979798       0.00000000       0.00000000       2.90392327
2
Properties=species:S:1:pos:R:3:forces:R:3 energy=0.1356991267741802 pbc="F F F"
Sr       0.00000000       0.00000000       0.00000000       0.00000000       0.00000000      -2.67433715
Sr       0.00000000       0.00000000       3.13939394       0.00000000       0.00000000       2.67433715
2
Properties=species:S:1:pos:R:3:forces:R:3 energy=-0.015978869806739918 pbc="F F F"
Sr       0.00000000       0.00000000       0.00000000       0.00000000       0.00000000      -2.41166854
Sr       0.00000000       0.00000000       3.19898990       0.00000000       0.00000000       2.41166854
2
Properties=species:S:1:pos:R:3:forces:R:3 energy=-0.1513854415622659 pbc="F F F"
Sr       0.00000000       0.00000000       0.00000000       0.00000000       0.00000000      -2.13043141
Sr       0.00000000       0.00000000       3.25858586       0.00000000       0.00000000       2.13043141
2
Properties=species:S:1:pos:R:3:forces:R:3 energy=-0.26978308008198065 pbc="F F F"
Sr       0.00000000       0.00000000       0.00000000       0.00000000       0.00000000      -1.84272802
Sr       0.00000000       0.00000000       3.31818182       0.00000000       0.00000000       1.84272802
2
Properties=species:S:1:pos:R:3:forces:R:3 energy=-0.371090873828864 pbc="F F F"
Sr       0.00000000       0.00000000       0.00000000       0.00000000       0.00000000      -1.55838346
Sr       0.00000000       0.00000000       3.37777778       0.00000000       0.00000000       1.55838346
2
Properties=species:S:1:pos:R:3:forces:R:3 energy=-0.45576204381301544 pbc="F F F"
Sr       0.00000000       0.00000000       0.00000000       0.00000000       0.00000000      -1.28573942
Sr       0.00000000       0.00000000       3.43737374       0.00000000       0.00000000       1.28573942
2
Properties=species:S:1:pos:R:3:forces:R:3 energy=-0.5247251830393429 pbc="F F F"
Sr       0.00000000       0.00000000       0.00000000       0.00000000       0.00000000      -1.03244519
Sr       0.00000000       0.00000000       3.49696970       0.00000000       0.00000000       1.03244519
2
Properties=species:S:1:pos:R:3:forces:R:3 energy=-0.5793504800348818 pbc="F F F"
Sr       0.00000000       0.00000000       0.00000000       0.00000000       0.00000000      -0.80573648
Sr       0.00000000       0.00000000       3.55656566       0.00000000       0.00000000       0.80573648
2
Properties=species:S:1:pos:R:3:forces:R:3 energy=-0.6214166328911888 pbc="F F F"
Sr       0.00000000       0.00000000       0.00000000       0.00000000       0.00000000      -0.61188054
Sr       0.00000000       0.00000000       3.61616162       0.00000000       0.00000000       0.61188054
2
Properties=species:S:1:pos:R:3:forces:R:3 energy=-0.6530156925727998 pbc="F F F"
Sr       0.00000000       0.00000000       0.00000000       0.00000000       0.00000000      -0.45485577
Sr       0.00000000       0.00000000       3.67575758       0.00000000       0.00000000       0.45485577
2
Properties=species:S:1:pos:R:3:forces:R:3 energy=-0.6763708951955927 pbc="F F F"
Sr       0.00000000       0.00000000       0.00000000       0.00000000       0.00000000      -0.33486810
Sr       0.00000000       0.00000000       3.73535354       0.00000000       0.00000000       0.33486810
2
Properties=species:S:1:pos:R:3:forces:R:3 energy=-0.693582882120363 pbc="F F F"
Sr       0.00000000       0.00000000       0.00000000       0.00000000       0.00000000      -0.24763586
Sr       0.00000000       0.00000000       3.79494949       0.00000000       0.00000000       0.24763586
2
Properties=species:S:1:pos:R:3:forces:R:3 energy=-0.706379891470936 pbc="F F F"
Sr       0.00000000       0.00000000       0.00000000       0.00000000       0.00000000      -0.18516818
Sr       0.00000000       0.00000000       3.85454545       0.00000000       0.00000000       0.18516818
2
Properties=species:S:1:pos:R:3:forces:R:3 energy=-0.7159540921314618 pbc="F F F"
Sr       0.00000000       0.00000000       0.00000000       0.00000000       0.00000000      -0.13788189
Sr       0.00000000       0.00000000       3.91414141       0.00000000       0.00000000       0.13788189
2
Properties=species:S:1:pos:R:3:forces:R:3 energy=-0.7229417276808359 pbc="F F F"
Sr       0.00000000       0.00000000       0.00000000       0.00000000       0.00000000      -0.09710588
Sr       0.00000000       0.00000000       3.97373737       0.00000000       0.00000000       0.09710588
2
Properties=species:S:1:pos:R:3:forces:R:3 energy=-0.7275382482809327 pbc="F F F"
Sr       0.00000000       0.00000000       0.00000000       0.00000000       0.00000000      -0.05694815
Sr       0.00000000       0.00000000       4.03333333       0.00000000       0.00000000       0.05694815
2
Properties=species:S:1:pos:R:3:forces:R:3 energy=-0.7296904863803262 pbc="F F F"
Sr       0.00000000       0.00000000       0.00000000       0.00000000       0.00000000      -0.01492941
Sr       0.00000000       0.00000000       4.09292929       0.00000000       0.00000000       0.01492941
2
Properties=species:S:1:pos:R:3:forces:R:3 energy=-0.7292875432024868 pbc="F F F"
Sr       0.00000000       0.00000000       0.00000000       0.00000000       0.00000000       0.02854471
Sr       0.00000000       0.00000000       4.15252525       0.00000000       0.00000000      -0.02854471
2
Properties=species:S:1:pos:R:3:forces:R:3 energy=-0.7262986504655911 pbc="F F F"
Sr       0.00000000       0.00000000       0.00000000       0.00000000       0.00000000       0.07148544
Sr       0.00000000       0.00000000       4.21212121       0.00000000       0.00000000      -0.07148544
2
Properties=species:S:1:pos:R:3:forces:R:3 energy=-0.7208173916261523 pbc="F F F"
Sr       0.00000000       0.00000000       0.00000000       0.00000000       0.00000000       0.11194871
Sr       0.00000000       0.00000000       4.27171717       0.00000000       0.00000000      -0.11194871
2
Properties=species:S:1:pos:R:3:forces:R:3 energy=-0.713014314345837 pbc="F F F"
Sr       0.00000000       0.00000000       0.00000000       0.00000000       0.00000000       0.14953241
Sr       0.00000000       0.00000000       4.33131313       0.00000000       0.00000000      -0.14953241
2
Properties=species:S:1:pos:R:3:forces:R:3 energy=-0.7030168983306774 pbc="F F F"
Sr       0.00000000       0.00000000       0.00000000       0.00000000       0.00000000       0.18603122
Sr       0.00000000       0.00000000       4.39090909       0.00000000       0.00000000      -0.18603122
2
Properties=species:S:1:pos:R:3:forces:R:3 energy=-0.6908045065384962 pbc="F F F"
Sr       0.00000000       0.00000000       0.00000000       0.00000000       0.00000000       0.22429900
Sr       0.00000000       0.00000000       4.45050505       0.00000000       0.00000000      -0.22429900
2
Properties=species:S:1:pos:R:3:forces:R:3 energy=-0.676216429052908 pbc="F F F"
Sr       0.00000000       0.00000000       0.00000000       0.00000000       0.00000000       0.26577544
Sr       0.00000000       0.00000000       4.51010101       0.00000000       0.00000000      -0.26577544
2
Properties=species:S:1:pos:R:3:forces:R:3 energy=-0.6590881264619218 pbc="F F F"
Sr       0.00000000       0.00000000       0.00000000       0.00000000       0.00000000       0.30909720
Sr       0.00000000       0.00000000       4.56969697       0.00000000       0.00000000      -0.30909720
2
Properties=species:S:1:pos:R:3:forces:R:3 energy=-0.6393982731152473 pbc="F F F"
Sr       0.00000000       0.00000000       0.00000000       0.00000000       0.00000000       0.35122475
Sr       0.00000000       0.00000000       4.62929293       0.00000000       0.00000000      -0.35122475
2
Properties=species:S:1:pos:R:3:forces:R:3 energy=-0.6173049021185189 pbc="F F F"
Sr       0.00000000       0.00000000       0.00000000       0.00000000       0.00000000       0.38940594
Sr       0.00000000       0.00000000       4.68888889       0.00000000       0.00000000      -0.38940594
2
Properties=species:S:1:pos:R:3:forces:R:3 energy=-0.5930954261692272 pbc="F F F"
Sr       0.00000000       0.00000000       0.00000000       0.00000000       0.00000000       0.42201865
Sr       0.00000000       0.00000000       4.74848485       0.00000000       0.00000000      -0.42201865
2
Properties=species:S:1:pos:R:3:forces:R:3 energy=-0.5671287011822042 pbc="F F F"
Sr       0.00000000       0.00000000       0.00000000       0.00000000       0.00000000       0.44835424
Sr       0.00000000       0.00000000       4.80808081       0.00000000       0.00000000      -0.44835424
2
Properties=species:S:1:pos:R:3:forces:R:3 energy=-0.5397845565471621 pbc="F F F"
Sr       0.00000000       0.00000000       0.00000000       0.00000000       0.00000000       0.46817377
Sr       0.00000000       0.00000000       4.86767677       0.00000000       0.00000000      -0.46817377
2
Properties=species:S:1:pos:R:3:forces:R:3 energy=-0.5114552094170824 pbc="F F F"
Sr       0.00000000       0.00000000       0.00000000       0.00000000       0.00000000       0.48143858
Sr       0.00000000       0.00000000       4.92727273       0.00000000       0.00000000      -0.48143858
2
Properties=species:S:1:pos:R:3:forces:R:3 energy=-0.4825297814474523 pbc="F F F"
Sr       0.00000000       0.00000000       0.00000000       0.00000000       0.00000000       0.48820511
Sr       0.00000000       0.00000000       4.98686869       0.00000000       0.00000000      -0.48820511
2
Properties=species:S:1:pos:R:3:forces:R:3 energy=-0.4533953470779082 pbc="F F F"
Sr       0.00000000       0.00000000       0.00000000       0.00000000       0.00000000       0.48856938
Sr       0.00000000       0.00000000       5.04646465       0.00000000       0.00000000      -0.48856938
2
Properties=species:S:1:pos:R:3:forces:R:3 energy=-0.42442377544971865 pbc="F F F"
Sr       0.00000000       0.00000000       0.00000000       0.00000000       0.00000000       0.48261642
Sr       0.00000000       0.00000000       5.10606061       0.00000000       0.00000000      -0.48261642
2
Properties=species:S:1:pos:R:3:forces:R:3 energy=-0.39599149921769616 pbc="F F F"
Sr       0.00000000       0.00000000       0.00000000       0.00000000       0.00000000       0.47036198
Sr       0.00000000       0.00000000       5.16565657       0.00000000       0.00000000      -0.47036198
2
Properties=species:S:1:pos:R:3:forces:R:3 energy=-0.3684827468967401 pbc="F F F"
Sr       0.00000000       0.00000000       0.00000000       0.00000000       0.00000000       0.45181230
Sr       0.00000000       0.00000000       5.22525253       0.00000000       0.00000000      -0.45181230
2
Properties=species:S:1:pos:R:3:forces:R:3 energy=-0.3422646711942421 pbc="F F F"
Sr       0.00000000       0.00000000       0.00000000       0.00000000       0.00000000       0.42706007
Sr       0.00000000       0.00000000       5.28484848       0.00000000       0.00000000      -0.42706007
2
Properties=species:S:1:pos:R:3:forces:R:3 energy=-0.31769709135992935 pbc="F F F"
Sr       0.00000000       0.00000000       0.00000000       0.00000000       0.00000000       0.39643958
Sr       0.00000000       0.00000000       5.34444444       0.00000000       0.00000000      -0.39643958
2
Properties=species:S:1:pos:R:3:forces:R:3 energy=-0.29511436710836136 pbc="F F F"
Sr       0.00000000       0.00000000       0.00000000       0.00000000       0.00000000       0.36061275
Sr       0.00000000       0.00000000       5.40404040       0.00000000       0.00000000      -0.36061275
2
Properties=species:S:1:pos:R:3:forces:R:3 energy=-0.27479255854762064 pbc="F F F"
Sr       0.00000000       0.00000000       0.00000000       0.00000000       0.00000000       0.32066366
Sr       0.00000000       0.00000000       5.46363636       0.00000000       0.00000000      -0.32066366
2
Properties=species:S:1:pos:R:3:forces:R:3 energy=-0.2569529386056725 pbc="F F F"
Sr       0.00000000       0.00000000       0.00000000       0.00000000       0.00000000       0.27798960
Sr       0.00000000       0.00000000       5.52323232       0.00000000       0.00000000      -0.27798960
2
Properties=species:S:1:pos:R:3:forces:R:3 energy=-0.24168597374762985 pbc="F F F"
Sr       0.00000000       0.00000000       0.00000000       0.00000000       0.00000000       0.23426518
Sr       0.00000000       0.00000000       5.58282828       0.00000000       0.00000000      -0.23426518
2
Properties=species:S:1:pos:R:3:forces:R:3 energy=-0.2290149306972456 pbc="F F F"
Sr       0.00000000       0.00000000       0.00000000       0.00000000       0.00000000       0.19129106
Sr       0.00000000       0.00000000       5.64242424       0.00000000       0.00000000      -0.19129106
2
Properties=species:S:1:pos:R:3:forces:R:3 energy=-0.21882995228389662 pbc="F F F"
Sr       0.00000000       0.00000000       0.00000000       0.00000000       0.00000000       0.15085948
Sr       0.00000000       0.00000000       5.70202020       0.00000000       0.00000000      -0.15085948
2
Properties=species:S:1:pos:R:3:forces:R:3 energy=-0.21094964698564952 pbc="F F F"
Sr       0.00000000       0.00000000       0.00000000       0.00000000       0.00000000       0.11467095
Sr       0.00000000       0.00000000       5.76161616       0.00000000       0.00000000      -0.11467095
2
Properties=species:S:1:pos:R:3:forces:R:3 energy=-0.20505179467187928 pbc="F F F"
Sr       0.00000000       0.00000000       0.00000000       0.00000000       0.00000000       0.08423148
Sr       0.00000000       0.00000000       5.82121212       0.00000000       0.00000000      -0.08423148
2
Properties=species:S:1:pos:R:3:forces:R:3 energy=-0.20077153233630618 pbc="F F F"
Sr       0.00000000       0.00000000       0.00000000       0.00000000       0.00000000       0.06091756
Sr       0.00000000       0.00000000       5.88080808       0.00000000       0.00000000      -0.06091756
2
Properties=species:S:1:pos:R:3:forces:R:3 energy=-0.19762426734628896 pbc="F F F"
Sr       0.00000000       0.00000000       0.00000000       0.00000000       0.00000000       0.04588846
Sr       0.00000000       0.00000000       5.94040404       0.00000000       0.00000000      -0.04588846
2
Properties=species:S:1:pos:R:3:forces:R:3 energy=-0.19511252475025537 pbc="F F F"
Sr       0.00000000       0.00000000       0.00000000       0.00000000       0.00000000       0.04012058
Sr       0.00000000       0.00000000       6.00000000       0.00000000       0.00000000      -0.04012058
