2
Properties=species:S:1:pos:R:3:forces:R:3 energy=75151.88717351788 pbc="F F F"
Yb       0.00000000       0.00000000       0.00000000       0.00000000       0.00000000 -1884118.50000000
Yb       0.00000000       0.00000000       0.10000000       0.00000000       0.00000000 1884118.50000000
2
Properties=species:S:1:pos:R:3:forces:R:3 energy=20881.00045476788 pbc="F F F"
Yb       0.00000000       0.00000000       0.00000000       0.00000000       0.00000000 -390953.96875000
Yb       0.00000000       0.00000000       0.15959596       0.00000000       0.00000000  390953.96875000
2
Properties=species:S:1:pos:R:3:forces:R:3 energy=7593.752407892882 pbc="F F F"
Yb       0.00000000       0.00000000       0.00000000       0.00000000       0.00000000 -117992.91406250
Yb       0.00000000       0.00000000       0.21919192       0.00000000       0.00000000  117992.91406250
2
Properties=species:S:1:pos:R:3:forces:R:3 energy=3197.0038727366314 pbc="F F F"
Yb       0.00000000       0.00000000       0.00000000       0.00000000       0.00000000  -43554.63671875
Yb       0.00000000       0.00000000       0.27878788       0.00000000       0.00000000   43554.63671875
2
Properties=species:S:1:pos:R:3:forces:R:3 energy=1482.3009918835921 pbc="F F F"
Yb       0.00000000       0.00000000       0.00000000       0.00000000       0.00000000  -18115.57421875
Yb       0.00000000       0.00000000       0.33838384       0.00000000       0.00000000   18115.57421875
2
Properties=species:S:1:pos:R:3:forces:R:3 energy=742.1833771374984 pbc="F F F"
Yb       0.00000000       0.00000000       0.00000000       0.00000000       0.00000000   -8171.92529297
Yb       0.00000000       0.00000000       0.39797980       0.00000000       0.00000000    8171.92529297
2
Properties=species:S:1:pos:R:3:forces:R:3 energy=398.59710394413895 pbc="F F F"
Yb       0.00000000       0.00000000       0.00000000       0.00000000       0.00000000   -3927.61059570
Yb       0.00000000       0.00000000       0.45757576       0.00000000       0.00000000    3927.61059570
2
Properties=species:S:1:pos:R:3:forces:R:3 energy=229.3691376482165 pbc="F F F"
Yb       0.00000000       0.00000000       0.00000000       0.00000000       0.00000000   -1992.61743164
Yb       0.00000000       0.00000000       0.51717172       0.00000000       0.00000000    1992.61743164
2
Properties=species:S:1:pos:R:3:forces:R:3 energy=141.6229523708247 pbc="F F F"
Yb       0.00000000       0.00000000       0.00000000       0.00000000       0.00000000   -1060.46533203
Yb       0.00000000       0.00000000       0.57676768       0.00000000       0.00000000    1060.46533203
2
Properties=species:S:1:pos:R:3:forces:R:3 energy=93.99931044106512 pbc="F F F"
Yb       0.00000000       0.00000000       0.00000000       0.00000000       0.00000000    -589.09002686
Yb       0.00000000       0.00000000       0.63636364       0.00000000       0.00000000     589.09002686
2
Properties=species:S:1:pos:R:3:forces:R:3 energy=67.0584001650661 pbc="F F F"
Yb       0.00000000       0.00000000       0.00000000       0.00000000       0.00000000    -340.61093140
Yb       0.00000000       0.00000000       0.69595960       0.00000000       0.00000000     340.61093140
2
Properties=species:S:1:pos:R:3:forces:R:3 energy=51.18103514779608 pbc="F F F"
Yb       0.00000000       0.00000000       0.00000000       0.00000000       0.00000000    -205.65397644
Yb       0.00000000       0.00000000       0.75555556       0.00000000       0.00000000     205.65397644
2
Properties=species:S:1:pos:R:3:forces:R:3 energy=41.34802747468025 pbc="F F F"
Yb       0.00000000       0.00000000       0.00000000       0.00000000       0.00000000    -131.81781006
Yb       0.00000000       0.00000000       0.81515152       0.00000000       0.00000000     131.81781006
2
Properties=species:S:1:pos:R:3:forces:R:3 energy=34.7831053446572 pbc="F F F"
Yb       0.00000000       0.00000000       0.00000000       0.00000000       0.00000000     -92.91036224
Yb       0.00000000       0.00000000       0.87474747       0.00000000       0.00000000      92.91036224
2
Properties=species:S:1:pos:R:3:forces:R:3 energy=29.861196303821444 pbc="F F F"
Yb       0.00000000       0.00000000       0.00000000       0.00000000       0.00000000     -74.94364929
Yb       0.00000000       0.00000000       0.93434343       0.00000000       0.00000000      74.94364929
2
Properties=species:S:1:pos:R:3:forces:R:3 energy=25.60592288399731 pbc="F F F"
Yb       0.00000000       0.00000000       0.00000000       0.00000000       0.00000000     -69.35060120
Yb       0.00000000       0.00000000       0.99393939       0.00000000       0.00000000      69.35060120
2
Properties=species:S:1:pos:R:3:forces:R:3 energy=21.476757766777368 pbc="F F F"
Yb       0.00000000       0.00000000       0.00000000       0.00000000       0.00000000     -69.74889374
Yb       0.00000000       0.00000000       1.05353535       0.00000000       0.00000000      69.74889374
2
Properties=species:S:1:pos:R:3:forces:R:3 energy=17.27785446423652 pbc="F F F"
Yb       0.00000000       0.00000000       0.00000000       0.00000000       0.00000000     -70.92530060
Yb       0.00000000       0.00000000       1.11313131       0.00000000       0.00000000      70.92530060
2
Properties=species:S:1:pos:R:3:forces:R:3 energy=13.084661025239903 pbc="F F F"
Yb       0.00000000       0.00000000       0.00000000       0.00000000       0.00000000     -69.06896973
Yb       0.00000000       0.00000000       1.17272727       0.00000000       0.00000000      69.06896973
2
Properties=species:S:1:pos:R:3:forces:R:3 energy=9.14423639422345 pbc="F F F"
Yb       0.00000000       0.00000000       0.00000000       0.00000000       0.00000000     -62.30567551
Yb       0.00000000       0.00000000       1.23232323       0.00000000       0.00000000      62.30567551
2
Properties=species:S:1:pos:R:3:forces:R:3 energy=5.751894940189163 pbc="F F F"
Yb       0.00000000       0.00000000       0.00000000       0.00000000       0.00000000     -50.91737366
Yb       0.00000000       0.00000000       1.29191919       0.00000000       0.00000000      50.91737366
2
Properties=species:S:1:pos:R:3:forces:R:3 energy=3.1143427862228767 pbc="F F F"
Yb       0.00000000       0.00000000       0.00000000       0.00000000       0.00000000     -37.61149597
Yb       0.00000000       0.00000000       1.35151515       0.00000000       0.00000000      37.61149597
2
Properties=species:S:1:pos:R:3:forces:R:3 energy=1.2331777958027508 pbc="F F F"
Yb       0.00000000       0.00000000       0.00000000       0.00000000       0.00000000     -25.99146843
Yb       0.00000000       0.00000000       1.41111111       0.00000000       0.00000000      25.99146843
2
Properties=species:S:1:pos:R:3:forces:R:3 energy=-0.037118605147417286 pbc="F F F"
Yb       0.00000000       0.00000000       0.00000000       0.00000000       0.00000000     -16.96835518
Yb       0.00000000       0.00000000       1.47070707       0.00000000       0.00000000      16.96835518
2
Properties=species:S:1:pos:R:3:forces:R:3 energy=-0.8095349619503445 pbc="F F F"
Yb       0.00000000       0.00000000       0.00000000       0.00000000       0.00000000      -8.99948406
Yb       0.00000000       0.00000000       1.53030303       0.00000000       0.00000000       8.99948406
2
Properties=species:S:1:pos:R:3:forces:R:3 energy=-1.1130279634935398 pbc="F F F"
Yb       0.00000000       0.00000000       0.00000000       0.00000000       0.00000000      -1.26831591
Yb       0.00000000       0.00000000       1.58989899       0.00000000       0.00000000       1.26831591
2
Properties=species:S:1:pos:R:3:forces:R:3 energy=-0.9858639443801831 pbc="F F F"
Yb       0.00000000       0.00000000       0.00000000       0.00000000       0.00000000       5.18504667
Yb       0.00000000       0.00000000       1.64949495       0.00000000       0.00000000      -5.18504667
2
Properties=species:S:1:pos:R:3:forces:R:3 energy=-0.5495608280209671 pbc="F F F"
Yb       0.00000000       0.00000000       0.00000000       0.00000000       0.00000000       8.93576241
Yb       0.00000000       0.00000000       1.70909091       0.00000000       0.00000000      -8.93576241
2
Properties=species:S:1:pos:R:3:forces:R:3 energy=0.017825390716549774 pbc="F F F"
Yb       0.00000000       0.00000000       0.00000000       0.00000000       0.00000000       9.63652420
Yb       0.00000000       0.00000000       1.76868687       0.00000000       0.00000000      -9.63652420
2
Properties=species:S:1:pos:R:3:forces:R:3 energy=0.5537489310902598 pbc="F F F"
Yb       0.00000000       0.00000000       0.00000000       0.00000000       0.00000000       8.07569313
Yb       0.00000000       0.00000000       1.82828283       0.00000000       0.00000000      -8.07569313
2
Properties=species:S:1:pos:R:3:forces:R:3 energy=0.9619868069358797 pbc="F F F"
Yb       0.00000000       0.00000000       0.00000000       0.00000000       0.00000000       5.58403683
Yb       0.00000000       0.00000000       1.88787879       0.00000000       0.00000000      -5.58403683
2
Properties=species:S:1:pos:R:3:forces:R:3 energy=1.2246610328329919 pbc="F F F"
Yb       0.00000000       0.00000000       0.00000000       0.00000000       0.00000000       3.33184290
Yb       0.00000000       0.00000000       1.94747475       0.00000000       0.00000000      -3.33184290
2
Properties=species:S:1:pos:R:3:forces:R:3 energy=1.372678628152482 pbc="F F F"
Yb       0.00000000       0.00000000       0.00000000       0.00000000       0.00000000       1.74237442
Yb       0.00000000       0.00000000       2.00707071       0.00000000       0.00000000      -1.74237442
2
Properties=species:S:1:pos:R:3:forces:R:3 energy=1.4426876124407122 pbc="F F F"
Yb       0.00000000       0.00000000       0.00000000       0.00000000       0.00000000       0.67338908
Yb       0.00000000       0.00000000       2.06666667       0.00000000       0.00000000      -0.67338908
2
Properties=species:S:1:pos:R:3:forces:R:3 energy=1.4589088958065524 pbc="F F F"
Yb       0.00000000       0.00000000       0.00000000       0.00000000       0.00000000      -0.09163249
Yb       0.00000000       0.00000000       2.12626263       0.00000000       0.00000000       0.09163249
2
Properties=species:S:1:pos:R:3:forces:R:3 energy=1.4351993073827507 pbc="F F F"
Yb       0.00000000       0.00000000       0.00000000       0.00000000       0.00000000      -0.68185735
Yb       0.00000000       0.00000000       2.18585859       0.00000000       0.00000000       0.68185735
2
Properties=species:S:1:pos:R:3:forces:R:3 energy=1.3797317722085822 pbc="F F F"
Yb       0.00000000       0.00000000       0.00000000       0.00000000       0.00000000      -1.16573763
Yb       0.00000000       0.00000000       2.24545455       0.00000000       0.00000000       1.16573763
2
Properties=species:S:1:pos:R:3:forces:R:3 energy=1.2975909921395072 pbc="F F F"
Yb       0.00000000       0.00000000       0.00000000       0.00000000       0.00000000      -1.58161652
Yb       0.00000000       0.00000000       2.30505051       0.00000000       0.00000000       1.58161652
2
Properties=species:S:1:pos:R:3:forces:R:3 energy=1.192180868733475 pbc="F F F"
Yb       0.00000000       0.00000000       0.00000000       0.00000000       0.00000000      -1.94833708
Yb       0.00000000       0.00000000       2.36464646       0.00000000       0.00000000       1.94833708
2
Properties=species:S:1:pos:R:3:forces:R:3 energy=1.0662820595436822 pbc="F F F"
Yb       0.00000000       0.00000000       0.00000000       0.00000000       0.00000000      -2.26843905
Yb       0.00000000       0.00000000       2.42424242       0.00000000       0.00000000       2.26843905
2
Properties=species:S:1:pos:R:3:forces:R:3 energy=0.922920554841221 pbc="F F F"
Yb       0.00000000       0.00000000       0.00000000       0.00000000       0.00000000      -2.53207922
Yb       0.00000000       0.00000000       2.48383838       0.00000000       0.00000000       2.53207922
2
Properties=species:S:1:pos:R:3:forces:R:3 energy=0.7659029601713361 pbc="F F F"
Yb       0.00000000       0.00000000       0.00000000       0.00000000       0.00000000      -2.72417736
Yb       0.00000000       0.00000000       2.54343434       0.00000000       0.00000000       2.72417736
2
Properties=species:S:1:pos:R:3:forces:R:3 energy=0.5998837977489133 pbc="F F F"
Yb       0.00000000       0.00000000       0.00000000       0.00000000       0.00000000      -2.83286071
Yb       0.00000000       0.00000000       2.60303030       0.00000000       0.00000000       2.83286071
2
Properties=species:S:1:pos:R:3:forces:R:3 energy=0.4299699712037034 pbc="F F F"
Yb       0.00000000       0.00000000       0.00000000       0.00000000       0.00000000      -2.85514140
Yb       0.00000000       0.00000000       2.66262626       0.00000000       0.00000000       2.85514140
2
Properties=species:S:1:pos:R:3:forces:R:3 energy=0.26117145926151375 pbc="F F F"
Yb       0.00000000       0.00000000       0.00000000       0.00000000       0.00000000      -2.79717112
Yb       0.00000000       0.00000000       2.72222222       0.00000000       0.00000000       2.79717112
2
Properties=species:S:1:pos:R:3:forces:R:3 energy=0.09793821253687597 pbc="F F F"
Yb       0.00000000       0.00000000       0.00000000       0.00000000       0.00000000      -2.67041636
Yb       0.00000000       0.00000000       2.78181818       0.00000000       0.00000000       2.67041636
2
Properties=species:S:1:pos:R:3:forces:R:3 energy=-0.056001124318401097 pbc="F F F"
Yb       0.00000000       0.00000000       0.00000000       0.00000000       0.00000000      -2.48723912
Yb       0.00000000       0.00000000       2.84141414       0.00000000       0.00000000       2.48723912
2
Properties=species:S:1:pos:R:3:forces:R:3 energy=-0.19761757977494482 pbc="F F F"
Yb       0.00000000       0.00000000       0.00000000       0.00000000       0.00000000      -2.25855565
Yb       0.00000000       0.00000000       2.90101010       0.00000000       0.00000000       2.25855565
2
Properties=species:S:1:pos:R:3:forces:R:3 energy=-0.32448441683880347 pbc="F F F"
Yb       0.00000000       0.00000000       0.00000000       0.00000000       0.00000000      -1.99373293
Yb       0.00000000       0.00000000       2.96060606       0.00000000       0.00000000       1.99373293
2
Properties=species:S:1:pos:R:3:forces:R:3 energy=-0.43471052369295804 pbc="F F F"
Yb       0.00000000       0.00000000       0.00000000       0.00000000       0.00000000      -1.70156395
Yb       0.00000000       0.00000000       3.02020202       0.00000000       0.00000000       1.70156395
2
Properties=species:S:1:pos:R:3:forces:R:3 energy=-0.5269379937275375 pbc="F F F"
Yb       0.00000000       0.00000000       0.00000000       0.00000000       0.00000000      -1.39132309
Yb       0.00000000       0.00000000       3.07979798       0.00000000       0.00000000       1.39132309
2
Properties=species:S:1:pos:R:3:forces:R:3 energy=-0.6003925272486477 pbc="F F F"
Yb       0.00000000       0.00000000       0.00000000       0.00000000       0.00000000      -1.07342243
Yb       0.00000000       0.00000000       3.13939394       0.00000000       0.00000000       1.07342243
2
Properties=species:S:1:pos:R:3:forces:R:3 energy=-0.654960271952929 pbc="F F F"
Yb       0.00000000       0.00000000       0.00000000       0.00000000       0.00000000      -0.75954682
Yb       0.00000000       0.00000000       3.19898990       0.00000000       0.00000000       0.75954682
2
Properties=species:S:1:pos:R:3:forces:R:3 energy=-0.6912524186473533 pbc="F F F"
Yb       0.00000000       0.00000000       0.00000000       0.00000000       0.00000000      -0.46218887
Yb       0.00000000       0.00000000       3.25858586       0.00000000       0.00000000       0.46218887
2
Properties=species:S:1:pos:R:3:forces:R:3 energy=-0.7106225048951945 pbc="F F F"
Yb       0.00000000       0.00000000       0.00000000       0.00000000       0.00000000      -0.19360746
Yb       0.00000000       0.00000000       3.31818182       0.00000000       0.00000000       0.19360746
2
Properties=species:S:1:pos:R:3:forces:R:3 energy=-0.7151123986606744 pbc="F F F"
Yb       0.00000000       0.00000000       0.00000000       0.00000000       0.00000000       0.03564242
Yb       0.00000000       0.00000000       3.37777778       0.00000000       0.00000000      -0.03564242
2
Properties=species:S:1:pos:R:3:forces:R:3 energy=-0.7073039721504394 pbc="F F F"
Yb       0.00000000       0.00000000       0.00000000       0.00000000       0.00000000       0.21824229
Yb       0.00000000       0.00000000       3.43737374       0.00000000       0.00000000      -0.21824229
2
Properties=species:S:1:pos:R:3:forces:R:3 energy=-0.6900865625035121 pbc="F F F"
Yb       0.00000000       0.00000000       0.00000000       0.00000000       0.00000000       0.35131347
Yb       0.00000000       0.00000000       3.49696970       0.00000000       0.00000000      -0.35131347
2
Properties=species:S:1:pos:R:3:forces:R:3 energy=-0.6663773131336501 pbc="F F F"
Yb       0.00000000       0.00000000       0.00000000       0.00000000       0.00000000       0.43683121
Yb       0.00000000       0.00000000       3.55656566       0.00000000       0.00000000      -0.43683121
2
Properties=species:S:1:pos:R:3:forces:R:3 energy=-0.6388433475605574 pbc="F F F"
Yb       0.00000000       0.00000000       0.00000000       0.00000000       0.00000000       0.48098624
Yb       0.00000000       0.00000000       3.61616162       0.00000000       0.00000000      -0.48098624
2
Properties=species:S:1:pos:R:3:forces:R:3 energy=-0.609694357917354 pbc="F F F"
Yb       0.00000000       0.00000000       0.00000000       0.00000000       0.00000000       0.49261919
Yb       0.00000000       0.00000000       3.67575758       0.00000000       0.00000000      -0.49261919
2
Properties=species:S:1:pos:R:3:forces:R:3 energy=-0.580583175483601 pbc="F F F"
Yb       0.00000000       0.00000000       0.00000000       0.00000000       0.00000000       0.48127028
Yb       0.00000000       0.00000000       3.73535354       0.00000000       0.00000000      -0.48127028
2
Properties=species:S:1:pos:R:3:forces:R:3 energy=-0.5526150272442211 pbc="F F F"
Yb       0.00000000       0.00000000       0.00000000       0.00000000       0.00000000       0.45554844
Yb       0.00000000       0.00000000       3.79494949       0.00000000       0.00000000      -0.45554844
2
Properties=species:S:1:pos:R:3:forces:R:3 energy=-0.5264345129054665 pbc="F F F"
Yb       0.00000000       0.00000000       0.00000000       0.00000000       0.00000000       0.42224202
Yb       0.00000000       0.00000000       3.85454545       0.00000000       0.00000000      -0.42224202
2
Properties=species:S:1:pos:R:3:forces:R:3 energy=-0.5023405639557053 pbc="F F F"
Yb       0.00000000       0.00000000       0.00000000       0.00000000       0.00000000       0.38621277
Yb       0.00000000       0.00000000       3.91414141       0.00000000       0.00000000      -0.38621277
2
Properties=species:S:1:pos:R:3:forces:R:3 energy=-0.48038964018835895 pbc="F F F"
Yb       0.00000000       0.00000000       0.00000000       0.00000000       0.00000000       0.35072875
Yb       0.00000000       0.00000000       3.97373737       0.00000000       0.00000000      -0.35072875
2
Properties=species:S:1:pos:R:3:forces:R:3 energy=-0.4604828728605165 pbc="F F F"
Yb       0.00000000       0.00000000       0.00000000       0.00000000       0.00000000       0.31790245
Yb       0.00000000       0.00000000       4.03333333       0.00000000       0.00000000      -0.31790245
2
Properties=species:S:1:pos:R:3:forces:R:3 energy=-0.44242011789420216 pbc="F F F"
Yb       0.00000000       0.00000000       0.00000000       0.00000000       0.00000000       0.28899291
Yb       0.00000000       0.00000000       4.09292929       0.00000000       0.00000000      -0.28899291
2
Properties=species:S:1:pos:R:3:forces:R:3 energy=-0.4259471728424802 pbc="F F F"
Yb       0.00000000       0.00000000       0.00000000       0.00000000       0.00000000       0.26459301
Yb       0.00000000       0.00000000       4.15252525       0.00000000       0.00000000      -0.26459301
2
Properties=species:S:1:pos:R:3:forces:R:3 energy=-0.41079213759866673 pbc="F F F"
Yb       0.00000000       0.00000000       0.00000000       0.00000000       0.00000000       0.24474481
Yb       0.00000000       0.00000000       4.21212121       0.00000000       0.00000000      -0.24474481
2
Properties=species:S:1:pos:R:3:forces:R:3 energy=-0.3966921895531225 pbc="F F F"
Yb       0.00000000       0.00000000       0.00000000       0.00000000       0.00000000       0.22908482
Yb       0.00000000       0.00000000       4.27171717       0.00000000       0.00000000      -0.22908482
2
Properties=species:S:1:pos:R:3:forces:R:3 energy=-0.38341569362467176 pbc="F F F"
Yb       0.00000000       0.00000000       0.00000000       0.00000000       0.00000000       0.21701048
Yb       0.00000000       0.00000000       4.33131313       0.00000000       0.00000000      -0.21701048
2
Properties=species:S:1:pos:R:3:forces:R:3 energy=-0.3707689978980532 pbc="F F F"
Yb       0.00000000       0.00000000       0.00000000       0.00000000       0.00000000       0.20783165
Yb       0.00000000       0.00000000       4.39090909       0.00000000       0.00000000      -0.20783165
2
Properties=species:S:1:pos:R:3:forces:R:3 energy=-0.3585992488814652 pbc="F F F"
Yb       0.00000000       0.00000000       0.00000000       0.00000000       0.00000000       0.20089525
Yb       0.00000000       0.00000000       4.45050505       0.00000000       0.00000000      -0.20089525
2
Properties=species:S:1:pos:R:3:forces:R:3 energy=-0.3467906763037102 pbc="F F F"
Yb       0.00000000       0.00000000       0.00000000       0.00000000       0.00000000       0.19563347
Yb       0.00000000       0.00000000       4.51010101       0.00000000       0.00000000      -0.19563347
2
Properties=species:S:1:pos:R:3:forces:R:3 energy=-0.33525781602367066 pbc="F F F"
Yb       0.00000000       0.00000000       0.00000000       0.00000000       0.00000000       0.19154800
Yb       0.00000000       0.00000000       4.56969697       0.00000000       0.00000000      -0.19154800
2
Properties=species:S:1:pos:R:3:forces:R:3 energy=-0.3239453633546015 pbc="F F F"
Yb       0.00000000       0.00000000       0.00000000       0.00000000       0.00000000       0.18817398
Yb       0.00000000       0.00000000       4.62929293       0.00000000       0.00000000      -0.18817398
2
Properties=species:S:1:pos:R:3:forces:R:3 energy=-0.31282453413694755 pbc="F F F"
Yb       0.00000000       0.00000000       0.00000000       0.00000000       0.00000000       0.18504077
Yb       0.00000000       0.00000000       4.68888889       0.00000000       0.00000000      -0.18504077
2
Properties=species:S:1:pos:R:3:forces:R:3 energy=-0.30189464284553613 pbc="F F F"
Yb       0.00000000       0.00000000       0.00000000       0.00000000       0.00000000       0.18167597
Yb       0.00000000       0.00000000       4.74848485       0.00000000       0.00000000      -0.18167597
2
Properties=species:S:1:pos:R:3:forces:R:3 energy=-0.29118352944952786 pbc="F F F"
Yb       0.00000000       0.00000000       0.00000000       0.00000000       0.00000000       0.17765012
Yb       0.00000000       0.00000000       4.80808081       0.00000000       0.00000000      -0.17765012
2
Properties=species:S:1:pos:R:3:forces:R:3 energy=-0.2807396350385126 pbc="F F F"
Yb       0.00000000       0.00000000       0.00000000       0.00000000       0.00000000       0.17264694
Yb       0.00000000       0.00000000       4.86767677       0.00000000       0.00000000      -0.17264694
2
Properties=species:S:1:pos:R:3:forces:R:3 energy=-0.27062745098667496 pbc="F F F"
Yb       0.00000000       0.00000000       0.00000000       0.00000000       0.00000000       0.16652578
Yb       0.00000000       0.00000000       4.92727273       0.00000000       0.00000000      -0.16652578
2
Properties=species:S:1:pos:R:3:forces:R:3 energy=-0.2609123692855782 pbc="F F F"
Yb       0.00000000       0.00000000       0.00000000       0.00000000       0.00000000       0.15934324
Yb       0.00000000       0.00000000       4.98686869       0.00000000       0.00000000      -0.15934324
2
Properties=species:S:1:pos:R:3:forces:R:3 energy=-0.2516522883766939 pbc="F F F"
Yb       0.00000000       0.00000000       0.00000000       0.00000000       0.00000000       0.15133913
Yb       0.00000000       0.00000000       5.04646465       0.00000000       0.00000000      -0.15133913
2
Properties=species:S:1:pos:R:3:forces:R:3 energy=-0.24288425643724837 pbc="F F F"
Yb       0.00000000       0.00000000       0.00000000       0.00000000       0.00000000       0.14285630
Yb       0.00000000       0.00000000       5.10606061       0.00000000       0.00000000      -0.14285630
2
Properties=species:S:1:pos:R:3:forces:R:3 energy=-0.23462653595201072 pbc="F F F"
Yb       0.00000000       0.00000000       0.00000000       0.00000000       0.00000000       0.13423759
Yb       0.00000000       0.00000000       5.16565657       0.00000000       0.00000000      -0.13423759
2
Properties=species:S:1:pos:R:3:forces:R:3 energy=-0.22688109103926019 pbc="F F F"
Yb       0.00000000       0.00000000       0.00000000       0.00000000       0.00000000       0.12573844
Yb       0.00000000       0.00000000       5.22525253       0.00000000       0.00000000      -0.12573844
2
Properties=species:S:1:pos:R:3:forces:R:3 energy=-0.21963573580184423 pbc="F F F"
Yb       0.00000000       0.00000000       0.00000000       0.00000000       0.00000000       0.11745112
Yb       0.00000000       0.00000000       5.28484848       0.00000000       0.00000000      -0.11745112
2
Properties=species:S:1:pos:R:3:forces:R:3 energy=-0.21287886782380094 pbc="F F F"
Yb       0.00000000       0.00000000       0.00000000       0.00000000       0.00000000       0.10930897
Yb       0.00000000       0.00000000       5.34444444       0.00000000       0.00000000      -0.10930897
2
Properties=species:S:1:pos:R:3:forces:R:3 energy=-0.20660725362009372 pbc="F F F"
Yb       0.00000000       0.00000000       0.00000000       0.00000000       0.00000000       0.10113662
Yb       0.00000000       0.00000000       5.40404040       0.00000000       0.00000000      -0.10113662
2
Properties=species:S:1:pos:R:3:forces:R:3 energy=-0.2008277239711625 pbc="F F F"
Yb       0.00000000       0.00000000       0.00000000       0.00000000       0.00000000       0.09274493
Yb       0.00000000       0.00000000       5.46363636       0.00000000       0.00000000      -0.09274493
2
Properties=species:S:1:pos:R:3:forces:R:3 energy=-0.19556048045878335 pbc="F F F"
Yb       0.00000000       0.00000000       0.00000000       0.00000000       0.00000000       0.08402242
Yb       0.00000000       0.00000000       5.52323232       0.00000000       0.00000000      -0.08402242
2
Properties=species:S:1:pos:R:3:forces:R:3 energy=-0.19082015421429196 pbc="F F F"
Yb       0.00000000       0.00000000       0.00000000       0.00000000       0.00000000       0.07500781
Yb       0.00000000       0.00000000       5.58282828       0.00000000       0.00000000      -0.07500781
2
Properties=species:S:1:pos:R:3:forces:R:3 energy=-0.1866222151877645 pbc="F F F"
Yb       0.00000000       0.00000000       0.00000000       0.00000000       0.00000000       0.06589416
Yb       0.00000000       0.00000000       5.64242424       0.00000000       0.00000000      -0.06589416
2
Properties=species:S:1:pos:R:3:forces:R:3 energy=-0.1829605483602961 pbc="F F F"
Yb       0.00000000       0.00000000       0.00000000       0.00000000       0.00000000       0.05701629
Yb       0.00000000       0.00000000       5.70202020       0.00000000       0.00000000      -0.05701629
2
Properties=species:S:1:pos:R:3:forces:R:3 energy=-0.1798137611649284 pbc="F F F"
Yb       0.00000000       0.00000000       0.00000000       0.00000000       0.00000000       0.04878642
Yb       0.00000000       0.00000000       5.76161616       0.00000000       0.00000000      -0.04878642
2
Properties=species:S:1:pos:R:3:forces:R:3 energy=-0.17712515515805308 pbc="F F F"
Yb       0.00000000       0.00000000       0.00000000       0.00000000       0.00000000       0.04163085
Yb       0.00000000       0.00000000       5.82121212       0.00000000       0.00000000      -0.04163085
2
Properties=species:S:1:pos:R:3:forces:R:3 energy=-0.17482308886317244 pbc="F F F"
Yb       0.00000000       0.00000000       0.00000000       0.00000000       0.00000000       0.03594797
Yb       0.00000000       0.00000000       5.88080808       0.00000000       0.00000000      -0.03594797
2
Properties=species:S:1:pos:R:3:forces:R:3 energy=-0.17280426102188357 pbc="F F F"
Yb       0.00000000       0.00000000       0.00000000       0.00000000       0.00000000       0.03205938
Yb       0.00000000       0.00000000       5.94040404       0.00000000       0.00000000      -0.03205938
2
Properties=species:S:1:pos:R:3:forces:R:3 energy=-0.1709597390467147 pbc="F F F"
Yb       0.00000000       0.00000000       0.00000000       0.00000000       0.00000000       0.03022114
Yb       0.00000000       0.00000000       6.00000000       0.00000000       0.00000000      -0.03022114
