2
Properties=species:S:1:pos:R:3:forces:R:3 energy=382.8174898215629 pbc="F F F"
B        0.00000000       0.00000000       0.00000000       0.00000000       0.00000000   -3409.93896484
B        0.00000000       0.00000000       0.18000000       0.00000000       0.00000000    3409.93896484
2
Properties=species:S:1:pos:R:3:forces:R:3 energy=253.5257722938499 pbc="F F F"
B        0.00000000       0.00000000       0.00000000       0.00000000       0.00000000   -1336.55920410
B        0.00000000       0.00000000       0.23878788       0.00000000       0.00000000    1336.55920410
2
Properties=species:S:1:pos:R:3:forces:R:3 energy=199.7347261544396 pbc="F F F"
B        0.00000000       0.00000000       0.00000000       0.00000000       0.00000000    -649.51727295
B        0.00000000       0.00000000       0.29757576       0.00000000       0.00000000     649.51727295
2
Properties=species:S:1:pos:R:3:forces:R:3 energy=164.2259676158534 pbc="F F F"
B        0.00000000       0.00000000       0.00000000       0.00000000       0.00000000    -650.19085693
B        0.00000000       0.00000000       0.35636364       0.00000000       0.00000000     650.19085693
2
Properties=species:S:1:pos:R:3:forces:R:3 energy=121.51878379380187 pbc="F F F"
B        0.00000000       0.00000000       0.00000000       0.00000000       0.00000000    -728.77551270
B        0.00000000       0.00000000       0.41515152       0.00000000       0.00000000     728.77551270
2
Properties=species:S:1:pos:R:3:forces:R:3 energy=86.91197230362651 pbc="F F F"
B        0.00000000       0.00000000       0.00000000       0.00000000       0.00000000    -421.95751953
B        0.00000000       0.00000000       0.47393939       0.00000000       0.00000000     421.95751953
2
Properties=species:S:1:pos:R:3:forces:R:3 energy=67.18973573209826 pbc="F F F"
B        0.00000000       0.00000000       0.00000000       0.00000000       0.00000000    -298.06762695
B        0.00000000       0.00000000       0.53272727       0.00000000       0.00000000     298.06762695
2
Properties=species:S:1:pos:R:3:forces:R:3 energy=50.914184995935145 pbc="F F F"
B        0.00000000       0.00000000       0.00000000       0.00000000       0.00000000    -251.32205200
B        0.00000000       0.00000000       0.59151515       0.00000000       0.00000000     251.32205200
2
Properties=species:S:1:pos:R:3:forces:R:3 energy=38.66432249926692 pbc="F F F"
B        0.00000000       0.00000000       0.00000000       0.00000000       0.00000000    -133.81477356
B        0.00000000       0.00000000       0.65030303       0.00000000       0.00000000     133.81477356
2
Properties=species:S:1:pos:R:3:forces:R:3 energy=38.184925956383005 pbc="F F F"
B        0.00000000       0.00000000       0.00000000       0.00000000       0.00000000      68.23746490
B        0.00000000       0.00000000       0.70909091       0.00000000       0.00000000     -68.23746490
2
Properties=species:S:1:pos:R:3:forces:R:3 energy=39.29076133864085 pbc="F F F"
B        0.00000000       0.00000000       0.00000000       0.00000000       0.00000000     -64.63018799
B        0.00000000       0.00000000       0.76787879       0.00000000       0.00000000      64.63018799
2
Properties=species:S:1:pos:R:3:forces:R:3 energy=31.036390314883672 pbc="F F F"
B        0.00000000       0.00000000       0.00000000       0.00000000       0.00000000    -191.35571289
B        0.00000000       0.00000000       0.82666667       0.00000000       0.00000000     191.35571289
2
Properties=species:S:1:pos:R:3:forces:R:3 energy=19.61955732747822 pbc="F F F"
B        0.00000000       0.00000000       0.00000000       0.00000000       0.00000000    -177.12316895
B        0.00000000       0.00000000       0.88545455       0.00000000       0.00000000     177.12316895
2
Properties=species:S:1:pos:R:3:forces:R:3 energy=11.335582968068215 pbc="F F F"
B        0.00000000       0.00000000       0.00000000       0.00000000       0.00000000    -106.70025635
B        0.00000000       0.00000000       0.94424242       0.00000000       0.00000000     106.70025635
2
Properties=species:S:1:pos:R:3:forces:R:3 energy=6.384593523391222 pbc="F F F"
B        0.00000000       0.00000000       0.00000000       0.00000000       0.00000000     -66.94751740
B        0.00000000       0.00000000       1.00303030       0.00000000       0.00000000      66.94751740
2
Properties=species:S:1:pos:R:3:forces:R:3 energy=3.0900473196445293 pbc="F F F"
B        0.00000000       0.00000000       0.00000000       0.00000000       0.00000000     -46.85897827
B        0.00000000       0.00000000       1.06181818       0.00000000       0.00000000      46.85897827
2
Properties=species:S:1:pos:R:3:forces:R:3 energy=0.7486072519918219 pbc="F F F"
B        0.00000000       0.00000000       0.00000000       0.00000000       0.00000000     -33.53297806
B        0.00000000       0.00000000       1.12060606       0.00000000       0.00000000      33.53297806
2
Properties=species:S:1:pos:R:3:forces:R:3 energy=-0.9224445002133004 pbc="F F F"
B        0.00000000       0.00000000       0.00000000       0.00000000       0.00000000     -23.81729507
B        0.00000000       0.00000000       1.17939394       0.00000000       0.00000000      23.81729507
2
Properties=species:S:1:pos:R:3:forces:R:3 energy=-2.1024914293558 pbc="F F F"
B        0.00000000       0.00000000       0.00000000       0.00000000       0.00000000     -16.69702530
B        0.00000000       0.00000000       1.23818182       0.00000000       0.00000000      16.69702530
2
Properties=species:S:1:pos:R:3:forces:R:3 energy=-2.9223326014545243 pbc="F F F"
B        0.00000000       0.00000000       0.00000000       0.00000000       0.00000000     -11.45642281
B        0.00000000       0.00000000       1.29696970       0.00000000       0.00000000      11.45642281
2
Properties=species:S:1:pos:R:3:forces:R:3 energy=-3.475381751278276 pbc="F F F"
B        0.00000000       0.00000000       0.00000000       0.00000000       0.00000000      -7.54343796
B        0.00000000       0.00000000       1.35575758       0.00000000       0.00000000       7.54343796
2
Properties=species:S:1:pos:R:3:forces:R:3 energy=-3.8279289231124505 pbc="F F F"
B        0.00000000       0.00000000       0.00000000       0.00000000       0.00000000      -4.58861160
B        0.00000000       0.00000000       1.41454545       0.00000000       0.00000000       4.58861160
2
Properties=species:S:1:pos:R:3:forces:R:3 energy=-4.029394431614005 pbc="F F F"
B        0.00000000       0.00000000       0.00000000       0.00000000       0.00000000      -2.37624121
B        0.00000000       0.00000000       1.47333333       0.00000000       0.00000000       2.37624121
2
Properties=species:S:1:pos:R:3:forces:R:3 energy=-4.119099917699796 pbc="F F F"
B        0.00000000       0.00000000       0.00000000       0.00000000       0.00000000      -0.76581573
B        0.00000000       0.00000000       1.53212121       0.00000000       0.00000000       0.76581573
2
Properties=species:S:1:pos:R:3:forces:R:3 energy=-4.128939098302637 pbc="F F F"
B        0.00000000       0.00000000       0.00000000       0.00000000       0.00000000       0.35930327
B        0.00000000       0.00000000       1.59090909       0.00000000       0.00000000      -0.35930327
2
Properties=species:S:1:pos:R:3:forces:R:3 energy=-4.084289996876771 pbc="F F F"
B        0.00000000       0.00000000       0.00000000       0.00000000       0.00000000       1.10477889
B        0.00000000       0.00000000       1.64969697       0.00000000       0.00000000      -1.10477889
2
Properties=species:S:1:pos:R:3:forces:R:3 energy=-4.004534915904109 pbc="F F F"
B        0.00000000       0.00000000       0.00000000       0.00000000       0.00000000       1.57038188
B        0.00000000       0.00000000       1.70848485       0.00000000       0.00000000      -1.57038188
2
Properties=species:S:1:pos:R:3:forces:R:3 energy=-3.903199611092339 pbc="F F F"
B        0.00000000       0.00000000       0.00000000       0.00000000       0.00000000       1.85402834
B        0.00000000       0.00000000       1.76727273       0.00000000       0.00000000      -1.85402834
2
Properties=species:S:1:pos:R:3:forces:R:3 energy=-3.788530883630996 pbc="F F F"
B        0.00000000       0.00000000       0.00000000       0.00000000       0.00000000       2.03553748
B        0.00000000       0.00000000       1.82606061       0.00000000       0.00000000      -2.03553748
2
Properties=species:S:1:pos:R:3:forces:R:3 energy=-3.6647535171858907 pbc="F F F"
B        0.00000000       0.00000000       0.00000000       0.00000000       0.00000000       2.17087054
B        0.00000000       0.00000000       1.88484848       0.00000000       0.00000000      -2.17087054
2
Properties=species:S:1:pos:R:3:forces:R:3 energy=-3.5336459956424857 pbc="F F F"
B        0.00000000       0.00000000       0.00000000       0.00000000       0.00000000       2.28729033
B        0.00000000       0.00000000       1.94363636       0.00000000       0.00000000      -2.28729033
2
Properties=species:S:1:pos:R:3:forces:R:3 energy=-3.396052894867585 pbc="F F F"
B        0.00000000       0.00000000       0.00000000       0.00000000       0.00000000       2.39215493
B        0.00000000       0.00000000       2.00242424       0.00000000       0.00000000      -2.39215493
2
Properties=species:S:1:pos:R:3:forces:R:3 energy=-3.2524632402623617 pbc="F F F"
B        0.00000000       0.00000000       0.00000000       0.00000000       0.00000000       2.49302673
B        0.00000000       0.00000000       2.06121212       0.00000000       0.00000000      -2.49302673
2
Properties=species:S:1:pos:R:3:forces:R:3 energy=-3.102960858992279 pbc="F F F"
B        0.00000000       0.00000000       0.00000000       0.00000000       0.00000000       2.59147429
B        0.00000000       0.00000000       2.12000000       0.00000000       0.00000000      -2.59147429
2
Properties=species:S:1:pos:R:3:forces:R:3 energy=-2.948190485068355 pbc="F F F"
B        0.00000000       0.00000000       0.00000000       0.00000000       0.00000000       2.66874385
B        0.00000000       0.00000000       2.17878788       0.00000000       0.00000000      -2.66874385
2
Properties=species:S:1:pos:R:3:forces:R:3 energy=-2.7898698076989654 pbc="F F F"
B        0.00000000       0.00000000       0.00000000       0.00000000       0.00000000       2.71130943
B        0.00000000       0.00000000       2.23757576       0.00000000       0.00000000      -2.71130943
2
Properties=species:S:1:pos:R:3:forces:R:3 energy=-2.6301505808714283 pbc="F F F"
B        0.00000000       0.00000000       0.00000000       0.00000000       0.00000000       2.71601033
B        0.00000000       0.00000000       2.29636364       0.00000000       0.00000000      -2.71601033
2
Properties=species:S:1:pos:R:3:forces:R:3 energy=-2.4712855833360505 pbc="F F F"
B        0.00000000       0.00000000       0.00000000       0.00000000       0.00000000       2.68230653
B        0.00000000       0.00000000       2.35515152       0.00000000       0.00000000      -2.68230653
2
Properties=species:S:1:pos:R:3:forces:R:3 energy=-2.3155158876727153 pbc="F F F"
B        0.00000000       0.00000000       0.00000000       0.00000000       0.00000000       2.61097217
B        0.00000000       0.00000000       2.41393939       0.00000000       0.00000000      -2.61097217
2
Properties=species:S:1:pos:R:3:forces:R:3 energy=-2.1649721484779616 pbc="F F F"
B        0.00000000       0.00000000       0.00000000       0.00000000       0.00000000       2.50526452
B        0.00000000       0.00000000       2.47272727       0.00000000       0.00000000      -2.50526452
2
Properties=species:S:1:pos:R:3:forces:R:3 energy=-2.0215121511293037 pbc="F F F"
B        0.00000000       0.00000000       0.00000000       0.00000000       0.00000000       2.37126923
B        0.00000000       0.00000000       2.53151515       0.00000000       0.00000000      -2.37126923
2
Properties=species:S:1:pos:R:3:forces:R:3 energy=-1.88656599934955 pbc="F F F"
B        0.00000000       0.00000000       0.00000000       0.00000000       0.00000000       2.21706080
B        0.00000000       0.00000000       2.59030303       0.00000000       0.00000000      -2.21706080
2
Properties=species:S:1:pos:R:3:forces:R:3 energy=-1.7610669079993324 pbc="F F F"
B        0.00000000       0.00000000       0.00000000       0.00000000       0.00000000       2.05126667
B        0.00000000       0.00000000       2.64909091       0.00000000       0.00000000      -2.05126667
2
Properties=species:S:1:pos:R:3:forces:R:3 energy=-1.6454561215206165 pbc="F F F"
B        0.00000000       0.00000000       0.00000000       0.00000000       0.00000000       1.88178754
B        0.00000000       0.00000000       2.70787879       0.00000000       0.00000000      -1.88178754
2
Properties=species:S:1:pos:R:3:forces:R:3 energy=-1.5397602912771897 pbc="F F F"
B        0.00000000       0.00000000       0.00000000       0.00000000       0.00000000       1.71499169
B        0.00000000       0.00000000       2.76666667       0.00000000       0.00000000      -1.71499169
2
Properties=species:S:1:pos:R:3:forces:R:3 energy=-1.4436730660659354 pbc="F F F"
B        0.00000000       0.00000000       0.00000000       0.00000000       0.00000000       1.55542302
B        0.00000000       0.00000000       2.82545455       0.00000000       0.00000000      -1.55542302
2
Properties=species:S:1:pos:R:3:forces:R:3 energy=-1.35668058498872 pbc="F F F"
B        0.00000000       0.00000000       0.00000000       0.00000000       0.00000000       1.40596235
B        0.00000000       0.00000000       2.88424242       0.00000000       0.00000000      -1.40596235
2
Properties=species:S:1:pos:R:3:forces:R:3 energy=-1.27813711233085 pbc="F F F"
B        0.00000000       0.00000000       0.00000000       0.00000000       0.00000000       1.26814771
B        0.00000000       0.00000000       2.94303030       0.00000000       0.00000000      -1.26814771
2
Properties=species:S:1:pos:R:3:forces:R:3 energy=-1.207337784906049 pbc="F F F"
B        0.00000000       0.00000000       0.00000000       0.00000000       0.00000000       1.14255285
B        0.00000000       0.00000000       3.00181818       0.00000000       0.00000000      -1.14255285
2
Properties=species:S:1:pos:R:3:forces:R:3 energy=-1.1435622659991393 pbc="F F F"
B        0.00000000       0.00000000       0.00000000       0.00000000       0.00000000       1.02909935
B        0.00000000       0.00000000       3.06060606       0.00000000       0.00000000      -1.02909935
2
Properties=species:S:1:pos:R:3:forces:R:3 energy=-1.086112268949805 pbc="F F F"
B        0.00000000       0.00000000       0.00000000       0.00000000       0.00000000       0.92728430
B        0.00000000       0.00000000       3.11939394       0.00000000       0.00000000      -0.92728430
2
Properties=species:S:1:pos:R:3:forces:R:3 energy=-1.0343237830243897 pbc="F F F"
B        0.00000000       0.00000000       0.00000000       0.00000000       0.00000000       0.83631068
B        0.00000000       0.00000000       3.17818182       0.00000000       0.00000000      -0.83631068
2
Properties=species:S:1:pos:R:3:forces:R:3 energy=-0.9875891619805076 pbc="F F F"
B        0.00000000       0.00000000       0.00000000       0.00000000       0.00000000       0.75519425
B        0.00000000       0.00000000       3.23696970       0.00000000       0.00000000      -0.75519425
2
Properties=species:S:1:pos:R:3:forces:R:3 energy=-0.9453595050850128 pbc="F F F"
B        0.00000000       0.00000000       0.00000000       0.00000000       0.00000000       0.68283564
B        0.00000000       0.00000000       3.29575758       0.00000000       0.00000000      -0.68283564
2
Properties=species:S:1:pos:R:3:forces:R:3 energy=-0.9071544101009865 pbc="F F F"
B        0.00000000       0.00000000       0.00000000       0.00000000       0.00000000       0.61810207
B        0.00000000       0.00000000       3.35454545       0.00000000       0.00000000      -0.61810207
2
Properties=species:S:1:pos:R:3:forces:R:3 energy=-0.8725578473119837 pbc="F F F"
B        0.00000000       0.00000000       0.00000000       0.00000000       0.00000000       0.55989653
B        0.00000000       0.00000000       3.41333333       0.00000000       0.00000000      -0.55989653
2
Properties=species:S:1:pos:R:3:forces:R:3 energy=-0.8412152240552633 pbc="F F F"
B        0.00000000       0.00000000       0.00000000       0.00000000       0.00000000       0.50723511
B        0.00000000       0.00000000       3.47212121       0.00000000       0.00000000      -0.50723511
2
Properties=species:S:1:pos:R:3:forces:R:3 energy=-0.8128271482408241 pbc="F F F"
B        0.00000000       0.00000000       0.00000000       0.00000000       0.00000000       0.45930582
B        0.00000000       0.00000000       3.53090909       0.00000000       0.00000000      -0.45930582
2
Properties=species:S:1:pos:R:3:forces:R:3 energy=-0.787131757866088 pbc="F F F"
B        0.00000000       0.00000000       0.00000000       0.00000000       0.00000000       0.41548353
B        0.00000000       0.00000000       3.58969697       0.00000000       0.00000000      -0.41548353
2
Properties=species:S:1:pos:R:3:forces:R:3 energy=-0.7639036727228773 pbc="F F F"
B        0.00000000       0.00000000       0.00000000       0.00000000       0.00000000       0.37535340
B        0.00000000       0.00000000       3.64848485       0.00000000       0.00000000      -0.37535340
2
Properties=species:S:1:pos:R:3:forces:R:3 energy=-0.7429327476334107 pbc="F F F"
B        0.00000000       0.00000000       0.00000000       0.00000000       0.00000000       0.33865574
B        0.00000000       0.00000000       3.70727273       0.00000000       0.00000000      -0.33865574
2
Properties=species:S:1:pos:R:3:forces:R:3 energy=-0.7240214728526063 pbc="F F F"
B        0.00000000       0.00000000       0.00000000       0.00000000       0.00000000       0.30524391
B        0.00000000       0.00000000       3.76606061       0.00000000       0.00000000      -0.30524391
2
Properties=species:S:1:pos:R:3:forces:R:3 energy=-0.7069806613588377 pbc="F F F"
B        0.00000000       0.00000000       0.00000000       0.00000000       0.00000000       0.27502343
B        0.00000000       0.00000000       3.82484848       0.00000000       0.00000000      -0.27502343
2
Properties=species:S:1:pos:R:3:forces:R:3 energy=-0.6916247826845788 pbc="F F F"
B        0.00000000       0.00000000       0.00000000       0.00000000       0.00000000       0.24789084
B        0.00000000       0.00000000       3.88363636       0.00000000       0.00000000      -0.24789084
2
Properties=species:S:1:pos:R:3:forces:R:3 energy=-0.6777771162583013 pbc="F F F"
B        0.00000000       0.00000000       0.00000000       0.00000000       0.00000000       0.22369173
B        0.00000000       0.00000000       3.94242424       0.00000000       0.00000000      -0.22369173
2
Properties=species:S:1:pos:R:3:forces:R:3 energy=-0.6652711971710847 pbc="F F F"
B        0.00000000       0.00000000       0.00000000       0.00000000       0.00000000       0.20220317
B        0.00000000       0.00000000       4.00121212       0.00000000       0.00000000      -0.20220317
2
Properties=species:S:1:pos:R:3:forces:R:3 energy=-0.6539555075205312 pbc="F F F"
B        0.00000000       0.00000000       0.00000000       0.00000000       0.00000000       0.18313573
B        0.00000000       0.00000000       4.06000000       0.00000000       0.00000000      -0.18313573
2
Properties=species:S:1:pos:R:3:forces:R:3 energy=-0.6436980709281264 pbc="F F F"
B        0.00000000       0.00000000       0.00000000       0.00000000       0.00000000       0.16615303
B        0.00000000       0.00000000       4.11878788       0.00000000       0.00000000      -0.16615303
2
Properties=species:S:1:pos:R:3:forces:R:3 energy=-0.6343859976688565 pbc="F F F"
B        0.00000000       0.00000000       0.00000000       0.00000000       0.00000000       0.15090162
B        0.00000000       0.00000000       4.17757576       0.00000000       0.00000000      -0.15090162
2
Properties=species:S:1:pos:R:3:forces:R:3 energy=-0.625928040543334 pbc="F F F"
B        0.00000000       0.00000000       0.00000000       0.00000000       0.00000000       0.13704824
B        0.00000000       0.00000000       4.23636364       0.00000000       0.00000000      -0.13704824
2
Properties=species:S:1:pos:R:3:forces:R:3 energy=-0.6182504803654173 pbc="F F F"
B        0.00000000       0.00000000       0.00000000       0.00000000       0.00000000       0.12430593
B        0.00000000       0.00000000       4.29515152       0.00000000       0.00000000      -0.12430593
2
Properties=species:S:1:pos:R:3:forces:R:3 energy=-0.6112952405803537 pbc="F F F"
B        0.00000000       0.00000000       0.00000000       0.00000000       0.00000000       0.11246284
B        0.00000000       0.00000000       4.35393939       0.00000000       0.00000000      -0.11246284
2
Properties=species:S:1:pos:R:3:forces:R:3 energy=-0.6050128109431174 pbc="F F F"
B        0.00000000       0.00000000       0.00000000       0.00000000       0.00000000       0.10138918
B        0.00000000       0.00000000       4.41272727       0.00000000       0.00000000      -0.10138918
2
Properties=species:S:1:pos:R:3:forces:R:3 energy=-0.599359858164926 pbc="F F F"
B        0.00000000       0.00000000       0.00000000       0.00000000       0.00000000       0.09104815
B        0.00000000       0.00000000       4.47151515       0.00000000       0.00000000      -0.09104815
2
Properties=species:S:1:pos:R:3:forces:R:3 energy=-0.5942925676160479 pbc="F F F"
B        0.00000000       0.00000000       0.00000000       0.00000000       0.00000000       0.08148071
B        0.00000000       0.00000000       4.53030303       0.00000000       0.00000000      -0.08148071
2
Properties=species:S:1:pos:R:3:forces:R:3 energy=-0.5897626701974661 pbc="F F F"
B        0.00000000       0.00000000       0.00000000       0.00000000       0.00000000       0.07278974
B        0.00000000       0.00000000       4.58909091       0.00000000       0.00000000      -0.07278974
2
Properties=species:S:1:pos:R:3:forces:R:3 energy=-0.5857146430904618 pbc="F F F"
B        0.00000000       0.00000000       0.00000000       0.00000000       0.00000000       0.06510980
B        0.00000000       0.00000000       4.64787879       0.00000000       0.00000000      -0.06510980
2
Properties=species:S:1:pos:R:3:forces:R:3 energy=-0.5820849491514314 pbc="F F F"
B        0.00000000       0.00000000       0.00000000       0.00000000       0.00000000       0.05856463
B        0.00000000       0.00000000       4.70666667       0.00000000       0.00000000      -0.05856463
2
Properties=species:S:1:pos:R:3:forces:R:3 energy=-0.5788050848563235 pbc="F F F"
B        0.00000000       0.00000000       0.00000000       0.00000000       0.00000000       0.05322793
B        0.00000000       0.00000000       4.76545455       0.00000000       0.00000000      -0.05322793
2
Properties=species:S:1:pos:R:3:forces:R:3 energy=-0.5758032224922033 pbc="F F F"
B        0.00000000       0.00000000       0.00000000       0.00000000       0.00000000       0.04907580
B        0.00000000       0.00000000       4.82424242       0.00000000       0.00000000      -0.04907580
2
Properties=species:S:1:pos:R:3:forces:R:3 energy=-0.573014244328418 pbc="F F F"
B        0.00000000       0.00000000       0.00000000       0.00000000       0.00000000       0.04598285
B        0.00000000       0.00000000       4.88303030       0.00000000       0.00000000      -0.04598285
2
Properties=species:S:1:pos:R:3:forces:R:3 energy=-0.570380232917 pbc="F F F"
B        0.00000000       0.00000000       0.00000000       0.00000000       0.00000000       0.04374433
B        0.00000000       0.00000000       4.94181818       0.00000000       0.00000000      -0.04374433
2
Properties=species:S:1:pos:R:3:forces:R:3 energy=-0.5678577824571057 pbc="F F F"
B        0.00000000       0.00000000       0.00000000       0.00000000       0.00000000       0.04217151
B        0.00000000       0.00000000       5.00060606       0.00000000       0.00000000      -0.04217151
2
Properties=species:S:1:pos:R:3:forces:R:3 energy=-0.5654100804847493 pbc="F F F"
B        0.00000000       0.00000000       0.00000000       0.00000000       0.00000000       0.04119823
B        0.00000000       0.00000000       5.05939394       0.00000000       0.00000000      -0.04119823
2
Properties=species:S:1:pos:R:3:forces:R:3 energy=-0.5630002917572327 pbc="F F F"
B        0.00000000       0.00000000       0.00000000       0.00000000       0.00000000       0.04092049
B        0.00000000       0.00000000       5.11818182       0.00000000       0.00000000      -0.04092049
2
Properties=species:S:1:pos:R:3:forces:R:3 energy=-0.5605826361673841 pbc="F F F"
B        0.00000000       0.00000000       0.00000000       0.00000000       0.00000000       0.04146795
B        0.00000000       0.00000000       5.17696970       0.00000000       0.00000000      -0.04146795
2
Properties=species:S:1:pos:R:3:forces:R:3 energy=-0.5581118702378335 pbc="F F F"
B        0.00000000       0.00000000       0.00000000       0.00000000       0.00000000       0.04264747
B        0.00000000       0.00000000       5.23575758       0.00000000       0.00000000      -0.04264747
2
Properties=species:S:1:pos:R:3:forces:R:3 energy=-0.5555735631127351 pbc="F F F"
B        0.00000000       0.00000000       0.00000000       0.00000000       0.00000000       0.04353539
B        0.00000000       0.00000000       5.29454545       0.00000000       0.00000000      -0.04353539
2
Properties=species:S:1:pos:R:3:forces:R:3 energy=-0.5530298273775224 pbc="F F F"
B        0.00000000       0.00000000       0.00000000       0.00000000       0.00000000       0.04256147
B        0.00000000       0.00000000       5.35333333       0.00000000       0.00000000      -0.04256147
2
Properties=species:S:1:pos:R:3:forces:R:3 energy=-0.5506256854705314 pbc="F F F"
B        0.00000000       0.00000000       0.00000000       0.00000000       0.00000000       0.03883028
B        0.00000000       0.00000000       5.41212121       0.00000000       0.00000000      -0.03883028
2
Properties=species:S:1:pos:R:3:forces:R:3 energy=-0.5484848255150447 pbc="F F F"
B        0.00000000       0.00000000       0.00000000       0.00000000       0.00000000       0.03410253
B        0.00000000       0.00000000       5.47090909       0.00000000       0.00000000      -0.03410253
2
Properties=species:S:1:pos:R:3:forces:R:3 energy=-0.5465874700162243 pbc="F F F"
B        0.00000000       0.00000000       0.00000000       0.00000000       0.00000000       0.03059989
B        0.00000000       0.00000000       5.52969697       0.00000000       0.00000000      -0.03059989
2
Properties=species:S:1:pos:R:3:forces:R:3 energy=-0.5448997183362518 pbc="F F F"
B        0.00000000       0.00000000       0.00000000       0.00000000       0.00000000       0.02653242
B        0.00000000       0.00000000       5.58848485       0.00000000       0.00000000      -0.02653242
2
Properties=species:S:1:pos:R:3:forces:R:3 energy=-0.5434985309028009 pbc="F F F"
B        0.00000000       0.00000000       0.00000000       0.00000000       0.00000000       0.02104648
B        0.00000000       0.00000000       5.64727273       0.00000000       0.00000000      -0.02104648
2
Properties=species:S:1:pos:R:3:forces:R:3 energy=-0.5424122253977175 pbc="F F F"
B        0.00000000       0.00000000       0.00000000       0.00000000       0.00000000       0.01633382
B        0.00000000       0.00000000       5.70606061       0.00000000       0.00000000      -0.01633382
2
Properties=species:S:1:pos:R:3:forces:R:3 energy=-0.5414951293769914 pbc="F F F"
B        0.00000000       0.00000000       0.00000000       0.00000000       0.00000000       0.01545126
B        0.00000000       0.00000000       5.76484848       0.00000000       0.00000000      -0.01545126
2
Properties=species:S:1:pos:R:3:forces:R:3 energy=-0.5405884484552713 pbc="F F F"
B        0.00000000       0.00000000       0.00000000       0.00000000       0.00000000       0.01480971
B        0.00000000       0.00000000       5.82363636       0.00000000       0.00000000      -0.01480971
2
Properties=species:S:1:pos:R:3:forces:R:3 energy=-0.5398504083157314 pbc="F F F"
B        0.00000000       0.00000000       0.00000000       0.00000000       0.00000000       0.00979715
B        0.00000000       0.00000000       5.88242424       0.00000000       0.00000000      -0.00979715
2
Properties=species:S:1:pos:R:3:forces:R:3 energy=-0.5394510266497656 pbc="F F F"
B        0.00000000       0.00000000       0.00000000       0.00000000       0.00000000       0.00403709
B        0.00000000       0.00000000       5.94121212       0.00000000       0.00000000      -0.00403709
2
Properties=species:S:1:pos:R:3:forces:R:3 energy=-0.5393067998158257 pbc="F F F"
B        0.00000000       0.00000000       0.00000000       0.00000000       0.00000000       0.00162845
B        0.00000000       0.00000000       6.00000000       0.00000000       0.00000000      -0.00162845
