2
Properties=species:S:1:pos:R:3:forces:R:3 energy=6333.411908277339 pbc="F F F"
Cu       0.00000000       0.00000000       0.00000000       0.00000000       0.00000000  -62554.79296875
Cu       0.00000000       0.00000000       0.18000000       0.00000000       0.00000000   62554.79296875
2
Properties=species:S:1:pos:R:3:forces:R:3 energy=4057.424359449214 pbc="F F F"
Cu       0.00000000       0.00000000       0.00000000       0.00000000       0.00000000  -22848.75585938
Cu       0.00000000       0.00000000       0.23878788       0.00000000       0.00000000   22848.75585938
2
Properties=species:S:1:pos:R:3:forces:R:3 energy=3150.253949292964 pbc="F F F"
Cu       0.00000000       0.00000000       0.00000000       0.00000000       0.00000000  -10185.78515625
Cu       0.00000000       0.00000000       0.29757576       0.00000000       0.00000000   10185.78515625
2
Properties=species:S:1:pos:R:3:forces:R:3 energy=2708.078168042964 pbc="F F F"
Cu       0.00000000       0.00000000       0.00000000       0.00000000       0.00000000   -5615.17480469
Cu       0.00000000       0.00000000       0.35636364       0.00000000       0.00000000    5615.17480469
2
Properties=species:S:1:pos:R:3:forces:R:3 energy=2431.7490664867996 pbc="F F F"
Cu       0.00000000       0.00000000       0.00000000       0.00000000       0.00000000   -4110.68359375
Cu       0.00000000       0.00000000       0.41515152       0.00000000       0.00000000    4110.68359375
2
Properties=species:S:1:pos:R:3:forces:R:3 energy=2197.6765567338457 pbc="F F F"
Cu       0.00000000       0.00000000       0.00000000       0.00000000       0.00000000   -4015.72338867
Cu       0.00000000       0.00000000       0.47393939       0.00000000       0.00000000    4015.72338867
2
Properties=species:S:1:pos:R:3:forces:R:3 energy=1945.7557803920008 pbc="F F F"
Cu       0.00000000       0.00000000       0.00000000       0.00000000       0.00000000   -4633.84375000
Cu       0.00000000       0.00000000       0.53272727       0.00000000       0.00000000    4633.84375000
2
Properties=species:S:1:pos:R:3:forces:R:3 energy=1647.7004825784522 pbc="F F F"
Cu       0.00000000       0.00000000       0.00000000       0.00000000       0.00000000   -5513.39257812
Cu       0.00000000       0.00000000       0.59151515       0.00000000       0.00000000    5513.39257812
2
Properties=species:S:1:pos:R:3:forces:R:3 energy=1301.4261906559568 pbc="F F F"
Cu       0.00000000       0.00000000       0.00000000       0.00000000       0.00000000   -6190.33984375
Cu       0.00000000       0.00000000       0.65030303       0.00000000       0.00000000    6190.33984375
2
Properties=species:S:1:pos:R:3:forces:R:3 energy=934.9574407604949 pbc="F F F"
Cu       0.00000000       0.00000000       0.00000000       0.00000000       0.00000000   -6086.12207031
Cu       0.00000000       0.00000000       0.70909091       0.00000000       0.00000000    6086.12207031
2
Properties=species:S:1:pos:R:3:forces:R:3 energy=614.1058173868977 pbc="F F F"
Cu       0.00000000       0.00000000       0.00000000       0.00000000       0.00000000   -4651.84912109
Cu       0.00000000       0.00000000       0.76787879       0.00000000       0.00000000    4651.84912109
2
Properties=species:S:1:pos:R:3:forces:R:3 energy=389.12409765061335 pbc="F F F"
Cu       0.00000000       0.00000000       0.00000000       0.00000000       0.00000000   -3081.82495117
Cu       0.00000000       0.00000000       0.82666667       0.00000000       0.00000000    3081.82495117
2
Properties=species:S:1:pos:R:3:forces:R:3 energy=241.99339120246097 pbc="F F F"
Cu       0.00000000       0.00000000       0.00000000       0.00000000       0.00000000   -1984.83862305
Cu       0.00000000       0.00000000       0.88545455       0.00000000       0.00000000    1984.83862305
2
Properties=species:S:1:pos:R:3:forces:R:3 energy=149.50163142689587 pbc="F F F"
Cu       0.00000000       0.00000000       0.00000000       0.00000000       0.00000000   -1218.25183105
Cu       0.00000000       0.00000000       0.94424242       0.00000000       0.00000000    1218.25183105
2
Properties=species:S:1:pos:R:3:forces:R:3 energy=94.5829309044244 pbc="F F F"
Cu       0.00000000       0.00000000       0.00000000       0.00000000       0.00000000    -673.38867188
Cu       0.00000000       0.00000000       1.00303030       0.00000000       0.00000000     673.38867188
2
Properties=species:S:1:pos:R:3:forces:R:3 energy=65.27193477896944 pbc="F F F"
Cu       0.00000000       0.00000000       0.00000000       0.00000000       0.00000000    -372.30087280
Cu       0.00000000       0.00000000       1.06181818       0.00000000       0.00000000     372.30087280
2
Properties=species:S:1:pos:R:3:forces:R:3 energy=47.10610724306182 pbc="F F F"
Cu       0.00000000       0.00000000       0.00000000       0.00000000       0.00000000    -259.15118408
Cu       0.00000000       0.00000000       1.12060606       0.00000000       0.00000000     259.15118408
2
Properties=species:S:1:pos:R:3:forces:R:3 energy=34.08344947136211 pbc="F F F"
Cu       0.00000000       0.00000000       0.00000000       0.00000000       0.00000000    -187.73052979
Cu       0.00000000       0.00000000       1.17939394       0.00000000       0.00000000     187.73052979
2
Properties=species:S:1:pos:R:3:forces:R:3 energy=24.66951483942854 pbc="F F F"
Cu       0.00000000       0.00000000       0.00000000       0.00000000       0.00000000    -135.16317749
Cu       0.00000000       0.00000000       1.23818182       0.00000000       0.00000000     135.16317749
2
Properties=species:S:1:pos:R:3:forces:R:3 energy=17.89943108523411 pbc="F F F"
Cu       0.00000000       0.00000000       0.00000000       0.00000000       0.00000000     -97.51848602
Cu       0.00000000       0.00000000       1.29696970       0.00000000       0.00000000      97.51848602
2
Properties=species:S:1:pos:R:3:forces:R:3 energy=12.958661280816216 pbc="F F F"
Cu       0.00000000       0.00000000       0.00000000       0.00000000       0.00000000     -72.30265808
Cu       0.00000000       0.00000000       1.35575758       0.00000000       0.00000000      72.30265808
2
Properties=species:S:1:pos:R:3:forces:R:3 energy=9.236310408698685 pbc="F F F"
Cu       0.00000000       0.00000000       0.00000000       0.00000000       0.00000000     -55.39215088
Cu       0.00000000       0.00000000       1.41454545       0.00000000       0.00000000      55.39215088
2
Properties=species:S:1:pos:R:3:forces:R:3 energy=6.351730961635218 pbc="F F F"
Cu       0.00000000       0.00000000       0.00000000       0.00000000       0.00000000     -43.33358383
Cu       0.00000000       0.00000000       1.47333333       0.00000000       0.00000000      43.33358383
2
Properties=species:S:1:pos:R:3:forces:R:3 energy=4.088187289851397 pbc="F F F"
Cu       0.00000000       0.00000000       0.00000000       0.00000000       0.00000000     -34.02687454
Cu       0.00000000       0.00000000       1.53212121       0.00000000       0.00000000      34.02687454
2
Properties=species:S:1:pos:R:3:forces:R:3 energy=2.316464355609322 pbc="F F F"
Cu       0.00000000       0.00000000       0.00000000       0.00000000       0.00000000     -26.49851608
Cu       0.00000000       0.00000000       1.59090909       0.00000000       0.00000000      26.49851608
2
Properties=species:S:1:pos:R:3:forces:R:3 energy=0.9461018259532971 pbc="F F F"
Cu       0.00000000       0.00000000       0.00000000       0.00000000       0.00000000     -20.33164406
Cu       0.00000000       0.00000000       1.64969697       0.00000000       0.00000000      20.33164406
2
Properties=species:S:1:pos:R:3:forces:R:3 energy=-0.09755965065059706 pbc="F F F"
Cu       0.00000000       0.00000000       0.00000000       0.00000000       0.00000000     -15.36373329
Cu       0.00000000       0.00000000       1.70848485       0.00000000       0.00000000      15.36373329
2
Properties=species:S:1:pos:R:3:forces:R:3 energy=-0.8807927326023801 pbc="F F F"
Cu       0.00000000       0.00000000       0.00000000       0.00000000       0.00000000     -11.44030762
Cu       0.00000000       0.00000000       1.76727273       0.00000000       0.00000000      11.44030762
2
Properties=species:S:1:pos:R:3:forces:R:3 energy=-1.4593730167796095 pbc="F F F"
Cu       0.00000000       0.00000000       0.00000000       0.00000000       0.00000000      -8.37099552
Cu       0.00000000       0.00000000       1.82606061       0.00000000       0.00000000       8.37099552
2
Properties=species:S:1:pos:R:3:forces:R:3 energy=-1.878531239948045 pbc="F F F"
Cu       0.00000000       0.00000000       0.00000000       0.00000000       0.00000000      -5.99191809
Cu       0.00000000       0.00000000       1.88484848       0.00000000       0.00000000       5.99191809
2
Properties=species:S:1:pos:R:3:forces:R:3 energy=-2.174686378259181 pbc="F F F"
Cu       0.00000000       0.00000000       0.00000000       0.00000000       0.00000000      -4.16490841
Cu       0.00000000       0.00000000       1.94363636       0.00000000       0.00000000       4.16490841
2
Properties=species:S:1:pos:R:3:forces:R:3 energy=-2.3766931431230796 pbc="F F F"
Cu       0.00000000       0.00000000       0.00000000       0.00000000       0.00000000      -2.77086115
Cu       0.00000000       0.00000000       2.00242424       0.00000000       0.00000000       2.77086115
2
Properties=species:S:1:pos:R:3:forces:R:3 energy=-2.507032809487105 pbc="F F F"
Cu       0.00000000       0.00000000       0.00000000       0.00000000       0.00000000      -1.71236503
Cu       0.00000000       0.00000000       2.06121212       0.00000000       0.00000000       1.71236503
2
Properties=species:S:1:pos:R:3:forces:R:3 energy=-2.5831053731787343 pbc="F F F"
Cu       0.00000000       0.00000000       0.00000000       0.00000000       0.00000000      -0.91366196
Cu       0.00000000       0.00000000       2.12000000       0.00000000       0.00000000       0.91366196
2
Properties=species:S:1:pos:R:3:forces:R:3 energy=-2.6183970231711213 pbc="F F F"
Cu       0.00000000       0.00000000       0.00000000       0.00000000       0.00000000      -0.31643432
Cu       0.00000000       0.00000000       2.17878788       0.00000000       0.00000000       0.31643432
2
Properties=species:S:1:pos:R:3:forces:R:3 energy=-2.6233571826775233 pbc="F F F"
Cu       0.00000000       0.00000000       0.00000000       0.00000000       0.00000000       0.12498859
Cu       0.00000000       0.00000000       2.23757576       0.00000000       0.00000000      -0.12498859
2
Properties=species:S:1:pos:R:3:forces:R:3 energy=-2.6060396050636516 pbc="F F F"
Cu       0.00000000       0.00000000       0.00000000       0.00000000       0.00000000       0.44683525
Cu       0.00000000       0.00000000       2.29636364       0.00000000       0.00000000      -0.44683525
2
Properties=species:S:1:pos:R:3:forces:R:3 energy=-2.572602192273267 pbc="F F F"
Cu       0.00000000       0.00000000       0.00000000       0.00000000       0.00000000       0.67754358
Cu       0.00000000       0.00000000       2.35515152       0.00000000       0.00000000      -0.67754358
2
Properties=species:S:1:pos:R:3:forces:R:3 energy=-2.5277351810311948 pbc="F F F"
Cu       0.00000000       0.00000000       0.00000000       0.00000000       0.00000000       0.83873087
Cu       0.00000000       0.00000000       2.41393939       0.00000000       0.00000000      -0.83873087
2
Properties=species:S:1:pos:R:3:forces:R:3 energy=-2.4750420072323185 pbc="F F F"
Cu       0.00000000       0.00000000       0.00000000       0.00000000       0.00000000       0.94593382
Cu       0.00000000       0.00000000       2.47272727       0.00000000       0.00000000      -0.94593382
2
Properties=species:S:1:pos:R:3:forces:R:3 energy=-2.417370742779414 pbc="F F F"
Cu       0.00000000       0.00000000       0.00000000       0.00000000       0.00000000       1.00943434
Cu       0.00000000       0.00000000       2.53151515       0.00000000       0.00000000      -1.00943434
2
Properties=species:S:1:pos:R:3:forces:R:3 energy=-2.35707183723795 pbc="F F F"
Cu       0.00000000       0.00000000       0.00000000       0.00000000       0.00000000       1.03658271
Cu       0.00000000       0.00000000       2.59030303       0.00000000       0.00000000      -1.03658271
2
Properties=species:S:1:pos:R:3:forces:R:3 energy=-2.2960068611279487 pbc="F F F"
Cu       0.00000000       0.00000000       0.00000000       0.00000000       0.00000000       1.03786123
Cu       0.00000000       0.00000000       2.64909091       0.00000000       0.00000000      -1.03786123
2
Properties=species:S:1:pos:R:3:forces:R:3 energy=-2.2352005375689536 pbc="F F F"
Cu       0.00000000       0.00000000       0.00000000       0.00000000       0.00000000       1.03093529
Cu       0.00000000       0.00000000       2.70787879       0.00000000       0.00000000      -1.03093529
2
Properties=species:S:1:pos:R:3:forces:R:3 energy=-2.1747129913297383 pbc="F F F"
Cu       0.00000000       0.00000000       0.00000000       0.00000000       0.00000000       1.02740228
Cu       0.00000000       0.00000000       2.76666667       0.00000000       0.00000000      -1.02740228
2
Properties=species:S:1:pos:R:3:forces:R:3 energy=-2.114446643422518 pbc="F F F"
Cu       0.00000000       0.00000000       0.00000000       0.00000000       0.00000000       1.02162421
Cu       0.00000000       0.00000000       2.82545455       0.00000000       0.00000000      -1.02162421
2
Properties=species:S:1:pos:R:3:forces:R:3 energy=-2.0548108052734175 pbc="F F F"
Cu       0.00000000       0.00000000       0.00000000       0.00000000       0.00000000       1.00511527
Cu       0.00000000       0.00000000       2.88424242       0.00000000       0.00000000      -1.00511527
2
Properties=species:S:1:pos:R:3:forces:R:3 energy=-1.9965061157492225 pbc="F F F"
Cu       0.00000000       0.00000000       0.00000000       0.00000000       0.00000000       0.97664130
Cu       0.00000000       0.00000000       2.94303030       0.00000000       0.00000000      -0.97664130
2
Properties=species:S:1:pos:R:3:forces:R:3 energy=-1.940160024244097 pbc="F F F"
Cu       0.00000000       0.00000000       0.00000000       0.00000000       0.00000000       0.93904120
Cu       0.00000000       0.00000000       3.00181818       0.00000000       0.00000000      -0.93904120
2
Properties=species:S:1:pos:R:3:forces:R:3 energy=-1.8862126802512642 pbc="F F F"
Cu       0.00000000       0.00000000       0.00000000       0.00000000       0.00000000       0.89554626
Cu       0.00000000       0.00000000       3.06060606       0.00000000       0.00000000      -0.89554626
2
Properties=species:S:1:pos:R:3:forces:R:3 energy=-1.8349318653868385 pbc="F F F"
Cu       0.00000000       0.00000000       0.00000000       0.00000000       0.00000000       0.84867936
Cu       0.00000000       0.00000000       3.11939394       0.00000000       0.00000000      -0.84867936
2
Properties=species:S:1:pos:R:3:forces:R:3 energy=-1.7864588536605353 pbc="F F F"
Cu       0.00000000       0.00000000       0.00000000       0.00000000       0.00000000       0.80024016
Cu       0.00000000       0.00000000       3.17818182       0.00000000       0.00000000      -0.80024016
2
Properties=species:S:1:pos:R:3:forces:R:3 energy=-1.7408485603229016 pbc="F F F"
Cu       0.00000000       0.00000000       0.00000000       0.00000000       0.00000000       0.75150156
Cu       0.00000000       0.00000000       3.23696970       0.00000000       0.00000000      -0.75150156
2
Properties=species:S:1:pos:R:3:forces:R:3 energy=-1.6980883335134773 pbc="F F F"
Cu       0.00000000       0.00000000       0.00000000       0.00000000       0.00000000       0.70338762
Cu       0.00000000       0.00000000       3.29575758       0.00000000       0.00000000      -0.70338762
2
Properties=species:S:1:pos:R:3:forces:R:3 energy=-1.658120822990576 pbc="F F F"
Cu       0.00000000       0.00000000       0.00000000       0.00000000       0.00000000       0.65659970
Cu       0.00000000       0.00000000       3.35454545       0.00000000       0.00000000      -0.65659970
2
Properties=species:S:1:pos:R:3:forces:R:3 energy=-1.6208513157829425 pbc="F F F"
Cu       0.00000000       0.00000000       0.00000000       0.00000000       0.00000000       0.61167449
Cu       0.00000000       0.00000000       3.41333333       0.00000000       0.00000000      -0.61167449
2
Properties=species:S:1:pos:R:3:forces:R:3 energy=-1.5861583818468534 pbc="F F F"
Cu       0.00000000       0.00000000       0.00000000       0.00000000       0.00000000       0.56899512
Cu       0.00000000       0.00000000       3.47212121       0.00000000       0.00000000      -0.56899512
2
Properties=species:S:1:pos:R:3:forces:R:3 energy=-1.5539033254542676 pbc="F F F"
Cu       0.00000000       0.00000000       0.00000000       0.00000000       0.00000000       0.52878457
Cu       0.00000000       0.00000000       3.53090909       0.00000000       0.00000000      -0.52878457
2
Properties=species:S:1:pos:R:3:forces:R:3 energy=-1.5239367277046596 pbc="F F F"
Cu       0.00000000       0.00000000       0.00000000       0.00000000       0.00000000       0.49109504
Cu       0.00000000       0.00000000       3.58969697       0.00000000       0.00000000      -0.49109504
2
Properties=species:S:1:pos:R:3:forces:R:3 energy=-1.4961143503818497 pbc="F F F"
Cu       0.00000000       0.00000000       0.00000000       0.00000000       0.00000000       0.45583892
Cu       0.00000000       0.00000000       3.64848485       0.00000000       0.00000000      -0.45583892
2
Properties=species:S:1:pos:R:3:forces:R:3 energy=-1.47029778502151 pbc="F F F"
Cu       0.00000000       0.00000000       0.00000000       0.00000000       0.00000000       0.42281580
Cu       0.00000000       0.00000000       3.70727273       0.00000000       0.00000000      -0.42281580
2
Properties=species:S:1:pos:R:3:forces:R:3 energy=-1.4463624537728037 pbc="F F F"
Cu       0.00000000       0.00000000       0.00000000       0.00000000       0.00000000       0.39177081
Cu       0.00000000       0.00000000       3.76606061       0.00000000       0.00000000      -0.39177081
2
Properties=species:S:1:pos:R:3:forces:R:3 energy=-1.4242013135579115 pbc="F F F"
Cu       0.00000000       0.00000000       0.00000000       0.00000000       0.00000000       0.36244273
Cu       0.00000000       0.00000000       3.82484848       0.00000000       0.00000000      -0.36244273
2
Properties=species:S:1:pos:R:3:forces:R:3 energy=-1.4037190516627556 pbc="F F F"
Cu       0.00000000       0.00000000       0.00000000       0.00000000       0.00000000       0.33460042
Cu       0.00000000       0.00000000       3.88363636       0.00000000       0.00000000      -0.33460042
2
Properties=species:S:1:pos:R:3:forces:R:3 energy=-1.3848346461528802 pbc="F F F"
Cu       0.00000000       0.00000000       0.00000000       0.00000000       0.00000000       0.30806947
Cu       0.00000000       0.00000000       3.94242424       0.00000000       0.00000000      -0.30806947
2
Properties=species:S:1:pos:R:3:forces:R:3 energy=-1.3674742259873665 pbc="F F F"
Cu       0.00000000       0.00000000       0.00000000       0.00000000       0.00000000       0.28274140
Cu       0.00000000       0.00000000       4.00121212       0.00000000       0.00000000      -0.28274140
2
Properties=species:S:1:pos:R:3:forces:R:3 energy=-1.3515686983363777 pbc="F F F"
Cu       0.00000000       0.00000000       0.00000000       0.00000000       0.00000000       0.25856549
Cu       0.00000000       0.00000000       4.06000000       0.00000000       0.00000000      -0.25856549
2
Properties=species:S:1:pos:R:3:forces:R:3 energy=-1.3370506416360357 pbc="F F F"
Cu       0.00000000       0.00000000       0.00000000       0.00000000       0.00000000       0.23554927
Cu       0.00000000       0.00000000       4.11878788       0.00000000       0.00000000      -0.23554927
2
Properties=species:S:1:pos:R:3:forces:R:3 energy=-1.3238500330609286 pbc="F F F"
Cu       0.00000000       0.00000000       0.00000000       0.00000000       0.00000000       0.21374108
Cu       0.00000000       0.00000000       4.17757576       0.00000000       0.00000000      -0.21374108
2
Properties=species:S:1:pos:R:3:forces:R:3 energy=-1.3118942430203857 pbc="F F F"
Cu       0.00000000       0.00000000       0.00000000       0.00000000       0.00000000       0.19322109
Cu       0.00000000       0.00000000       4.23636364       0.00000000       0.00000000      -0.19322109
2
Properties=species:S:1:pos:R:3:forces:R:3 energy=-1.3011046719557917 pbc="F F F"
Cu       0.00000000       0.00000000       0.00000000       0.00000000       0.00000000       0.17408286
Cu       0.00000000       0.00000000       4.29515152       0.00000000       0.00000000      -0.17408286
2
Properties=species:S:1:pos:R:3:forces:R:3 energy=-1.2913975551272632 pbc="F F F"
Cu       0.00000000       0.00000000       0.00000000       0.00000000       0.00000000       0.15642221
Cu       0.00000000       0.00000000       4.35393939       0.00000000       0.00000000      -0.15642221
2
Properties=species:S:1:pos:R:3:forces:R:3 energy=-1.2826830921346253 pbc="F F F"
Cu       0.00000000       0.00000000       0.00000000       0.00000000       0.00000000       0.14030936
Cu       0.00000000       0.00000000       4.41272727       0.00000000       0.00000000      -0.14030936
2
Properties=species:S:1:pos:R:3:forces:R:3 energy=-1.2748693839917902 pbc="F F F"
Cu       0.00000000       0.00000000       0.00000000       0.00000000       0.00000000       0.12578011
Cu       0.00000000       0.00000000       4.47151515       0.00000000       0.00000000      -0.12578011
2
Properties=species:S:1:pos:R:3:forces:R:3 energy=-1.2678635717826334 pbc="F F F"
Cu       0.00000000       0.00000000       0.00000000       0.00000000       0.00000000       0.11281370
Cu       0.00000000       0.00000000       4.53030303       0.00000000       0.00000000      -0.11281370
2
Properties=species:S:1:pos:R:3:forces:R:3 energy=-1.26157633968751 pbc="F F F"
Cu       0.00000000       0.00000000       0.00000000       0.00000000       0.00000000       0.10132380
Cu       0.00000000       0.00000000       4.58909091       0.00000000       0.00000000      -0.10132380
2
Properties=species:S:1:pos:R:3:forces:R:3 energy=-1.2559245154128682 pbc="F F F"
Cu       0.00000000       0.00000000       0.00000000       0.00000000       0.00000000       0.09115958
Cu       0.00000000       0.00000000       4.64787879       0.00000000       0.00000000      -0.09115958
2
Properties=species:S:1:pos:R:3:forces:R:3 energy=-1.2508360342158134 pbc="F F F"
Cu       0.00000000       0.00000000       0.00000000       0.00000000       0.00000000       0.08211569
Cu       0.00000000       0.00000000       4.70666667       0.00000000       0.00000000      -0.08211569
2
Properties=species:S:1:pos:R:3:forces:R:3 energy=-1.2462522882438538 pbc="F F F"
Cu       0.00000000       0.00000000       0.00000000       0.00000000       0.00000000       0.07396211
Cu       0.00000000       0.00000000       4.76545455       0.00000000       0.00000000      -0.07396211
2
Properties=species:S:1:pos:R:3:forces:R:3 energy=-1.2421265383843123 pbc="F F F"
Cu       0.00000000       0.00000000       0.00000000       0.00000000       0.00000000       0.06648432
Cu       0.00000000       0.00000000       4.82424242       0.00000000       0.00000000      -0.06648432
2
Properties=species:S:1:pos:R:3:forces:R:3 energy=-1.2384252002239347 pbc="F F F"
Cu       0.00000000       0.00000000       0.00000000       0.00000000       0.00000000       0.05953517
Cu       0.00000000       0.00000000       4.88303030       0.00000000       0.00000000      -0.05953517
2
Properties=species:S:1:pos:R:3:forces:R:3 energy=-1.2351173932291848 pbc="F F F"
Cu       0.00000000       0.00000000       0.00000000       0.00000000       0.00000000       0.05307505
Cu       0.00000000       0.00000000       4.94181818       0.00000000       0.00000000      -0.05307505
2
Properties=species:S:1:pos:R:3:forces:R:3 energy=-1.2321730666597455 pbc="F F F"
Cu       0.00000000       0.00000000       0.00000000       0.00000000       0.00000000       0.04721211
Cu       0.00000000       0.00000000       5.00060606       0.00000000       0.00000000      -0.04721211
2
Properties=species:S:1:pos:R:3:forces:R:3 energy=-1.2295501134619105 pbc="F F F"
Cu       0.00000000       0.00000000       0.00000000       0.00000000       0.00000000       0.04217499
Cu       0.00000000       0.00000000       5.05939394       0.00000000       0.00000000      -0.04217499
2
Properties=species:S:1:pos:R:3:forces:R:3 energy=-1.2271925567866628 pbc="F F F"
Cu       0.00000000       0.00000000       0.00000000       0.00000000       0.00000000       0.03823936
Cu       0.00000000       0.00000000       5.11818182       0.00000000       0.00000000      -0.03823936
2
Properties=species:S:1:pos:R:3:forces:R:3 energy=-1.2250291955059334 pbc="F F F"
Cu       0.00000000       0.00000000       0.00000000       0.00000000       0.00000000       0.03557149
Cu       0.00000000       0.00000000       5.17696970       0.00000000       0.00000000      -0.03557149
2
Properties=species:S:1:pos:R:3:forces:R:3 energy=-1.2229878819848987 pbc="F F F"
Cu       0.00000000       0.00000000       0.00000000       0.00000000       0.00000000       0.03403697
Cu       0.00000000       0.00000000       5.23575758       0.00000000       0.00000000      -0.03403697
2
Properties=species:S:1:pos:R:3:forces:R:3 energy=-1.2210158807359612 pbc="F F F"
Cu       0.00000000       0.00000000       0.00000000       0.00000000       0.00000000       0.03307993
Cu       0.00000000       0.00000000       5.29454545       0.00000000       0.00000000      -0.03307993
2
Properties=species:S:1:pos:R:3:forces:R:3 energy=-1.2191032179763883 pbc="F F F"
Cu       0.00000000       0.00000000       0.00000000       0.00000000       0.00000000       0.03188932
Cu       0.00000000       0.00000000       5.35333333       0.00000000       0.00000000      -0.03188932
2
Properties=species:S:1:pos:R:3:forces:R:3 energy=-1.2172790067311785 pbc="F F F"
Cu       0.00000000       0.00000000       0.00000000       0.00000000       0.00000000       0.03010793
Cu       0.00000000       0.00000000       5.41212121       0.00000000       0.00000000      -0.03010793
2
Properties=species:S:1:pos:R:3:forces:R:3 energy=-1.2155597242565976 pbc="F F F"
Cu       0.00000000       0.00000000       0.00000000       0.00000000       0.00000000       0.02849744
Cu       0.00000000       0.00000000       5.47090909       0.00000000       0.00000000      -0.02849744
2
Properties=species:S:1:pos:R:3:forces:R:3 energy=-1.213917322555288 pbc="F F F"
Cu       0.00000000       0.00000000       0.00000000       0.00000000       0.00000000       0.02734084
Cu       0.00000000       0.00000000       5.52969697       0.00000000       0.00000000      -0.02734084
2
Properties=species:S:1:pos:R:3:forces:R:3 energy=-1.2123685383088967 pbc="F F F"
Cu       0.00000000       0.00000000       0.00000000       0.00000000       0.00000000       0.02505773
Cu       0.00000000       0.00000000       5.58848485       0.00000000       0.00000000      -0.02505773
2
Properties=species:S:1:pos:R:3:forces:R:3 energy=-1.2110017300153813 pbc="F F F"
Cu       0.00000000       0.00000000       0.00000000       0.00000000       0.00000000       0.02130917
Cu       0.00000000       0.00000000       5.64727273       0.00000000       0.00000000      -0.02130917
2
Properties=species:S:1:pos:R:3:forces:R:3 energy=-1.20986018238996 pbc="F F F"
Cu       0.00000000       0.00000000       0.00000000       0.00000000       0.00000000       0.01777073
Cu       0.00000000       0.00000000       5.70606061       0.00000000       0.00000000      -0.01777073
2
Properties=species:S:1:pos:R:3:forces:R:3 energy=-1.208862524452891 pbc="F F F"
Cu       0.00000000       0.00000000       0.00000000       0.00000000       0.00000000       0.01651131
Cu       0.00000000       0.00000000       5.76484848       0.00000000       0.00000000      -0.01651131
2
Properties=species:S:1:pos:R:3:forces:R:3 energy=-1.2079132127822205 pbc="F F F"
Cu       0.00000000       0.00000000       0.00000000       0.00000000       0.00000000       0.01546126
Cu       0.00000000       0.00000000       5.82363636       0.00000000       0.00000000      -0.01546126
2
Properties=species:S:1:pos:R:3:forces:R:3 energy=-1.2071024676671134 pbc="F F F"
Cu       0.00000000       0.00000000       0.00000000       0.00000000       0.00000000       0.01179835
Cu       0.00000000       0.00000000       5.88242424       0.00000000       0.00000000      -0.01179835
2
Properties=species:S:1:pos:R:3:forces:R:3 energy=-1.206537733347185 pbc="F F F"
Cu       0.00000000       0.00000000       0.00000000       0.00000000       0.00000000       0.00756435
Cu       0.00000000       0.00000000       5.94121212       0.00000000       0.00000000      -0.00756435
2
Properties=species:S:1:pos:R:3:forces:R:3 energy=-1.2061662755827145 pbc="F F F"
Cu       0.00000000       0.00000000       0.00000000       0.00000000       0.00000000       0.00560382
Cu       0.00000000       0.00000000       6.00000000       0.00000000       0.00000000      -0.00560382
