2
Properties=species:S:1:pos:R:3:forces:R:3 energy=11972.296532627633 pbc="F F F"
Eu       0.00000000       0.00000000       0.00000000       0.00000000       0.00000000 -204405.32812500
Eu       0.00000000       0.00000000       0.18000000       0.00000000       0.00000000  204405.32812500
2
Properties=species:S:1:pos:R:3:forces:R:3 energy=4782.4200677838835 pbc="F F F"
Eu       0.00000000       0.00000000       0.00000000       0.00000000       0.00000000  -68675.89062500
Eu       0.00000000       0.00000000       0.23878788       0.00000000       0.00000000   68675.89062500
2
Properties=species:S:1:pos:R:3:forces:R:3 energy=2178.101220127634 pbc="F F F"
Eu       0.00000000       0.00000000       0.00000000       0.00000000       0.00000000  -27164.19726562
Eu       0.00000000       0.00000000       0.29757576       0.00000000       0.00000000   27164.19726562
2
Properties=species:S:1:pos:R:3:forces:R:3 energy=1098.8565912245517 pbc="F F F"
Eu       0.00000000       0.00000000       0.00000000       0.00000000       0.00000000  -11882.93261719
Eu       0.00000000       0.00000000       0.35636364       0.00000000       0.00000000   11882.93261719
2
Properties=species:S:1:pos:R:3:forces:R:3 energy=611.3111810683017 pbc="F F F"
Eu       0.00000000       0.00000000       0.00000000       0.00000000       0.00000000   -5574.71240234
Eu       0.00000000       0.00000000       0.41515152       0.00000000       0.00000000    5574.71240234
2
Properties=species:S:1:pos:R:3:forces:R:3 energy=376.8960504562352 pbc="F F F"
Eu       0.00000000       0.00000000       0.00000000       0.00000000       0.00000000   -2759.07006836
Eu       0.00000000       0.00000000       0.47393939       0.00000000       0.00000000    2759.07006836
2
Properties=species:S:1:pos:R:3:forces:R:3 energy=258.56685734733645 pbc="F F F"
Eu       0.00000000       0.00000000       0.00000000       0.00000000       0.00000000   -1425.10644531
Eu       0.00000000       0.00000000       0.53272727       0.00000000       0.00000000    1425.10644531
2
Properties=species:S:1:pos:R:3:forces:R:3 energy=196.48378850601586 pbc="F F F"
Eu       0.00000000       0.00000000       0.00000000       0.00000000       0.00000000    -760.93005371
Eu       0.00000000       0.00000000       0.59151515       0.00000000       0.00000000     760.93005371
2
Properties=species:S:1:pos:R:3:forces:R:3 energy=162.95757391907776 pbc="F F F"
Eu       0.00000000       0.00000000       0.00000000       0.00000000       0.00000000    -416.30844116
Eu       0.00000000       0.00000000       0.65030303       0.00000000       0.00000000     416.30844116
2
Properties=species:S:1:pos:R:3:forces:R:3 energy=144.2938776490222 pbc="F F F"
Eu       0.00000000       0.00000000       0.00000000       0.00000000       0.00000000    -240.01734924
Eu       0.00000000       0.00000000       0.70909091       0.00000000       0.00000000     240.01734924
2
Properties=species:S:1:pos:R:3:forces:R:3 energy=132.77097423831762 pbc="F F F"
Eu       0.00000000       0.00000000       0.00000000       0.00000000       0.00000000    -163.60664368
Eu       0.00000000       0.00000000       0.76787879       0.00000000       0.00000000     163.60664368
2
Properties=species:S:1:pos:R:3:forces:R:3 energy=124.2037364286632 pbc="F F F"
Eu       0.00000000       0.00000000       0.00000000       0.00000000       0.00000000    -132.61921692
Eu       0.00000000       0.00000000       0.82666667       0.00000000       0.00000000     132.61921692
2
Properties=species:S:1:pos:R:3:forces:R:3 energy=116.71997184358216 pbc="F F F"
Eu       0.00000000       0.00000000       0.00000000       0.00000000       0.00000000    -124.95279694
Eu       0.00000000       0.00000000       0.88545455       0.00000000       0.00000000     124.95279694
2
Properties=species:S:1:pos:R:3:forces:R:3 energy=109.31770447622648 pbc="F F F"
Eu       0.00000000       0.00000000       0.00000000       0.00000000       0.00000000    -127.72894287
Eu       0.00000000       0.00000000       0.94424242       0.00000000       0.00000000     127.72894287
2
Properties=species:S:1:pos:R:3:forces:R:3 energy=101.3680357154942 pbc="F F F"
Eu       0.00000000       0.00000000       0.00000000       0.00000000       0.00000000    -147.68342590
Eu       0.00000000       0.00000000       1.00303030       0.00000000       0.00000000     147.68342590
2
Properties=species:S:1:pos:R:3:forces:R:3 energy=91.96753081747082 pbc="F F F"
Eu       0.00000000       0.00000000       0.00000000       0.00000000       0.00000000    -166.24171448
Eu       0.00000000       0.00000000       1.06181818       0.00000000       0.00000000     166.24171448
2
Properties=species:S:1:pos:R:3:forces:R:3 energy=82.20141775796836 pbc="F F F"
Eu       0.00000000       0.00000000       0.00000000       0.00000000       0.00000000    -170.27169800
Eu       0.00000000       0.00000000       1.12060606       0.00000000       0.00000000     170.27169800
2
Properties=species:S:1:pos:R:3:forces:R:3 energy=69.77781880624394 pbc="F F F"
Eu       0.00000000       0.00000000       0.00000000       0.00000000       0.00000000    -227.27908325
Eu       0.00000000       0.00000000       1.17939394       0.00000000       0.00000000     227.27908325
2
Properties=species:S:1:pos:R:3:forces:R:3 energy=56.65293362096492 pbc="F F F"
Eu       0.00000000       0.00000000       0.00000000       0.00000000       0.00000000    -218.21601868
Eu       0.00000000       0.00000000       1.23818182       0.00000000       0.00000000     218.21601868
2
Properties=species:S:1:pos:R:3:forces:R:3 energy=44.37260725604435 pbc="F F F"
Eu       0.00000000       0.00000000       0.00000000       0.00000000       0.00000000    -198.15077209
Eu       0.00000000       0.00000000       1.29696970       0.00000000       0.00000000     198.15077209
2
Properties=species:S:1:pos:R:3:forces:R:3 energy=33.44592634571151 pbc="F F F"
Eu       0.00000000       0.00000000       0.00000000       0.00000000       0.00000000    -173.16363525
Eu       0.00000000       0.00000000       1.35575758       0.00000000       0.00000000     173.16363525
2
Properties=species:S:1:pos:R:3:forces:R:3 energy=24.040838678138385 pbc="F F F"
Eu       0.00000000       0.00000000       0.00000000       0.00000000       0.00000000    -146.71267700
Eu       0.00000000       0.00000000       1.41454545       0.00000000       0.00000000     146.71267700
2
Properties=species:S:1:pos:R:3:forces:R:3 energy=16.18962425960056 pbc="F F F"
Eu       0.00000000       0.00000000       0.00000000       0.00000000       0.00000000    -120.54225159
Eu       0.00000000       0.00000000       1.47333333       0.00000000       0.00000000     120.54225159
2
Properties=species:S:1:pos:R:3:forces:R:3 energy=9.850435889604519 pbc="F F F"
Eu       0.00000000       0.00000000       0.00000000       0.00000000       0.00000000     -95.29484558
Eu       0.00000000       0.00000000       1.53212121       0.00000000       0.00000000      95.29484558
2
Properties=species:S:1:pos:R:3:forces:R:3 energy=4.9380284800534895 pbc="F F F"
Eu       0.00000000       0.00000000       0.00000000       0.00000000       0.00000000     -72.56810760
Eu       0.00000000       0.00000000       1.59090909       0.00000000       0.00000000      72.56810760
2
Properties=species:S:1:pos:R:3:forces:R:3 energy=1.1982211734294999 pbc="F F F"
Eu       0.00000000       0.00000000       0.00000000       0.00000000       0.00000000     -55.80979538
Eu       0.00000000       0.00000000       1.64969697       0.00000000       0.00000000      55.80979538
2
Properties=species:S:1:pos:R:3:forces:R:3 energy=-1.7474468763478235 pbc="F F F"
Eu       0.00000000       0.00000000       0.00000000       0.00000000       0.00000000     -45.26934814
Eu       0.00000000       0.00000000       1.70848485       0.00000000       0.00000000      45.26934814
2
Properties=species:S:1:pos:R:3:forces:R:3 energy=-4.199465025245573 pbc="F F F"
Eu       0.00000000       0.00000000       0.00000000       0.00000000       0.00000000     -38.57391357
Eu       0.00000000       0.00000000       1.76727273       0.00000000       0.00000000      38.57391357
2
Properties=species:S:1:pos:R:3:forces:R:3 energy=-6.313629260932695 pbc="F F F"
Eu       0.00000000       0.00000000       0.00000000       0.00000000       0.00000000     -33.49940491
Eu       0.00000000       0.00000000       1.82606061       0.00000000       0.00000000      33.49940491
2
Properties=species:S:1:pos:R:3:forces:R:3 energy=-8.150003823177357 pbc="F F F"
Eu       0.00000000       0.00000000       0.00000000       0.00000000       0.00000000     -29.05812836
Eu       0.00000000       0.00000000       1.88484848       0.00000000       0.00000000      29.05812836
2
Properties=species:S:1:pos:R:3:forces:R:3 energy=-9.73991396988718 pbc="F F F"
Eu       0.00000000       0.00000000       0.00000000       0.00000000       0.00000000     -25.11338234
Eu       0.00000000       0.00000000       1.94363636       0.00000000       0.00000000      25.11338234
2
Properties=species:S:1:pos:R:3:forces:R:3 energy=-11.111324248692634 pbc="F F F"
Eu       0.00000000       0.00000000       0.00000000       0.00000000       0.00000000     -21.60280991
Eu       0.00000000       0.00000000       2.00242424       0.00000000       0.00000000      21.60280991
2
Properties=species:S:1:pos:R:3:forces:R:3 energy=-12.285251550444995 pbc="F F F"
Eu       0.00000000       0.00000000       0.00000000       0.00000000       0.00000000     -18.36887550
Eu       0.00000000       0.00000000       2.06121212       0.00000000       0.00000000      18.36887550
2
Properties=species:S:1:pos:R:3:forces:R:3 energy=-13.27443786066497 pbc="F F F"
Eu       0.00000000       0.00000000       0.00000000       0.00000000       0.00000000     -15.31270218
Eu       0.00000000       0.00000000       2.12000000       0.00000000       0.00000000      15.31270218
2
Properties=species:S:1:pos:R:3:forces:R:3 energy=-14.089760718913398 pbc="F F F"
Eu       0.00000000       0.00000000       0.00000000       0.00000000       0.00000000     -12.46942711
Eu       0.00000000       0.00000000       2.17878788       0.00000000       0.00000000      12.46942711
2
Properties=species:S:1:pos:R:3:forces:R:3 energy=-14.747062505913624 pbc="F F F"
Eu       0.00000000       0.00000000       0.00000000       0.00000000       0.00000000      -9.95762920
Eu       0.00000000       0.00000000       2.23757576       0.00000000       0.00000000       9.95762920
2
Properties=species:S:1:pos:R:3:forces:R:3 energy=-15.268892825534495 pbc="F F F"
Eu       0.00000000       0.00000000       0.00000000       0.00000000       0.00000000      -7.86881256
Eu       0.00000000       0.00000000       2.29636364       0.00000000       0.00000000       7.86881256
2
Properties=species:S:1:pos:R:3:forces:R:3 energy=-15.680588028871174 pbc="F F F"
Eu       0.00000000       0.00000000       0.00000000       0.00000000       0.00000000      -6.20400095
Eu       0.00000000       0.00000000       2.35515152       0.00000000       0.00000000       6.20400095
2
Properties=species:S:1:pos:R:3:forces:R:3 energy=-16.00553821414401 pbc="F F F"
Eu       0.00000000       0.00000000       0.00000000       0.00000000       0.00000000      -4.90674686
Eu       0.00000000       0.00000000       2.41393939       0.00000000       0.00000000       4.90674686
2
Properties=species:S:1:pos:R:3:forces:R:3 energy=-16.26346307856915 pbc="F F F"
Eu       0.00000000       0.00000000       0.00000000       0.00000000       0.00000000      -3.91376328
Eu       0.00000000       0.00000000       2.47272727       0.00000000       0.00000000       3.91376328
2
Properties=species:S:1:pos:R:3:forces:R:3 energy=-16.47049702979152 pbc="F F F"
Eu       0.00000000       0.00000000       0.00000000       0.00000000       0.00000000      -3.16543555
Eu       0.00000000       0.00000000       2.53151515       0.00000000       0.00000000       3.16543555
2
Properties=species:S:1:pos:R:3:forces:R:3 energy=-16.639258937158463 pbc="F F F"
Eu       0.00000000       0.00000000       0.00000000       0.00000000       0.00000000      -2.60189843
Eu       0.00000000       0.00000000       2.59030303       0.00000000       0.00000000       2.60189843
2
Properties=species:S:1:pos:R:3:forces:R:3 energy=-16.778968058506155 pbc="F F F"
Eu       0.00000000       0.00000000       0.00000000       0.00000000       0.00000000      -2.16897082
Eu       0.00000000       0.00000000       2.64909091       0.00000000       0.00000000       2.16897082
2
Properties=species:S:1:pos:R:3:forces:R:3 energy=-16.89602241345825 pbc="F F F"
Eu       0.00000000       0.00000000       0.00000000       0.00000000       0.00000000      -1.82552755
Eu       0.00000000       0.00000000       2.70787879       0.00000000       0.00000000       1.82552755
2
Properties=species:S:1:pos:R:3:forces:R:3 energy=-16.994808237348767 pbc="F F F"
Eu       0.00000000       0.00000000       0.00000000       0.00000000       0.00000000      -1.54381597
Eu       0.00000000       0.00000000       2.76666667       0.00000000       0.00000000       1.54381597
2
Properties=species:S:1:pos:R:3:forces:R:3 energy=-17.078391546997096 pbc="F F F"
Eu       0.00000000       0.00000000       0.00000000       0.00000000       0.00000000      -1.30597258
Eu       0.00000000       0.00000000       2.82545455       0.00000000       0.00000000       1.30597258
2
Properties=species:S:1:pos:R:3:forces:R:3 energy=-17.14900010087401 pbc="F F F"
Eu       0.00000000       0.00000000       0.00000000       0.00000000       0.00000000      -1.10093021
Eu       0.00000000       0.00000000       2.88424242       0.00000000       0.00000000       1.10093021
2
Properties=species:S:1:pos:R:3:forces:R:3 energy=-17.208353417612766 pbc="F F F"
Eu       0.00000000       0.00000000       0.00000000       0.00000000       0.00000000      -0.92241824
Eu       0.00000000       0.00000000       2.94303030       0.00000000       0.00000000       0.92241824
2
Properties=species:S:1:pos:R:3:forces:R:3 energy=-17.257907996541785 pbc="F F F"
Eu       0.00000000       0.00000000       0.00000000       0.00000000       0.00000000      -0.76717407
Eu       0.00000000       0.00000000       3.00181818       0.00000000       0.00000000       0.76717407
2
Properties=species:S:1:pos:R:3:forces:R:3 energy=-17.298970056522997 pbc="F F F"
Eu       0.00000000       0.00000000       0.00000000       0.00000000       0.00000000      -0.63316220
Eu       0.00000000       0.00000000       3.06060606       0.00000000       0.00000000       0.63316220
2
Properties=species:S:1:pos:R:3:forces:R:3 energy=-17.33273051033605 pbc="F F F"
Eu       0.00000000       0.00000000       0.00000000       0.00000000       0.00000000      -0.51836002
Eu       0.00000000       0.00000000       3.11939394       0.00000000       0.00000000       0.51836002
2
Properties=species:S:1:pos:R:3:forces:R:3 energy=-17.360249897527883 pbc="F F F"
Eu       0.00000000       0.00000000       0.00000000       0.00000000       0.00000000      -0.42055842
Eu       0.00000000       0.00000000       3.17818182       0.00000000       0.00000000       0.42055842
2
Properties=species:S:1:pos:R:3:forces:R:3 energy=-17.38247553532155 pbc="F F F"
Eu       0.00000000       0.00000000       0.00000000       0.00000000       0.00000000      -0.33803168
Eu       0.00000000       0.00000000       3.23696970       0.00000000       0.00000000       0.33803168
2
Properties=species:S:1:pos:R:3:forces:R:3 energy=-17.400283828077995 pbc="F F F"
Eu       0.00000000       0.00000000       0.00000000       0.00000000       0.00000000      -0.27031636
Eu       0.00000000       0.00000000       3.29575758       0.00000000       0.00000000       0.27031636
2
Properties=species:S:1:pos:R:3:forces:R:3 energy=-17.414570170176138 pbc="F F F"
Eu       0.00000000       0.00000000       0.00000000       0.00000000       0.00000000      -0.21853030
Eu       0.00000000       0.00000000       3.35454545       0.00000000       0.00000000       0.21853030
2
Properties=species:S:1:pos:R:3:forces:R:3 energy=-17.42633238493728 pbc="F F F"
Eu       0.00000000       0.00000000       0.00000000       0.00000000       0.00000000      -0.18486524
Eu       0.00000000       0.00000000       3.41333333       0.00000000       0.00000000       0.18486524
2
Properties=species:S:1:pos:R:3:forces:R:3 energy=-17.436692139132 pbc="F F F"
Eu       0.00000000       0.00000000       0.00000000       0.00000000       0.00000000      -0.17079784
Eu       0.00000000       0.00000000       3.47212121       0.00000000       0.00000000       0.17079784
2
Properties=species:S:1:pos:R:3:forces:R:3 energy=-17.446738923902966 pbc="F F F"
Eu       0.00000000       0.00000000       0.00000000       0.00000000       0.00000000      -0.17290397
Eu       0.00000000       0.00000000       3.53090909       0.00000000       0.00000000       0.17290397
2
Properties=species:S:1:pos:R:3:forces:R:3 energy=-17.45705951433888 pbc="F F F"
Eu       0.00000000       0.00000000       0.00000000       0.00000000       0.00000000      -0.17644562
Eu       0.00000000       0.00000000       3.58969697       0.00000000       0.00000000       0.17644562
2
Properties=species:S:1:pos:R:3:forces:R:3 energy=-17.466992917932643 pbc="F F F"
Eu       0.00000000       0.00000000       0.00000000       0.00000000       0.00000000      -0.15510391
Eu       0.00000000       0.00000000       3.64848485       0.00000000       0.00000000       0.15510391
2
Properties=species:S:1:pos:R:3:forces:R:3 energy=-17.47443076630062 pbc="F F F"
Eu       0.00000000       0.00000000       0.00000000       0.00000000       0.00000000      -0.09090453
Eu       0.00000000       0.00000000       3.70727273       0.00000000       0.00000000       0.09090453
2
Properties=species:S:1:pos:R:3:forces:R:3 energy=-17.47710060914769 pbc="F F F"
Eu       0.00000000       0.00000000       0.00000000       0.00000000       0.00000000       0.00223015
Eu       0.00000000       0.00000000       3.76606061       0.00000000       0.00000000      -0.00223015
2
Properties=species:S:1:pos:R:3:forces:R:3 energy=-17.47424121642915 pbc="F F F"
Eu       0.00000000       0.00000000       0.00000000       0.00000000       0.00000000       0.09232296
Eu       0.00000000       0.00000000       3.82484848       0.00000000       0.00000000      -0.09232296
2
Properties=species:S:1:pos:R:3:forces:R:3 energy=-17.466680468820048 pbc="F F F"
Eu       0.00000000       0.00000000       0.00000000       0.00000000       0.00000000       0.16088547
Eu       0.00000000       0.00000000       3.88363636       0.00000000       0.00000000      -0.16088547
2
Properties=species:S:1:pos:R:3:forces:R:3 energy=-17.455747774418345 pbc="F F F"
Eu       0.00000000       0.00000000       0.00000000       0.00000000       0.00000000       0.20807458
Eu       0.00000000       0.00000000       3.94242424       0.00000000       0.00000000      -0.20807458
2
Properties=species:S:1:pos:R:3:forces:R:3 energy=-17.44249966831918 pbc="F F F"
Eu       0.00000000       0.00000000       0.00000000       0.00000000       0.00000000       0.24072185
Eu       0.00000000       0.00000000       4.00121212       0.00000000       0.00000000      -0.24072185
2
Properties=species:S:1:pos:R:3:forces:R:3 energy=-17.427613914558343 pbc="F F F"
Eu       0.00000000       0.00000000       0.00000000       0.00000000       0.00000000       0.26460406
Eu       0.00000000       0.00000000       4.06000000       0.00000000       0.00000000      -0.26460406
2
Properties=species:S:1:pos:R:3:forces:R:3 energy=-17.411492403892368 pbc="F F F"
Eu       0.00000000       0.00000000       0.00000000       0.00000000       0.00000000       0.28312275
Eu       0.00000000       0.00000000       4.11878788       0.00000000       0.00000000      -0.28312275
2
Properties=species:S:1:pos:R:3:forces:R:3 energy=-17.394392440380194 pbc="F F F"
Eu       0.00000000       0.00000000       0.00000000       0.00000000       0.00000000       0.29814428
Eu       0.00000000       0.00000000       4.17757576       0.00000000       0.00000000      -0.29814428
2
Properties=species:S:1:pos:R:3:forces:R:3 energy=-17.376485368238512 pbc="F F F"
Eu       0.00000000       0.00000000       0.00000000       0.00000000       0.00000000       0.31078649
Eu       0.00000000       0.00000000       4.23636364       0.00000000       0.00000000      -0.31078649
2
Properties=species:S:1:pos:R:3:forces:R:3 energy=-17.3578831229285 pbc="F F F"
Eu       0.00000000       0.00000000       0.00000000       0.00000000       0.00000000       0.32180431
Eu       0.00000000       0.00000000       4.29515152       0.00000000       0.00000000      -0.32180431
2
Properties=species:S:1:pos:R:3:forces:R:3 energy=-17.33867066619626 pbc="F F F"
Eu       0.00000000       0.00000000       0.00000000       0.00000000       0.00000000       0.33173400
Eu       0.00000000       0.00000000       4.35393939       0.00000000       0.00000000      -0.33173400
2
Properties=species:S:1:pos:R:3:forces:R:3 energy=-17.318894851468514 pbc="F F F"
Eu       0.00000000       0.00000000       0.00000000       0.00000000       0.00000000       0.34092441
Eu       0.00000000       0.00000000       4.41272727       0.00000000       0.00000000      -0.34092441
2
Properties=species:S:1:pos:R:3:forces:R:3 energy=-17.298595492312067 pbc="F F F"
Eu       0.00000000       0.00000000       0.00000000       0.00000000       0.00000000       0.34956640
Eu       0.00000000       0.00000000       4.47151515       0.00000000       0.00000000      -0.34956640
2
Properties=species:S:1:pos:R:3:forces:R:3 energy=-17.277804544816 pbc="F F F"
Eu       0.00000000       0.00000000       0.00000000       0.00000000       0.00000000       0.35768369
Eu       0.00000000       0.00000000       4.53030303       0.00000000       0.00000000      -0.35768369
2
Properties=species:S:1:pos:R:3:forces:R:3 energy=-17.25655397774068 pbc="F F F"
Eu       0.00000000       0.00000000       0.00000000       0.00000000       0.00000000       0.36513916
Eu       0.00000000       0.00000000       4.58909091       0.00000000       0.00000000      -0.36513916
2
Properties=species:S:1:pos:R:3:forces:R:3 energy=-17.234891436788057 pbc="F F F"
Eu       0.00000000       0.00000000       0.00000000       0.00000000       0.00000000       0.37164688
Eu       0.00000000       0.00000000       4.64787879       0.00000000       0.00000000      -0.37164688
2
Properties=species:S:1:pos:R:3:forces:R:3 energy=-17.212884262039566 pbc="F F F"
Eu       0.00000000       0.00000000       0.00000000       0.00000000       0.00000000       0.37679598
Eu       0.00000000       0.00000000       4.70666667       0.00000000       0.00000000      -0.37679598
2
Properties=species:S:1:pos:R:3:forces:R:3 energy=-17.190624703150444 pbc="F F F"
Eu       0.00000000       0.00000000       0.00000000       0.00000000       0.00000000       0.38012639
Eu       0.00000000       0.00000000       4.76545455       0.00000000       0.00000000      -0.38012639
2
Properties=species:S:1:pos:R:3:forces:R:3 energy=-17.16823262498958 pbc="F F F"
Eu       0.00000000       0.00000000       0.00000000       0.00000000       0.00000000       0.38126394
Eu       0.00000000       0.00000000       4.82424242       0.00000000       0.00000000      -0.38126394
2
Properties=species:S:1:pos:R:3:forces:R:3 energy=-17.145845540072525 pbc="F F F"
Eu       0.00000000       0.00000000       0.00000000       0.00000000       0.00000000       0.38006455
Eu       0.00000000       0.00000000       4.88303030       0.00000000       0.00000000      -0.38006455
2
Properties=species:S:1:pos:R:3:forces:R:3 energy=-17.12358840142993 pbc="F F F"
Eu       0.00000000       0.00000000       0.00000000       0.00000000       0.00000000       0.37677294
Eu       0.00000000       0.00000000       4.94181818       0.00000000       0.00000000      -0.37677294
2
Properties=species:S:1:pos:R:3:forces:R:3 energy=-17.101571251763822 pbc="F F F"
Eu       0.00000000       0.00000000       0.00000000       0.00000000       0.00000000       0.37208933
Eu       0.00000000       0.00000000       5.00060606       0.00000000       0.00000000      -0.37208933
2
Properties=species:S:1:pos:R:3:forces:R:3 energy=-17.079845715560776 pbc="F F F"
Eu       0.00000000       0.00000000       0.00000000       0.00000000       0.00000000       0.36705476
Eu       0.00000000       0.00000000       5.05939394       0.00000000       0.00000000      -0.36705476
2
Properties=species:S:1:pos:R:3:forces:R:3 energy=-17.0584012350798 pbc="F F F"
Eu       0.00000000       0.00000000       0.00000000       0.00000000       0.00000000       0.36271456
Eu       0.00000000       0.00000000       5.11818182       0.00000000       0.00000000      -0.36271456
2
Properties=species:S:1:pos:R:3:forces:R:3 energy=-17.03717807966796 pbc="F F F"
Eu       0.00000000       0.00000000       0.00000000       0.00000000       0.00000000       0.35945934
Eu       0.00000000       0.00000000       5.17696970       0.00000000       0.00000000      -0.35945934
2
Properties=species:S:1:pos:R:3:forces:R:3 energy=-17.01613998973521 pbc="F F F"
Eu       0.00000000       0.00000000       0.00000000       0.00000000       0.00000000       0.35604697
Eu       0.00000000       0.00000000       5.23575758       0.00000000       0.00000000      -0.35604697
2
Properties=species:S:1:pos:R:3:forces:R:3 energy=-16.995388440274287 pbc="F F F"
Eu       0.00000000       0.00000000       0.00000000       0.00000000       0.00000000       0.34882608
Eu       0.00000000       0.00000000       5.29454545       0.00000000       0.00000000      -0.34882608
2
Properties=species:S:1:pos:R:3:forces:R:3 energy=-16.97528286718104 pbc="F F F"
Eu       0.00000000       0.00000000       0.00000000       0.00000000       0.00000000       0.33379203
Eu       0.00000000       0.00000000       5.35333333       0.00000000       0.00000000      -0.33379203
2
Properties=species:S:1:pos:R:3:forces:R:3 energy=-16.956223090126116 pbc="F F F"
Eu       0.00000000       0.00000000       0.00000000       0.00000000       0.00000000       0.31533498
Eu       0.00000000       0.00000000       5.41212121       0.00000000       0.00000000      -0.31533498
2
Properties=species:S:1:pos:R:3:forces:R:3 energy=-16.937960575964812 pbc="F F F"
Eu       0.00000000       0.00000000       0.00000000       0.00000000       0.00000000       0.30872867
Eu       0.00000000       0.00000000       5.47090909       0.00000000       0.00000000      -0.30872867
2
Properties=species:S:1:pos:R:3:forces:R:3 energy=-16.919756805694423 pbc="F F F"
Eu       0.00000000       0.00000000       0.00000000       0.00000000       0.00000000       0.30925038
Eu       0.00000000       0.00000000       5.52969697       0.00000000       0.00000000      -0.30925038
2
Properties=species:S:1:pos:R:3:forces:R:3 energy=-16.90202537491419 pbc="F F F"
Eu       0.00000000       0.00000000       0.00000000       0.00000000       0.00000000       0.28964084
Eu       0.00000000       0.00000000       5.58848485       0.00000000       0.00000000      -0.28964084
2
Properties=species:S:1:pos:R:3:forces:R:3 energy=-16.88604962386426 pbc="F F F"
Eu       0.00000000       0.00000000       0.00000000       0.00000000       0.00000000       0.25385275
Eu       0.00000000       0.00000000       5.64727273       0.00000000       0.00000000      -0.25385275
2
Properties=species:S:1:pos:R:3:forces:R:3 energy=-16.871800408842233 pbc="F F F"
Eu       0.00000000       0.00000000       0.00000000       0.00000000       0.00000000       0.23744106
Eu       0.00000000       0.00000000       5.70606061       0.00000000       0.00000000      -0.23744106
2
Properties=species:S:1:pos:R:3:forces:R:3 energy=-16.85727432825527 pbc="F F F"
Eu       0.00000000       0.00000000       0.00000000       0.00000000       0.00000000       0.25960422
Eu       0.00000000       0.00000000       5.76484848       0.00000000       0.00000000      -0.25960422
2
Properties=species:S:1:pos:R:3:forces:R:3 energy=-16.84176288016288 pbc="F F F"
Eu       0.00000000       0.00000000       0.00000000       0.00000000       0.00000000       0.25664499
Eu       0.00000000       0.00000000       5.82363636       0.00000000       0.00000000      -0.25664499
2
Properties=species:S:1:pos:R:3:forces:R:3 energy=-16.828747526061903 pbc="F F F"
Eu       0.00000000       0.00000000       0.00000000       0.00000000       0.00000000       0.17722887
Eu       0.00000000       0.00000000       5.88242424       0.00000000       0.00000000      -0.17722887
2
Properties=species:S:1:pos:R:3:forces:R:3 energy=-16.8212878992904 pbc="F F F"
Eu       0.00000000       0.00000000       0.00000000       0.00000000       0.00000000       0.08001497
Eu       0.00000000       0.00000000       5.94121212       0.00000000       0.00000000      -0.08001497
2
Properties=species:S:1:pos:R:3:forces:R:3 energy=-16.81818012611282 pbc="F F F"
Eu       0.00000000       0.00000000       0.00000000       0.00000000       0.00000000       0.03898740
Eu       0.00000000       0.00000000       6.00000000       0.00000000       0.00000000      -0.03898740
