2
Properties=species:S:1:pos:R:3:forces:R:3 energy=14148.504087796342 pbc="F F F"
Gd       0.00000000       0.00000000       0.00000000       0.00000000       0.00000000 -209310.54687500
Gd       0.00000000       0.00000000       0.18000000       0.00000000       0.00000000  209310.54687500
2
Properties=species:S:1:pos:R:3:forces:R:3 energy=6787.664732327593 pbc="F F F"
Gd       0.00000000       0.00000000       0.00000000       0.00000000       0.00000000  -70326.73437500
Gd       0.00000000       0.00000000       0.23878788       0.00000000       0.00000000   70326.73437500
2
Properties=species:S:1:pos:R:3:forces:R:3 energy=4115.620787015093 pbc="F F F"
Gd       0.00000000       0.00000000       0.00000000       0.00000000       0.00000000  -28009.00390625
Gd       0.00000000       0.00000000       0.29757576       0.00000000       0.00000000   28009.00390625
2
Properties=species:S:1:pos:R:3:forces:R:3 energy=2991.1017440463424 pbc="F F F"
Gd       0.00000000       0.00000000       0.00000000       0.00000000       0.00000000  -12650.49511719
Gd       0.00000000       0.00000000       0.35636364       0.00000000       0.00000000   12650.49511719
2
Properties=species:S:1:pos:R:3:forces:R:3 energy=2452.5221542089284 pbc="F F F"
Gd       0.00000000       0.00000000       0.00000000       0.00000000       0.00000000   -6581.68994141
Gd       0.00000000       0.00000000       0.41515152       0.00000000       0.00000000    6581.68994141
2
Properties=species:S:1:pos:R:3:forces:R:3 energy=2147.217222574639 pbc="F F F"
Gd       0.00000000       0.00000000       0.00000000       0.00000000       0.00000000   -4187.26708984
Gd       0.00000000       0.00000000       0.47393939       0.00000000       0.00000000    4187.26708984
2
Properties=species:S:1:pos:R:3:forces:R:3 energy=1929.8496688827083 pbc="F F F"
Gd       0.00000000       0.00000000       0.00000000       0.00000000       0.00000000   -3376.51879883
Gd       0.00000000       0.00000000       0.53272727       0.00000000       0.00000000    3376.51879883
2
Properties=species:S:1:pos:R:3:forces:R:3 energy=1737.1253036863473 pbc="F F F"
Gd       0.00000000       0.00000000       0.00000000       0.00000000       0.00000000   -3246.76757812
Gd       0.00000000       0.00000000       0.59151515       0.00000000       0.00000000    3246.76757812
2
Properties=species:S:1:pos:R:3:forces:R:3 energy=1542.0957627214073 pbc="F F F"
Gd       0.00000000       0.00000000       0.00000000       0.00000000       0.00000000   -3423.78588867
Gd       0.00000000       0.00000000       0.65030303       0.00000000       0.00000000    3423.78588867
2
Properties=species:S:1:pos:R:3:forces:R:3 energy=1337.9942003037706 pbc="F F F"
Gd       0.00000000       0.00000000       0.00000000       0.00000000       0.00000000   -3489.70068359
Gd       0.00000000       0.00000000       0.70909091       0.00000000       0.00000000    3489.70068359
2
Properties=species:S:1:pos:R:3:forces:R:3 energy=1143.33575317753 pbc="F F F"
Gd       0.00000000       0.00000000       0.00000000       0.00000000       0.00000000   -2379.72851562
Gd       0.00000000       0.00000000       0.76787879       0.00000000       0.00000000    2379.72851562
2
Properties=species:S:1:pos:R:3:forces:R:3 energy=1001.2423695785368 pbc="F F F"
Gd       0.00000000       0.00000000       0.00000000       0.00000000       0.00000000   -2379.31347656
Gd       0.00000000       0.00000000       0.82666667       0.00000000       0.00000000    2379.31347656
2
Properties=species:S:1:pos:R:3:forces:R:3 energy=866.4636833338676 pbc="F F F"
Gd       0.00000000       0.00000000       0.00000000       0.00000000       0.00000000   -2191.50073242
Gd       0.00000000       0.00000000       0.88545455       0.00000000       0.00000000    2191.50073242
2
Properties=species:S:1:pos:R:3:forces:R:3 energy=741.6831661358813 pbc="F F F"
Gd       0.00000000       0.00000000       0.00000000       0.00000000       0.00000000   -2090.97802734
Gd       0.00000000       0.00000000       0.94424242       0.00000000       0.00000000    2090.97802734
2
Properties=species:S:1:pos:R:3:forces:R:3 energy=635.0772706783173 pbc="F F F"
Gd       0.00000000       0.00000000       0.00000000       0.00000000       0.00000000   -1674.65576172
Gd       0.00000000       0.00000000       1.00303030       0.00000000       0.00000000    1674.65576172
2
Properties=species:S:1:pos:R:3:forces:R:3 energy=541.0357064528388 pbc="F F F"
Gd       0.00000000       0.00000000       0.00000000       0.00000000       0.00000000   -1553.37304688
Gd       0.00000000       0.00000000       1.06181818       0.00000000       0.00000000    1553.37304688
2
Properties=species:S:1:pos:R:3:forces:R:3 energy=445.35507387093486 pbc="F F F"
Gd       0.00000000       0.00000000       0.00000000       0.00000000       0.00000000   -1876.73620605
Gd       0.00000000       0.00000000       1.12060606       0.00000000       0.00000000    1876.73620605
2
Properties=species:S:1:pos:R:3:forces:R:3 energy=325.4925873260881 pbc="F F F"
Gd       0.00000000       0.00000000       0.00000000       0.00000000       0.00000000   -1870.94580078
Gd       0.00000000       0.00000000       1.17939394       0.00000000       0.00000000    1870.94580078
2
Properties=species:S:1:pos:R:3:forces:R:3 energy=229.25427717409923 pbc="F F F"
Gd       0.00000000       0.00000000       0.00000000       0.00000000       0.00000000   -1428.81933594
Gd       0.00000000       0.00000000       1.23818182       0.00000000       0.00000000    1428.81933594
2
Properties=species:S:1:pos:R:3:forces:R:3 energy=155.75134955835492 pbc="F F F"
Gd       0.00000000       0.00000000       0.00000000       0.00000000       0.00000000   -1079.89624023
Gd       0.00000000       0.00000000       1.29696970       0.00000000       0.00000000    1079.89624023
2
Properties=species:S:1:pos:R:3:forces:R:3 energy=100.44882378729271 pbc="F F F"
Gd       0.00000000       0.00000000       0.00000000       0.00000000       0.00000000    -816.99932861
Gd       0.00000000       0.00000000       1.35575758       0.00000000       0.00000000     816.99932861
2
Properties=species:S:1:pos:R:3:forces:R:3 energy=58.80747728301163 pbc="F F F"
Gd       0.00000000       0.00000000       0.00000000       0.00000000       0.00000000    -599.92956543
Gd       0.00000000       0.00000000       1.41454545       0.00000000       0.00000000     599.92956543
2
Properties=species:S:1:pos:R:3:forces:R:3 energy=30.04826503556587 pbc="F F F"
Gd       0.00000000       0.00000000       0.00000000       0.00000000       0.00000000    -383.17874146
Gd       0.00000000       0.00000000       1.47333333       0.00000000       0.00000000     383.17874146
2
Properties=species:S:1:pos:R:3:forces:R:3 energy=12.263655496743516 pbc="F F F"
Gd       0.00000000       0.00000000       0.00000000       0.00000000       0.00000000    -236.27517700
Gd       0.00000000       0.00000000       1.53212121       0.00000000       0.00000000     236.27517700
2
Properties=species:S:1:pos:R:3:forces:R:3 energy=1.153735405892311 pbc="F F F"
Gd       0.00000000       0.00000000       0.00000000       0.00000000       0.00000000    -147.77661133
Gd       0.00000000       0.00000000       1.59090909       0.00000000       0.00000000     147.77661133
2
Properties=species:S:1:pos:R:3:forces:R:3 energy=-5.877274446856794 pbc="F F F"
Gd       0.00000000       0.00000000       0.00000000       0.00000000       0.00000000     -97.63838196
Gd       0.00000000       0.00000000       1.64969697       0.00000000       0.00000000      97.63838196
2
Properties=species:S:1:pos:R:3:forces:R:3 energy=-10.74042558360371 pbc="F F F"
Gd       0.00000000       0.00000000       0.00000000       0.00000000       0.00000000     -69.02587891
Gd       0.00000000       0.00000000       1.70848485       0.00000000       0.00000000      69.02587891
2
Properties=species:S:1:pos:R:3:forces:R:3 energy=-14.095939804450499 pbc="F F F"
Gd       0.00000000       0.00000000       0.00000000       0.00000000       0.00000000     -46.28372192
Gd       0.00000000       0.00000000       1.76727273       0.00000000       0.00000000      46.28372192
2
Properties=species:S:1:pos:R:3:forces:R:3 energy=-16.332043327051757 pbc="F F F"
Gd       0.00000000       0.00000000       0.00000000       0.00000000       0.00000000     -30.94765472
Gd       0.00000000       0.00000000       1.82606061       0.00000000       0.00000000      30.94765472
2
Properties=species:S:1:pos:R:3:forces:R:3 energy=-17.842663415118633 pbc="F F F"
Gd       0.00000000       0.00000000       0.00000000       0.00000000       0.00000000     -21.14638138
Gd       0.00000000       0.00000000       1.88484848       0.00000000       0.00000000      21.14638138
2
Properties=species:S:1:pos:R:3:forces:R:3 energy=-18.882356350731904 pbc="F F F"
Gd       0.00000000       0.00000000       0.00000000       0.00000000       0.00000000     -14.64421940
Gd       0.00000000       0.00000000       1.94363636       0.00000000       0.00000000      14.64421940
2
Properties=species:S:1:pos:R:3:forces:R:3 energy=-19.60331288418406 pbc="F F F"
Gd       0.00000000       0.00000000       0.00000000       0.00000000       0.00000000     -10.14219761
Gd       0.00000000       0.00000000       2.00242424       0.00000000       0.00000000      10.14219761
2
Properties=species:S:1:pos:R:3:forces:R:3 energy=-20.0994599617385 pbc="F F F"
Gd       0.00000000       0.00000000       0.00000000       0.00000000       0.00000000      -6.90900421
Gd       0.00000000       0.00000000       2.06121212       0.00000000       0.00000000       6.90900421
2
Properties=species:S:1:pos:R:3:forces:R:3 energy=-20.432986172380886 pbc="F F F"
Gd       0.00000000       0.00000000       0.00000000       0.00000000       0.00000000      -4.56638145
Gd       0.00000000       0.00000000       2.12000000       0.00000000       0.00000000       4.56638145
2
Properties=species:S:1:pos:R:3:forces:R:3 energy=-20.649915293755573 pbc="F F F"
Gd       0.00000000       0.00000000       0.00000000       0.00000000       0.00000000      -2.91829848
Gd       0.00000000       0.00000000       2.17878788       0.00000000       0.00000000       2.91829848
2
Properties=species:S:1:pos:R:3:forces:R:3 energy=-20.787468600867474 pbc="F F F"
Gd       0.00000000       0.00000000       0.00000000       0.00000000       0.00000000      -1.85080779
Gd       0.00000000       0.00000000       2.23757576       0.00000000       0.00000000       1.85080779
2
Properties=species:S:1:pos:R:3:forces:R:3 energy=-20.877166278315432 pbc="F F F"
Gd       0.00000000       0.00000000       0.00000000       0.00000000       0.00000000      -1.27440262
Gd       0.00000000       0.00000000       2.29636364       0.00000000       0.00000000       1.27440262
2
Properties=species:S:1:pos:R:3:forces:R:3 energy=-20.944745334608957 pbc="F F F"
Gd       0.00000000       0.00000000       0.00000000       0.00000000       0.00000000      -1.07634592
Gd       0.00000000       0.00000000       2.35515152       0.00000000       0.00000000       1.07634592
2
Properties=species:S:1:pos:R:3:forces:R:3 energy=-21.00831712873147 pbc="F F F"
Gd       0.00000000       0.00000000       0.00000000       0.00000000       0.00000000      -1.11273217
Gd       0.00000000       0.00000000       2.41393939       0.00000000       0.00000000       1.11273217
2
Properties=species:S:1:pos:R:3:forces:R:3 energy=-21.077291669860937 pbc="F F F"
Gd       0.00000000       0.00000000       0.00000000       0.00000000       0.00000000      -1.23793995
Gd       0.00000000       0.00000000       2.47272727       0.00000000       0.00000000       1.23793995
2
Properties=species:S:1:pos:R:3:forces:R:3 energy=-21.153436056476885 pbc="F F F"
Gd       0.00000000       0.00000000       0.00000000       0.00000000       0.00000000      -1.34321499
Gd       0.00000000       0.00000000       2.53151515       0.00000000       0.00000000       1.34321499
2
Properties=species:S:1:pos:R:3:forces:R:3 energy=-21.233794766501425 pbc="F F F"
Gd       0.00000000       0.00000000       0.00000000       0.00000000       0.00000000      -1.37746096
Gd       0.00000000       0.00000000       2.59030303       0.00000000       0.00000000       1.37746096
2
Properties=species:S:1:pos:R:3:forces:R:3 energy=-21.31392631388753 pbc="F F F"
Gd       0.00000000       0.00000000       0.00000000       0.00000000       0.00000000      -1.33754456
Gd       0.00000000       0.00000000       2.64909091       0.00000000       0.00000000       1.33754456
2
Properties=species:S:1:pos:R:3:forces:R:3 energy=-21.389976669631437 pbc="F F F"
Gd       0.00000000       0.00000000       0.00000000       0.00000000       0.00000000      -1.24241436
Gd       0.00000000       0.00000000       2.70787879       0.00000000       0.00000000       1.24241436
2
Properties=species:S:1:pos:R:3:forces:R:3 energy=-21.459333285948723 pbc="F F F"
Gd       0.00000000       0.00000000       0.00000000       0.00000000       0.00000000      -1.11290753
Gd       0.00000000       0.00000000       2.76666667       0.00000000       0.00000000       1.11290753
2
Properties=species:S:1:pos:R:3:forces:R:3 energy=-21.52045359962411 pbc="F F F"
Gd       0.00000000       0.00000000       0.00000000       0.00000000       0.00000000      -0.96411359
Gd       0.00000000       0.00000000       2.82545455       0.00000000       0.00000000       0.96411359
2
Properties=species:S:1:pos:R:3:forces:R:3 energy=-21.57249875771751 pbc="F F F"
Gd       0.00000000       0.00000000       0.00000000       0.00000000       0.00000000      -0.80545622
Gd       0.00000000       0.00000000       2.88424242       0.00000000       0.00000000       0.80545622
2
Properties=species:S:1:pos:R:3:forces:R:3 energy=-21.615081803195014 pbc="F F F"
Gd       0.00000000       0.00000000       0.00000000       0.00000000       0.00000000      -0.64303303
Gd       0.00000000       0.00000000       2.94303030       0.00000000       0.00000000       0.64303303
2
Properties=species:S:1:pos:R:3:forces:R:3 energy=-21.648124718816057 pbc="F F F"
Gd       0.00000000       0.00000000       0.00000000       0.00000000       0.00000000      -0.48163736
Gd       0.00000000       0.00000000       3.00181818       0.00000000       0.00000000       0.48163736
2
Properties=species:S:1:pos:R:3:forces:R:3 energy=-21.67181822075668 pbc="F F F"
Gd       0.00000000       0.00000000       0.00000000       0.00000000       0.00000000      -0.32575199
Gd       0.00000000       0.00000000       3.06060606       0.00000000       0.00000000       0.32575199
2
Properties=species:S:1:pos:R:3:forces:R:3 energy=-21.686616277318134 pbc="F F F"
Gd       0.00000000       0.00000000       0.00000000       0.00000000       0.00000000      -0.17961067
Gd       0.00000000       0.00000000       3.11939394       0.00000000       0.00000000       0.17961067
2
Properties=species:S:1:pos:R:3:forces:R:3 energy=-21.693197645171978 pbc="F F F"
Gd       0.00000000       0.00000000       0.00000000       0.00000000       0.00000000      -0.04669423
Gd       0.00000000       0.00000000       3.17818182       0.00000000       0.00000000       0.04669423
2
Properties=species:S:1:pos:R:3:forces:R:3 energy=-21.692408883319956 pbc="F F F"
Gd       0.00000000       0.00000000       0.00000000       0.00000000       0.00000000       0.07081658
Gd       0.00000000       0.00000000       3.23696970       0.00000000       0.00000000      -0.07081658
2
Properties=species:S:1:pos:R:3:forces:R:3 energy=-21.68518612012182 pbc="F F F"
Gd       0.00000000       0.00000000       0.00000000       0.00000000       0.00000000       0.17224880
Gd       0.00000000       0.00000000       3.29575758       0.00000000       0.00000000      -0.17224880
2
Properties=species:S:1:pos:R:3:forces:R:3 energy=-21.67246341186194 pbc="F F F"
Gd       0.00000000       0.00000000       0.00000000       0.00000000       0.00000000       0.25814441
Gd       0.00000000       0.00000000       3.35454545       0.00000000       0.00000000      -0.25814441
2
Properties=species:S:1:pos:R:3:forces:R:3 energy=-21.65511562999627 pbc="F F F"
Gd       0.00000000       0.00000000       0.00000000       0.00000000       0.00000000       0.32972139
Gd       0.00000000       0.00000000       3.41333333       0.00000000       0.00000000      -0.32972139
2
Properties=species:S:1:pos:R:3:forces:R:3 energy=-21.63394882303887 pbc="F F F"
Gd       0.00000000       0.00000000       0.00000000       0.00000000       0.00000000       0.38833314
Gd       0.00000000       0.00000000       3.47212121       0.00000000       0.00000000      -0.38833314
2
Properties=species:S:1:pos:R:3:forces:R:3 energy=-21.609688905518652 pbc="F F F"
Gd       0.00000000       0.00000000       0.00000000       0.00000000       0.00000000       0.43514082
Gd       0.00000000       0.00000000       3.53090909       0.00000000       0.00000000      -0.43514082
2
Properties=species:S:1:pos:R:3:forces:R:3 energy=-21.58300078215085 pbc="F F F"
Gd       0.00000000       0.00000000       0.00000000       0.00000000       0.00000000       0.47103569
Gd       0.00000000       0.00000000       3.58969697       0.00000000       0.00000000      -0.47103569
2
Properties=species:S:1:pos:R:3:forces:R:3 energy=-21.554505355583615 pbc="F F F"
Gd       0.00000000       0.00000000       0.00000000       0.00000000       0.00000000       0.49674377
Gd       0.00000000       0.00000000       3.64848485       0.00000000       0.00000000      -0.49674377
2
Properties=species:S:1:pos:R:3:forces:R:3 energy=-21.524781794878372 pbc="F F F"
Gd       0.00000000       0.00000000       0.00000000       0.00000000       0.00000000       0.51301080
Gd       0.00000000       0.00000000       3.70727273       0.00000000       0.00000000      -0.51301080
2
Properties=species:S:1:pos:R:3:forces:R:3 energy=-21.494355647922916 pbc="F F F"
Gd       0.00000000       0.00000000       0.00000000       0.00000000       0.00000000       0.52075434
Gd       0.00000000       0.00000000       3.76606061       0.00000000       0.00000000      -0.52075434
2
Properties=species:S:1:pos:R:3:forces:R:3 energy=-21.46369733956403 pbc="F F F"
Gd       0.00000000       0.00000000       0.00000000       0.00000000       0.00000000       0.52114236
Gd       0.00000000       0.00000000       3.82484848       0.00000000       0.00000000      -0.52114236
2
Properties=species:S:1:pos:R:3:forces:R:3 energy=-21.43319721134848 pbc="F F F"
Gd       0.00000000       0.00000000       0.00000000       0.00000000       0.00000000       0.51556677
Gd       0.00000000       0.00000000       3.88363636       0.00000000       0.00000000      -0.51556677
2
Properties=species:S:1:pos:R:3:forces:R:3 energy=-21.403165660907227 pbc="F F F"
Gd       0.00000000       0.00000000       0.00000000       0.00000000       0.00000000       0.50555223
Gd       0.00000000       0.00000000       3.94242424       0.00000000       0.00000000      -0.50555223
2
Properties=species:S:1:pos:R:3:forces:R:3 energy=-21.373815937803823 pbc="F F F"
Gd       0.00000000       0.00000000       0.00000000       0.00000000       0.00000000       0.49263784
Gd       0.00000000       0.00000000       4.00121212       0.00000000       0.00000000      -0.49263784
2
Properties=species:S:1:pos:R:3:forces:R:3 energy=-21.345271874299282 pbc="F F F"
Gd       0.00000000       0.00000000       0.00000000       0.00000000       0.00000000       0.47825208
Gd       0.00000000       0.00000000       4.06000000       0.00000000       0.00000000      -0.47825208
2
Properties=species:S:1:pos:R:3:forces:R:3 energy=-21.31758889152961 pbc="F F F"
Gd       0.00000000       0.00000000       0.00000000       0.00000000       0.00000000       0.46360934
Gd       0.00000000       0.00000000       4.11878788       0.00000000       0.00000000      -0.46360934
2
Properties=species:S:1:pos:R:3:forces:R:3 energy=-21.290750235493693 pbc="F F F"
Gd       0.00000000       0.00000000       0.00000000       0.00000000       0.00000000       0.44962284
Gd       0.00000000       0.00000000       4.17757576       0.00000000       0.00000000      -0.44962284
2
Properties=species:S:1:pos:R:3:forces:R:3 energy=-21.26469946533649 pbc="F F F"
Gd       0.00000000       0.00000000       0.00000000       0.00000000       0.00000000       0.43683830
Gd       0.00000000       0.00000000       4.23636364       0.00000000       0.00000000      -0.43683830
2
Properties=species:S:1:pos:R:3:forces:R:3 energy=-21.239361465862235 pbc="F F F"
Gd       0.00000000       0.00000000       0.00000000       0.00000000       0.00000000       0.42541850
Gd       0.00000000       0.00000000       4.29515152       0.00000000       0.00000000      -0.42541850
2
Properties=species:S:1:pos:R:3:forces:R:3 energy=-21.214657801358136 pbc="F F F"
Gd       0.00000000       0.00000000       0.00000000       0.00000000       0.00000000       0.41516101
Gd       0.00000000       0.00000000       4.35393939       0.00000000       0.00000000      -0.41516101
2
Properties=species:S:1:pos:R:3:forces:R:3 energy=-21.19053527513874 pbc="F F F"
Gd       0.00000000       0.00000000       0.00000000       0.00000000       0.00000000       0.40557888
Gd       0.00000000       0.00000000       4.41272727       0.00000000       0.00000000      -0.40557888
2
Properties=species:S:1:pos:R:3:forces:R:3 energy=-21.16697180364728 pbc="F F F"
Gd       0.00000000       0.00000000       0.00000000       0.00000000       0.00000000       0.39603010
Gd       0.00000000       0.00000000       4.47151515       0.00000000       0.00000000      -0.39603010
2
Properties=species:S:1:pos:R:3:forces:R:3 energy=-21.14398400150069 pbc="F F F"
Gd       0.00000000       0.00000000       0.00000000       0.00000000       0.00000000       0.38586202
Gd       0.00000000       0.00000000       4.53030303       0.00000000       0.00000000      -0.38586202
2
Properties=species:S:1:pos:R:3:forces:R:3 energy=-21.121625293147932 pbc="F F F"
Gd       0.00000000       0.00000000       0.00000000       0.00000000       0.00000000       0.37455118
Gd       0.00000000       0.00000000       4.58909091       0.00000000       0.00000000      -0.37455118
2
Properties=species:S:1:pos:R:3:forces:R:3 energy=-21.099974582819762 pbc="F F F"
Gd       0.00000000       0.00000000       0.00000000       0.00000000       0.00000000       0.36183161
Gd       0.00000000       0.00000000       4.64787879       0.00000000       0.00000000      -0.36183161
2
Properties=species:S:1:pos:R:3:forces:R:3 energy=-21.07911131327671 pbc="F F F"
Gd       0.00000000       0.00000000       0.00000000       0.00000000       0.00000000       0.34770808
Gd       0.00000000       0.00000000       4.70666667       0.00000000       0.00000000      -0.34770808
2
Properties=species:S:1:pos:R:3:forces:R:3 energy=-21.059113672502033 pbc="F F F"
Gd       0.00000000       0.00000000       0.00000000       0.00000000       0.00000000       0.33245283
Gd       0.00000000       0.00000000       4.76545455       0.00000000       0.00000000      -0.33245283
2
Properties=species:S:1:pos:R:3:forces:R:3 energy=-21.0400356168191 pbc="F F F"
Gd       0.00000000       0.00000000       0.00000000       0.00000000       0.00000000       0.31649756
Gd       0.00000000       0.00000000       4.82424242       0.00000000       0.00000000      -0.31649756
2
Properties=species:S:1:pos:R:3:forces:R:3 energy=-21.02190688989834 pbc="F F F"
Gd       0.00000000       0.00000000       0.00000000       0.00000000       0.00000000       0.30034143
Gd       0.00000000       0.00000000       4.88303030       0.00000000       0.00000000      -0.30034143
2
Properties=species:S:1:pos:R:3:forces:R:3 energy=-21.00471760557705 pbc="F F F"
Gd       0.00000000       0.00000000       0.00000000       0.00000000       0.00000000       0.28446752
Gd       0.00000000       0.00000000       4.94181818       0.00000000       0.00000000      -0.28446752
2
Properties=species:S:1:pos:R:3:forces:R:3 energy=-20.988444976082846 pbc="F F F"
Gd       0.00000000       0.00000000       0.00000000       0.00000000       0.00000000       0.26932412
Gd       0.00000000       0.00000000       5.00060606       0.00000000       0.00000000      -0.26932412
2
Properties=species:S:1:pos:R:3:forces:R:3 energy=-20.973028478487564 pbc="F F F"
Gd       0.00000000       0.00000000       0.00000000       0.00000000       0.00000000       0.25533623
Gd       0.00000000       0.00000000       5.05939394       0.00000000       0.00000000      -0.25533623
2
Properties=species:S:1:pos:R:3:forces:R:3 energy=-20.958392540150246 pbc="F F F"
Gd       0.00000000       0.00000000       0.00000000       0.00000000       0.00000000       0.24290420
Gd       0.00000000       0.00000000       5.11818182       0.00000000       0.00000000      -0.24290420
2
Properties=species:S:1:pos:R:3:forces:R:3 energy=-20.944433168269764 pbc="F F F"
Gd       0.00000000       0.00000000       0.00000000       0.00000000       0.00000000       0.23231329
Gd       0.00000000       0.00000000       5.17696970       0.00000000       0.00000000      -0.23231329
2
Properties=species:S:1:pos:R:3:forces:R:3 energy=-20.931044589409247 pbc="F F F"
Gd       0.00000000       0.00000000       0.00000000       0.00000000       0.00000000       0.22339676
Gd       0.00000000       0.00000000       5.23575758       0.00000000       0.00000000      -0.22339676
2
Properties=species:S:1:pos:R:3:forces:R:3 energy=-20.918157206399403 pbc="F F F"
Gd       0.00000000       0.00000000       0.00000000       0.00000000       0.00000000       0.21493621
Gd       0.00000000       0.00000000       5.29454545       0.00000000       0.00000000      -0.21493621
2
Properties=species:S:1:pos:R:3:forces:R:3 energy=-20.905808182909222 pbc="F F F"
Gd       0.00000000       0.00000000       0.00000000       0.00000000       0.00000000       0.20470686
Gd       0.00000000       0.00000000       5.35333333       0.00000000       0.00000000      -0.20470686
2
Properties=species:S:1:pos:R:3:forces:R:3 energy=-20.894129866305654 pbc="F F F"
Gd       0.00000000       0.00000000       0.00000000       0.00000000       0.00000000       0.19266455
Gd       0.00000000       0.00000000       5.41212121       0.00000000       0.00000000      -0.19266455
2
Properties=species:S:1:pos:R:3:forces:R:3 energy=-20.883084533145112 pbc="F F F"
Gd       0.00000000       0.00000000       0.00000000       0.00000000       0.00000000       0.18417241
Gd       0.00000000       0.00000000       5.47090909       0.00000000       0.00000000      -0.18417241
2
Properties=species:S:1:pos:R:3:forces:R:3 energy=-20.87238619738299 pbc="F F F"
Gd       0.00000000       0.00000000       0.00000000       0.00000000       0.00000000       0.17965446
Gd       0.00000000       0.00000000       5.52969697       0.00000000       0.00000000      -0.17965446
2
Properties=species:S:1:pos:R:3:forces:R:3 energy=-20.86210134599746 pbc="F F F"
Gd       0.00000000       0.00000000       0.00000000       0.00000000       0.00000000       0.16850097
Gd       0.00000000       0.00000000       5.58848485       0.00000000       0.00000000      -0.16850097
2
Properties=species:S:1:pos:R:3:forces:R:3 energy=-20.852732786301566 pbc="F F F"
Gd       0.00000000       0.00000000       0.00000000       0.00000000       0.00000000       0.15009995
Gd       0.00000000       0.00000000       5.64727273       0.00000000       0.00000000      -0.15009995
2
Properties=species:S:1:pos:R:3:forces:R:3 energy=-20.84428880278962 pbc="F F F"
Gd       0.00000000       0.00000000       0.00000000       0.00000000       0.00000000       0.14025611
Gd       0.00000000       0.00000000       5.70606061       0.00000000       0.00000000      -0.14025611
2
Properties=species:S:1:pos:R:3:forces:R:3 energy=-20.835796843424472 pbc="F F F"
Gd       0.00000000       0.00000000       0.00000000       0.00000000       0.00000000       0.15046683
Gd       0.00000000       0.00000000       5.76484848       0.00000000       0.00000000      -0.15046683
2
Properties=species:S:1:pos:R:3:forces:R:3 energy=-20.82678927769817 pbc="F F F"
Gd       0.00000000       0.00000000       0.00000000       0.00000000       0.00000000       0.15019482
Gd       0.00000000       0.00000000       5.82363636       0.00000000       0.00000000      -0.15019482
2
Properties=species:S:1:pos:R:3:forces:R:3 energy=-20.81905429832741 pbc="F F F"
Gd       0.00000000       0.00000000       0.00000000       0.00000000       0.00000000       0.10742138
Gd       0.00000000       0.00000000       5.88242424       0.00000000       0.00000000      -0.10742138
2
Properties=species:S:1:pos:R:3:forces:R:3 energy=-20.814431133939927 pbc="F F F"
Gd       0.00000000       0.00000000       0.00000000       0.00000000       0.00000000       0.05148256
Gd       0.00000000       0.00000000       5.94121212       0.00000000       0.00000000      -0.05148256
2
Properties=species:S:1:pos:R:3:forces:R:3 energy=-20.812349493310457 pbc="F F F"
Gd       0.00000000       0.00000000       0.00000000       0.00000000       0.00000000       0.02710294
Gd       0.00000000       0.00000000       6.00000000       0.00000000       0.00000000      -0.02710294
