2
Properties=species:S:1:pos:R:3:forces:R:3 energy=6530.667710842976 pbc="F F F"
Ge       0.00000000       0.00000000       0.00000000       0.00000000       0.00000000  -72960.33593750
Ge       0.00000000       0.00000000       0.18000000       0.00000000       0.00000000   72960.33593750
2
Properties=species:S:1:pos:R:3:forces:R:3 energy=3884.273423733601 pbc="F F F"
Ge       0.00000000       0.00000000       0.00000000       0.00000000       0.00000000  -26483.24414062
Ge       0.00000000       0.00000000       0.23878788       0.00000000       0.00000000   26483.24414062
2
Properties=species:S:1:pos:R:3:forces:R:3 energy=2826.336167874226 pbc="F F F"
Ge       0.00000000       0.00000000       0.00000000       0.00000000       0.00000000  -12251.49707031
Ge       0.00000000       0.00000000       0.29757576       0.00000000       0.00000000   12251.49707031
2
Properties=species:S:1:pos:R:3:forces:R:3 energy=2278.8664413148936 pbc="F F F"
Ge       0.00000000       0.00000000       0.00000000       0.00000000       0.00000000   -7271.31787109
Ge       0.00000000       0.00000000       0.35636364       0.00000000       0.00000000    7271.31787109
2
Properties=species:S:1:pos:R:3:forces:R:3 energy=1906.1885848790846 pbc="F F F"
Ge       0.00000000       0.00000000       0.00000000       0.00000000       0.00000000   -5737.50390625
Ge       0.00000000       0.00000000       0.41515152       0.00000000       0.00000000    5737.50390625
2
Properties=species:S:1:pos:R:3:forces:R:3 energy=1581.6370712230487 pbc="F F F"
Ge       0.00000000       0.00000000       0.00000000       0.00000000       0.00000000   -5391.86083984
Ge       0.00000000       0.00000000       0.47393939       0.00000000       0.00000000    5391.86083984
2
Properties=species:S:1:pos:R:3:forces:R:3 energy=1269.892686485934 pbc="F F F"
Ge       0.00000000       0.00000000       0.00000000       0.00000000       0.00000000   -5186.47949219
Ge       0.00000000       0.00000000       0.53272727       0.00000000       0.00000000    5186.47949219
2
Properties=species:S:1:pos:R:3:forces:R:3 energy=977.3096787241192 pbc="F F F"
Ge       0.00000000       0.00000000       0.00000000       0.00000000       0.00000000   -4712.02343750
Ge       0.00000000       0.00000000       0.59151515       0.00000000       0.00000000    4712.02343750
2
Properties=species:S:1:pos:R:3:forces:R:3 energy=716.2805040081307 pbc="F F F"
Ge       0.00000000       0.00000000       0.00000000       0.00000000       0.00000000   -4075.30273438
Ge       0.00000000       0.00000000       0.65030303       0.00000000       0.00000000    4075.30273438
2
Properties=species:S:1:pos:R:3:forces:R:3 energy=502.0327929595386 pbc="F F F"
Ge       0.00000000       0.00000000       0.00000000       0.00000000       0.00000000   -3242.93066406
Ge       0.00000000       0.00000000       0.70909091       0.00000000       0.00000000    3242.93066406
2
Properties=species:S:1:pos:R:3:forces:R:3 energy=341.530595899822 pbc="F F F"
Ge       0.00000000       0.00000000       0.00000000       0.00000000       0.00000000   -2254.30737305
Ge       0.00000000       0.00000000       0.76787879       0.00000000       0.00000000    2254.30737305
2
Properties=species:S:1:pos:R:3:forces:R:3 energy=231.02545399201887 pbc="F F F"
Ge       0.00000000       0.00000000       0.00000000       0.00000000       0.00000000   -1536.87353516
Ge       0.00000000       0.00000000       0.82666667       0.00000000       0.00000000    1536.87353516
2
Properties=species:S:1:pos:R:3:forces:R:3 energy=156.98800935765115 pbc="F F F"
Ge       0.00000000       0.00000000       0.00000000       0.00000000       0.00000000   -1011.95373535
Ge       0.00000000       0.00000000       0.88545455       0.00000000       0.00000000    1011.95373535
2
Properties=species:S:1:pos:R:3:forces:R:3 energy=108.4610095386269 pbc="F F F"
Ge       0.00000000       0.00000000       0.00000000       0.00000000       0.00000000    -665.82489014
Ge       0.00000000       0.00000000       0.94424242       0.00000000       0.00000000     665.82489014
2
Properties=species:S:1:pos:R:3:forces:R:3 energy=76.34896508684601 pbc="F F F"
Ge       0.00000000       0.00000000       0.00000000       0.00000000       0.00000000    -442.26687622
Ge       0.00000000       0.00000000       1.00303030       0.00000000       0.00000000     442.26687622
2
Properties=species:S:1:pos:R:3:forces:R:3 energy=54.89997634959445 pbc="F F F"
Ge       0.00000000       0.00000000       0.00000000       0.00000000       0.00000000    -298.15063477
Ge       0.00000000       0.00000000       1.06181818       0.00000000       0.00000000     298.15063477
2
Properties=species:S:1:pos:R:3:forces:R:3 energy=40.39870373908761 pbc="F F F"
Ge       0.00000000       0.00000000       0.00000000       0.00000000       0.00000000    -200.92152405
Ge       0.00000000       0.00000000       1.12060606       0.00000000       0.00000000     200.92152405
2
Properties=species:S:1:pos:R:3:forces:R:3 energy=30.622704729742665 pbc="F F F"
Ge       0.00000000       0.00000000       0.00000000       0.00000000       0.00000000    -137.06340027
Ge       0.00000000       0.00000000       1.17939394       0.00000000       0.00000000     137.06340027
2
Properties=species:S:1:pos:R:3:forces:R:3 energy=23.748771567705315 pbc="F F F"
Ge       0.00000000       0.00000000       0.00000000       0.00000000       0.00000000    -100.21955872
Ge       0.00000000       0.00000000       1.23818182       0.00000000       0.00000000     100.21955872
2
Properties=species:S:1:pos:R:3:forces:R:3 energy=18.561312964863493 pbc="F F F"
Ge       0.00000000       0.00000000       0.00000000       0.00000000       0.00000000     -77.82096863
Ge       0.00000000       0.00000000       1.29696970       0.00000000       0.00000000      77.82096863
2
Properties=species:S:1:pos:R:3:forces:R:3 energy=14.453532805456408 pbc="F F F"
Ge       0.00000000       0.00000000       0.00000000       0.00000000       0.00000000     -63.02214050
Ge       0.00000000       0.00000000       1.35575758       0.00000000       0.00000000      63.02214050
2
Properties=species:S:1:pos:R:3:forces:R:3 energy=11.046092999248941 pbc="F F F"
Ge       0.00000000       0.00000000       0.00000000       0.00000000       0.00000000     -53.50136566
Ge       0.00000000       0.00000000       1.41454545       0.00000000       0.00000000      53.50136566
2
Properties=species:S:1:pos:R:3:forces:R:3 energy=8.12522956781135 pbc="F F F"
Ge       0.00000000       0.00000000       0.00000000       0.00000000       0.00000000     -46.01031113
Ge       0.00000000       0.00000000       1.47333333       0.00000000       0.00000000      46.01031113
2
Properties=species:S:1:pos:R:3:forces:R:3 energy=5.624690993969554 pbc="F F F"
Ge       0.00000000       0.00000000       0.00000000       0.00000000       0.00000000     -39.16628265
Ge       0.00000000       0.00000000       1.53212121       0.00000000       0.00000000      39.16628265
2
Properties=species:S:1:pos:R:3:forces:R:3 energy=3.504731027252814 pbc="F F F"
Ge       0.00000000       0.00000000       0.00000000       0.00000000       0.00000000     -33.10243225
Ge       0.00000000       0.00000000       1.59090909       0.00000000       0.00000000      33.10243225
2
Properties=species:S:1:pos:R:3:forces:R:3 energy=1.7165037269600454 pbc="F F F"
Ge       0.00000000       0.00000000       0.00000000       0.00000000       0.00000000     -27.84932137
Ge       0.00000000       0.00000000       1.64969697       0.00000000       0.00000000      27.84932137
2
Properties=species:S:1:pos:R:3:forces:R:3 energy=0.22026790643147 pbc="F F F"
Ge       0.00000000       0.00000000       0.00000000       0.00000000       0.00000000     -23.11334610
Ge       0.00000000       0.00000000       1.70848485       0.00000000       0.00000000      23.11334610
2
Properties=species:S:1:pos:R:3:forces:R:3 energy=-1.0068524386521847 pbc="F F F"
Ge       0.00000000       0.00000000       0.00000000       0.00000000       0.00000000     -18.68388939
Ge       0.00000000       0.00000000       1.76727273       0.00000000       0.00000000      18.68388939
2
Properties=species:S:1:pos:R:3:forces:R:3 energy=-1.9838087645682216 pbc="F F F"
Ge       0.00000000       0.00000000       0.00000000       0.00000000       0.00000000     -14.63055611
Ge       0.00000000       0.00000000       1.82606061       0.00000000       0.00000000      14.63055611
2
Properties=species:S:1:pos:R:3:forces:R:3 energy=-2.737878843806533 pbc="F F F"
Ge       0.00000000       0.00000000       0.00000000       0.00000000       0.00000000     -11.12573910
Ge       0.00000000       0.00000000       1.88484848       0.00000000       0.00000000      11.12573910
2
Properties=species:S:1:pos:R:3:forces:R:3 energy=-3.3043882553232944 pbc="F F F"
Ge       0.00000000       0.00000000       0.00000000       0.00000000       0.00000000      -8.25254154
Ge       0.00000000       0.00000000       1.94363636       0.00000000       0.00000000       8.25254154
2
Properties=species:S:1:pos:R:3:forces:R:3 energy=-3.719917070697626 pbc="F F F"
Ge       0.00000000       0.00000000       0.00000000       0.00000000       0.00000000      -5.97634172
Ge       0.00000000       0.00000000       2.00242424       0.00000000       0.00000000       5.97634172
2
Properties=species:S:1:pos:R:3:forces:R:3 energy=-4.016807779375784 pbc="F F F"
Ge       0.00000000       0.00000000       0.00000000       0.00000000       0.00000000      -4.19738722
Ge       0.00000000       0.00000000       2.06121212       0.00000000       0.00000000       4.19738722
2
Properties=species:S:1:pos:R:3:forces:R:3 energy=-4.220954624088399 pbc="F F F"
Ge       0.00000000       0.00000000       0.00000000       0.00000000       0.00000000      -2.80319953
Ge       0.00000000       0.00000000       2.12000000       0.00000000       0.00000000       2.80319953
2
Properties=species:S:1:pos:R:3:forces:R:3 energy=-4.3520398063061805 pbc="F F F"
Ge       0.00000000       0.00000000       0.00000000       0.00000000       0.00000000      -1.69787705
Ge       0.00000000       0.00000000       2.17878788       0.00000000       0.00000000       1.69787705
2
Properties=species:S:1:pos:R:3:forces:R:3 energy=-4.424851702563773 pbc="F F F"
Ge       0.00000000       0.00000000       0.00000000       0.00000000       0.00000000      -0.81109166
Ge       0.00000000       0.00000000       2.23757576       0.00000000       0.00000000       0.81109166
2
Properties=species:S:1:pos:R:3:forces:R:3 energy=-4.450740317186408 pbc="F F F"
Ge       0.00000000       0.00000000       0.00000000       0.00000000       0.00000000      -0.09506525
Ge       0.00000000       0.00000000       2.29636364       0.00000000       0.00000000       0.09506525
2
Properties=species:S:1:pos:R:3:forces:R:3 energy=-4.43873201269227 pbc="F F F"
Ge       0.00000000       0.00000000       0.00000000       0.00000000       0.00000000       0.48274204
Ge       0.00000000       0.00000000       2.35515152       0.00000000       0.00000000      -0.48274204
2
Properties=species:S:1:pos:R:3:forces:R:3 energy=-4.39621347484322 pbc="F F F"
Ge       0.00000000       0.00000000       0.00000000       0.00000000       0.00000000       0.94652414
Ge       0.00000000       0.00000000       2.41393939       0.00000000       0.00000000      -0.94652414
2
Properties=species:S:1:pos:R:3:forces:R:3 energy=-4.329286859629157 pbc="F F F"
Ge       0.00000000       0.00000000       0.00000000       0.00000000       0.00000000       1.31615031
Ge       0.00000000       0.00000000       2.47272727       0.00000000       0.00000000      -1.31615031
2
Properties=species:S:1:pos:R:3:forces:R:3 energy=-4.242986343702256 pbc="F F F"
Ge       0.00000000       0.00000000       0.00000000       0.00000000       0.00000000       1.60808158
Ge       0.00000000       0.00000000       2.53151515       0.00000000       0.00000000      -1.60808158
2
Properties=species:S:1:pos:R:3:forces:R:3 energy=-4.14148622296721 pbc="F F F"
Ge       0.00000000       0.00000000       0.00000000       0.00000000       0.00000000       1.83498967
Ge       0.00000000       0.00000000       2.59030303       0.00000000       0.00000000      -1.83498967
2
Properties=species:S:1:pos:R:3:forces:R:3 energy=-4.028339789695284 pbc="F F F"
Ge       0.00000000       0.00000000       0.00000000       0.00000000       0.00000000       2.00545526
Ge       0.00000000       0.00000000       2.64909091       0.00000000       0.00000000      -2.00545526
2
Properties=species:S:1:pos:R:3:forces:R:3 energy=-3.906694866312843 pbc="F F F"
Ge       0.00000000       0.00000000       0.00000000       0.00000000       0.00000000       2.12477446
Ge       0.00000000       0.00000000       2.70787879       0.00000000       0.00000000      -2.12477446
2
Properties=species:S:1:pos:R:3:forces:R:3 energy=-3.7794474173631074 pbc="F F F"
Ge       0.00000000       0.00000000       0.00000000       0.00000000       0.00000000       2.19666123
Ge       0.00000000       0.00000000       2.76666667       0.00000000       0.00000000      -2.19666123
2
Properties=species:S:1:pos:R:3:forces:R:3 energy=-3.6492678396075475 pbc="F F F"
Ge       0.00000000       0.00000000       0.00000000       0.00000000       0.00000000       2.22542930
Ge       0.00000000       0.00000000       2.82545455       0.00000000       0.00000000      -2.22542930
2
Properties=species:S:1:pos:R:3:forces:R:3 energy=-3.51850741425781 pbc="F F F"
Ge       0.00000000       0.00000000       0.00000000       0.00000000       0.00000000       2.21770024
Ge       0.00000000       0.00000000       2.88424242       0.00000000       0.00000000      -2.21770024
2
Properties=species:S:1:pos:R:3:forces:R:3 energy=-3.389076140466453 pbc="F F F"
Ge       0.00000000       0.00000000       0.00000000       0.00000000       0.00000000       2.18147898
Ge       0.00000000       0.00000000       2.94303030       0.00000000       0.00000000      -2.18147898
2
Properties=species:S:1:pos:R:3:forces:R:3 energy=-3.262450951385791 pbc="F F F"
Ge       0.00000000       0.00000000       0.00000000       0.00000000       0.00000000       2.12307787
Ge       0.00000000       0.00000000       3.00181818       0.00000000       0.00000000      -2.12307787
2
Properties=species:S:1:pos:R:3:forces:R:3 energy=-3.1398020865963447 pbc="F F F"
Ge       0.00000000       0.00000000       0.00000000       0.00000000       0.00000000       2.04691744
Ge       0.00000000       0.00000000       3.06060606       0.00000000       0.00000000      -2.04691744
2
Properties=species:S:1:pos:R:3:forces:R:3 energy=-3.022044635962709 pbc="F F F"
Ge       0.00000000       0.00000000       0.00000000       0.00000000       0.00000000       1.95747006
Ge       0.00000000       0.00000000       3.11939394       0.00000000       0.00000000      -1.95747006
2
Properties=species:S:1:pos:R:3:forces:R:3 energy=-2.9098196997563304 pbc="F F F"
Ge       0.00000000       0.00000000       0.00000000       0.00000000       0.00000000       1.85940301
Ge       0.00000000       0.00000000       3.17818182       0.00000000       0.00000000      -1.85940301
2
Properties=species:S:1:pos:R:3:forces:R:3 energy=-2.8035139676095904 pbc="F F F"
Ge       0.00000000       0.00000000       0.00000000       0.00000000       0.00000000       1.75671041
Ge       0.00000000       0.00000000       3.23696970       0.00000000       0.00000000      -1.75671041
2
Properties=species:S:1:pos:R:3:forces:R:3 energy=-2.703306042305998 pbc="F F F"
Ge       0.00000000       0.00000000       0.00000000       0.00000000       0.00000000       1.65231204
Ge       0.00000000       0.00000000       3.29575758       0.00000000       0.00000000      -1.65231204
2
Properties=species:S:1:pos:R:3:forces:R:3 energy=-2.609236433152438 pbc="F F F"
Ge       0.00000000       0.00000000       0.00000000       0.00000000       0.00000000       1.54815602
Ge       0.00000000       0.00000000       3.35454545       0.00000000       0.00000000      -1.54815602
2
Properties=species:S:1:pos:R:3:forces:R:3 energy=-2.52125077780291 pbc="F F F"
Ge       0.00000000       0.00000000       0.00000000       0.00000000       0.00000000       1.44548523
Ge       0.00000000       0.00000000       3.41333333       0.00000000       0.00000000      -1.44548523
2
Properties=species:S:1:pos:R:3:forces:R:3 energy=-2.4392369398828007 pbc="F F F"
Ge       0.00000000       0.00000000       0.00000000       0.00000000       0.00000000       1.34510589
Ge       0.00000000       0.00000000       3.47212121       0.00000000       0.00000000      -1.34510589
2
Properties=species:S:1:pos:R:3:forces:R:3 energy=-2.363043145824296 pbc="F F F"
Ge       0.00000000       0.00000000       0.00000000       0.00000000       0.00000000       1.24759078
Ge       0.00000000       0.00000000       3.53090909       0.00000000       0.00000000      -1.24759078
2
Properties=species:S:1:pos:R:3:forces:R:3 energy=-2.2924854056968673 pbc="F F F"
Ge       0.00000000       0.00000000       0.00000000       0.00000000       0.00000000       1.15339339
Ge       0.00000000       0.00000000       3.58969697       0.00000000       0.00000000      -1.15339339
2
Properties=species:S:1:pos:R:3:forces:R:3 energy=-2.227358710049091 pbc="F F F"
Ge       0.00000000       0.00000000       0.00000000       0.00000000       0.00000000       1.06292295
Ge       0.00000000       0.00000000       3.64848485       0.00000000       0.00000000      -1.06292295
2
Properties=species:S:1:pos:R:3:forces:R:3 energy=-2.167431928755891 pbc="F F F"
Ge       0.00000000       0.00000000       0.00000000       0.00000000       0.00000000       0.97653735
Ge       0.00000000       0.00000000       3.70727273       0.00000000       0.00000000      -0.97653735
2
Properties=species:S:1:pos:R:3:forces:R:3 energy=-2.112455398399464 pbc="F F F"
Ge       0.00000000       0.00000000       0.00000000       0.00000000       0.00000000       0.89452320
Ge       0.00000000       0.00000000       3.76606061       0.00000000       0.00000000      -0.89452320
2
Properties=species:S:1:pos:R:3:forces:R:3 energy=-2.0621678229048683 pbc="F F F"
Ge       0.00000000       0.00000000       0.00000000       0.00000000       0.00000000       0.81708914
Ge       0.00000000       0.00000000       3.82484848       0.00000000       0.00000000      -0.81708914
2
Properties=species:S:1:pos:R:3:forces:R:3 energy=-2.0162938873543603 pbc="F F F"
Ge       0.00000000       0.00000000       0.00000000       0.00000000       0.00000000       0.74433452
Ge       0.00000000       0.00000000       3.88363636       0.00000000       0.00000000      -0.74433452
2
Properties=species:S:1:pos:R:3:forces:R:3 energy=-1.9745597868732592 pbc="F F F"
Ge       0.00000000       0.00000000       0.00000000       0.00000000       0.00000000       0.67627597
Ge       0.00000000       0.00000000       3.94242424       0.00000000       0.00000000      -0.67627597
2
Properties=species:S:1:pos:R:3:forces:R:3 energy=-1.9366898075744154 pbc="F F F"
Ge       0.00000000       0.00000000       0.00000000       0.00000000       0.00000000       0.61285985
Ge       0.00000000       0.00000000       4.00121212       0.00000000       0.00000000      -0.61285985
2
Properties=species:S:1:pos:R:3:forces:R:3 energy=-1.902413205850961 pbc="F F F"
Ge       0.00000000       0.00000000       0.00000000       0.00000000       0.00000000       0.55400020
Ge       0.00000000       0.00000000       4.06000000       0.00000000       0.00000000      -0.55400020
2
Properties=species:S:1:pos:R:3:forces:R:3 energy=-1.8714651367080484 pbc="F F F"
Ge       0.00000000       0.00000000       0.00000000       0.00000000       0.00000000       0.49962592
Ge       0.00000000       0.00000000       4.11878788       0.00000000       0.00000000      -0.49962592
2
Properties=species:S:1:pos:R:3:forces:R:3 energy=-1.8435822893685174 pbc="F F F"
Ge       0.00000000       0.00000000       0.00000000       0.00000000       0.00000000       0.44968665
Ge       0.00000000       0.00000000       4.17757576       0.00000000       0.00000000      -0.44968665
2
Properties=species:S:1:pos:R:3:forces:R:3 energy=-1.8185054370173568 pbc="F F F"
Ge       0.00000000       0.00000000       0.00000000       0.00000000       0.00000000       0.40417281
Ge       0.00000000       0.00000000       4.23636364       0.00000000       0.00000000      -0.40417281
2
Properties=species:S:1:pos:R:3:forces:R:3 energy=-1.7959741092295867 pbc="F F F"
Ge       0.00000000       0.00000000       0.00000000       0.00000000       0.00000000       0.36308569
Ge       0.00000000       0.00000000       4.29515152       0.00000000       0.00000000      -0.36308569
2
Properties=species:S:1:pos:R:3:forces:R:3 energy=-1.775729113204321 pbc="F F F"
Ge       0.00000000       0.00000000       0.00000000       0.00000000       0.00000000       0.32641947
Ge       0.00000000       0.00000000       4.35393939       0.00000000       0.00000000      -0.32641947
2
Properties=species:S:1:pos:R:3:forces:R:3 energy=-1.7575102422777362 pbc="F F F"
Ge       0.00000000       0.00000000       0.00000000       0.00000000       0.00000000       0.29410860
Ge       0.00000000       0.00000000       4.41272727       0.00000000       0.00000000      -0.29410860
2
Properties=species:S:1:pos:R:3:forces:R:3 energy=-1.7410663659470849 pbc="F F F"
Ge       0.00000000       0.00000000       0.00000000       0.00000000       0.00000000       0.26600346
Ge       0.00000000       0.00000000       4.47151515       0.00000000       0.00000000      -0.26600346
2
Properties=species:S:1:pos:R:3:forces:R:3 energy=-1.7261573423870198 pbc="F F F"
Ge       0.00000000       0.00000000       0.00000000       0.00000000       0.00000000       0.24182875
Ge       0.00000000       0.00000000       4.53030303       0.00000000       0.00000000      -0.24182875
2
Properties=species:S:1:pos:R:3:forces:R:3 energy=-1.7125642708644548 pbc="F F F"
Ge       0.00000000       0.00000000       0.00000000       0.00000000       0.00000000       0.22116691
Ge       0.00000000       0.00000000       4.58909091       0.00000000       0.00000000      -0.22116691
2
Properties=species:S:1:pos:R:3:forces:R:3 energy=-1.7000958288378443 pbc="F F F"
Ge       0.00000000       0.00000000       0.00000000       0.00000000       0.00000000       0.20346421
Ge       0.00000000       0.00000000       4.64787879       0.00000000       0.00000000      -0.20346421
2
Properties=species:S:1:pos:R:3:forces:R:3 energy=-1.6885964281220327 pbc="F F F"
Ge       0.00000000       0.00000000       0.00000000       0.00000000       0.00000000       0.18806674
Ge       0.00000000       0.00000000       4.70666667       0.00000000       0.00000000      -0.18806674
2
Properties=species:S:1:pos:R:3:forces:R:3 energy=-1.6779520303849076 pbc="F F F"
Ge       0.00000000       0.00000000       0.00000000       0.00000000       0.00000000       0.17428926
Ge       0.00000000       0.00000000       4.76545455       0.00000000       0.00000000      -0.17428926
2
Properties=species:S:1:pos:R:3:forces:R:3 energy=-1.6680841966023472 pbc="F F F"
Ge       0.00000000       0.00000000       0.00000000       0.00000000       0.00000000       0.16152661
Ge       0.00000000       0.00000000       4.82424242       0.00000000       0.00000000      -0.16152661
2
Properties=species:S:1:pos:R:3:forces:R:3 energy=-1.6589488280251001 pbc="F F F"
Ge       0.00000000       0.00000000       0.00000000       0.00000000       0.00000000       0.14938574
Ge       0.00000000       0.00000000       4.88303030       0.00000000       0.00000000      -0.14938574
2
Properties=species:S:1:pos:R:3:forces:R:3 energy=-1.6505101215328661 pbc="F F F"
Ge       0.00000000       0.00000000       0.00000000       0.00000000       0.00000000       0.13778986
Ge       0.00000000       0.00000000       4.94181818       0.00000000       0.00000000      -0.13778986
2
Properties=species:S:1:pos:R:3:forces:R:3 energy=-1.6427310835762843 pbc="F F F"
Ge       0.00000000       0.00000000       0.00000000       0.00000000       0.00000000       0.12704681
Ge       0.00000000       0.00000000       5.00060606       0.00000000       0.00000000      -0.12704681
2
Properties=species:S:1:pos:R:3:forces:R:3 energy=-1.6355434288313884 pbc="F F F"
Ge       0.00000000       0.00000000       0.00000000       0.00000000       0.00000000       0.11777148
Ge       0.00000000       0.00000000       5.05939394       0.00000000       0.00000000      -0.11777148
2
Properties=species:S:1:pos:R:3:forces:R:3 energy=-1.6288413575578833 pbc="F F F"
Ge       0.00000000       0.00000000       0.00000000       0.00000000       0.00000000       0.11066186
Ge       0.00000000       0.00000000       5.11818182       0.00000000       0.00000000      -0.11066186
2
Properties=species:S:1:pos:R:3:forces:R:3 energy=-1.6224822150020355 pbc="F F F"
Ge       0.00000000       0.00000000       0.00000000       0.00000000       0.00000000       0.10609616
Ge       0.00000000       0.00000000       5.17696970       0.00000000       0.00000000      -0.10609616
2
Properties=species:S:1:pos:R:3:forces:R:3 energy=-1.6163256585679109 pbc="F F F"
Ge       0.00000000       0.00000000       0.00000000       0.00000000       0.00000000       0.10360925
Ge       0.00000000       0.00000000       5.23575758       0.00000000       0.00000000      -0.10360925
2
Properties=species:S:1:pos:R:3:forces:R:3 energy=-1.6102923032441459 pbc="F F F"
Ge       0.00000000       0.00000000       0.00000000       0.00000000       0.00000000       0.10150276
Ge       0.00000000       0.00000000       5.29454545       0.00000000       0.00000000      -0.10150276
2
Properties=species:S:1:pos:R:3:forces:R:3 energy=-1.604433069316284 pbc="F F F"
Ge       0.00000000       0.00000000       0.00000000       0.00000000       0.00000000       0.09730546
Ge       0.00000000       0.00000000       5.35333333       0.00000000       0.00000000      -0.09730546
2
Properties=species:S:1:pos:R:3:forces:R:3 energy=-1.5989094150075116 pbc="F F F"
Ge       0.00000000       0.00000000       0.00000000       0.00000000       0.00000000       0.09037375
Ge       0.00000000       0.00000000       5.41212121       0.00000000       0.00000000      -0.09037375
2
Properties=species:S:1:pos:R:3:forces:R:3 energy=-1.5937811645340998 pbc="F F F"
Ge       0.00000000       0.00000000       0.00000000       0.00000000       0.00000000       0.08473888
Ge       0.00000000       0.00000000       5.47090909       0.00000000       0.00000000      -0.08473888
2
Properties=species:S:1:pos:R:3:forces:R:3 energy=-1.588875328369698 pbc="F F F"
Ge       0.00000000       0.00000000       0.00000000       0.00000000       0.00000000       0.08218098
Ge       0.00000000       0.00000000       5.52969697       0.00000000       0.00000000      -0.08218098
2
Properties=species:S:1:pos:R:3:forces:R:3 energy=-1.5842078831347841 pbc="F F F"
Ge       0.00000000       0.00000000       0.00000000       0.00000000       0.00000000       0.07539692
Ge       0.00000000       0.00000000       5.58848485       0.00000000       0.00000000      -0.07539692
2
Properties=species:S:1:pos:R:3:forces:R:3 energy=-1.580127906715112 pbc="F F F"
Ge       0.00000000       0.00000000       0.00000000       0.00000000       0.00000000       0.06308614
Ge       0.00000000       0.00000000       5.64727273       0.00000000       0.00000000      -0.06308614
2
Properties=species:S:1:pos:R:3:forces:R:3 energy=-1.5767367157432375 pbc="F F F"
Ge       0.00000000       0.00000000       0.00000000       0.00000000       0.00000000       0.05363235
Ge       0.00000000       0.00000000       5.70606061       0.00000000       0.00000000      -0.05363235
2
Properties=species:S:1:pos:R:3:forces:R:3 energy=-1.5736017918139984 pbc="F F F"
Ge       0.00000000       0.00000000       0.00000000       0.00000000       0.00000000       0.05424027
Ge       0.00000000       0.00000000       5.76484848       0.00000000       0.00000000      -0.05424027
2
Properties=species:S:1:pos:R:3:forces:R:3 energy=-1.5703956169396154 pbc="F F F"
Ge       0.00000000       0.00000000       0.00000000       0.00000000       0.00000000       0.05275222
Ge       0.00000000       0.00000000       5.82363636       0.00000000       0.00000000      -0.05275222
2
Properties=species:S:1:pos:R:3:forces:R:3 energy=-1.5677360115099583 pbc="F F F"
Ge       0.00000000       0.00000000       0.00000000       0.00000000       0.00000000       0.03583920
Ge       0.00000000       0.00000000       5.88242424       0.00000000       0.00000000      -0.03583920
2
Properties=species:S:1:pos:R:3:forces:R:3 energy=-1.5662610828769195 pbc="F F F"
Ge       0.00000000       0.00000000       0.00000000       0.00000000       0.00000000       0.01506592
Ge       0.00000000       0.00000000       5.94121212       0.00000000       0.00000000      -0.01506592
2
Properties=species:S:1:pos:R:3:forces:R:3 energy=-1.5657198945178552 pbc="F F F"
Ge       0.00000000       0.00000000       0.00000000       0.00000000       0.00000000       0.00616144
Ge       0.00000000       0.00000000       6.00000000       0.00000000       0.00000000      -0.00616144
