2
Properties=species:S:1:pos:R:3:forces:R:3 energy=8904.414252833047 pbc="F F F"
I        0.00000000       0.00000000       0.00000000       0.00000000       0.00000000 -157535.04687500
I        0.00000000       0.00000000       0.18000000       0.00000000       0.00000000  157535.04687500
2
Properties=species:S:1:pos:R:3:forces:R:3 energy=3335.7599559580467 pbc="F F F"
I        0.00000000       0.00000000       0.00000000       0.00000000       0.00000000  -53419.07421875
I        0.00000000       0.00000000       0.23878788       0.00000000       0.00000000   53419.07421875
2
Properties=species:S:1:pos:R:3:forces:R:3 energy=1320.053779200234 pbc="F F F"
I        0.00000000       0.00000000       0.00000000       0.00000000       0.00000000  -20659.23632812
I        0.00000000       0.00000000       0.29757576       0.00000000       0.00000000   20659.23632812
2
Properties=species:S:1:pos:R:3:forces:R:3 energy=534.3073802807884 pbc="F F F"
I        0.00000000       0.00000000       0.00000000       0.00000000       0.00000000   -7848.67871094
I        0.00000000       0.00000000       0.35636364       0.00000000       0.00000000    7848.67871094
2
Properties=species:S:1:pos:R:3:forces:R:3 energy=266.38159903712403 pbc="F F F"
I        0.00000000       0.00000000       0.00000000       0.00000000       0.00000000   -1960.96118164
I        0.00000000       0.00000000       0.41515152       0.00000000       0.00000000    1960.96118164
2
Properties=species:S:1:pos:R:3:forces:R:3 energy=235.1966930502716 pbc="F F F"
I        0.00000000       0.00000000       0.00000000       0.00000000       0.00000000     728.27020264
I        0.00000000       0.00000000       0.47393939       0.00000000       0.00000000    -728.27020264
2
Properties=species:S:1:pos:R:3:forces:R:3 energy=341.240028049223 pbc="F F F"
I        0.00000000       0.00000000       0.00000000       0.00000000       0.00000000     913.86071777
I        0.00000000       0.00000000       0.53272727       0.00000000       0.00000000    -913.86071777
2
Properties=species:S:1:pos:R:3:forces:R:3 energy=421.77759524491563 pbc="F F F"
I        0.00000000       0.00000000       0.00000000       0.00000000       0.00000000    1555.65905762
I        0.00000000       0.00000000       0.59151515       0.00000000       0.00000000   -1555.65905762
2
Properties=species:S:1:pos:R:3:forces:R:3 energy=495.75476819468065 pbc="F F F"
I        0.00000000       0.00000000       0.00000000       0.00000000       0.00000000     775.63031006
I        0.00000000       0.00000000       0.65030303       0.00000000       0.00000000    -775.63031006
2
Properties=species:S:1:pos:R:3:forces:R:3 energy=502.97751615263826 pbc="F F F"
I        0.00000000       0.00000000       0.00000000       0.00000000       0.00000000    -500.97827148
I        0.00000000       0.00000000       0.70909091       0.00000000       0.00000000     500.97827148
2
Properties=species:S:1:pos:R:3:forces:R:3 energy=455.158149931979 pbc="F F F"
I        0.00000000       0.00000000       0.00000000       0.00000000       0.00000000    -940.75750732
I        0.00000000       0.00000000       0.76787879       0.00000000       0.00000000     940.75750732
2
Properties=species:S:1:pos:R:3:forces:R:3 energy=394.9464803553966 pbc="F F F"
I        0.00000000       0.00000000       0.00000000       0.00000000       0.00000000   -1002.60150146
I        0.00000000       0.00000000       0.82666667       0.00000000       0.00000000    1002.60150146
2
Properties=species:S:1:pos:R:3:forces:R:3 energy=336.9989100487956 pbc="F F F"
I        0.00000000       0.00000000       0.00000000       0.00000000       0.00000000    -958.48840332
I        0.00000000       0.00000000       0.88545455       0.00000000       0.00000000     958.48840332
2
Properties=species:S:1:pos:R:3:forces:R:3 energy=284.64560874059555 pbc="F F F"
I        0.00000000       0.00000000       0.00000000       0.00000000       0.00000000    -798.14831543
I        0.00000000       0.00000000       0.94424242       0.00000000       0.00000000     798.14831543
2
Properties=species:S:1:pos:R:3:forces:R:3 energy=244.49451716481315 pbc="F F F"
I        0.00000000       0.00000000       0.00000000       0.00000000       0.00000000    -572.14904785
I        0.00000000       0.00000000       1.00303030       0.00000000       0.00000000     572.14904785
2
Properties=species:S:1:pos:R:3:forces:R:3 energy=215.58858888868707 pbc="F F F"
I        0.00000000       0.00000000       0.00000000       0.00000000       0.00000000    -428.49502563
I        0.00000000       0.00000000       1.06181818       0.00000000       0.00000000     428.49502563
2
Properties=species:S:1:pos:R:3:forces:R:3 energy=192.95402333856885 pbc="F F F"
I        0.00000000       0.00000000       0.00000000       0.00000000       0.00000000    -352.85623169
I        0.00000000       0.00000000       1.12060606       0.00000000       0.00000000     352.85623169
2
Properties=species:S:1:pos:R:3:forces:R:3 energy=172.0841067581447 pbc="F F F"
I        0.00000000       0.00000000       0.00000000       0.00000000       0.00000000    -373.04086304
I        0.00000000       0.00000000       1.17939394       0.00000000       0.00000000     373.04086304
2
Properties=species:S:1:pos:R:3:forces:R:3 energy=148.92360245138573 pbc="F F F"
I        0.00000000       0.00000000       0.00000000       0.00000000       0.00000000    -409.10974121
I        0.00000000       0.00000000       1.23818182       0.00000000       0.00000000     409.10974121
2
Properties=species:S:1:pos:R:3:forces:R:3 energy=124.64471364064781 pbc="F F F"
I        0.00000000       0.00000000       0.00000000       0.00000000       0.00000000    -410.57556152
I        0.00000000       0.00000000       1.29696970       0.00000000       0.00000000     410.57556152
2
Properties=species:S:1:pos:R:3:forces:R:3 energy=101.3715097076927 pbc="F F F"
I        0.00000000       0.00000000       0.00000000       0.00000000       0.00000000    -376.08029175
I        0.00000000       0.00000000       1.35575758       0.00000000       0.00000000     376.08029175
2
Properties=species:S:1:pos:R:3:forces:R:3 energy=80.85988838356933 pbc="F F F"
I        0.00000000       0.00000000       0.00000000       0.00000000       0.00000000    -319.77453613
I        0.00000000       0.00000000       1.41454545       0.00000000       0.00000000     319.77453613
2
Properties=species:S:1:pos:R:3:forces:R:3 energy=63.84385487072614 pbc="F F F"
I        0.00000000       0.00000000       0.00000000       0.00000000       0.00000000    -259.17385864
I        0.00000000       0.00000000       1.47333333       0.00000000       0.00000000     259.17385864
2
Properties=species:S:1:pos:R:3:forces:R:3 energy=50.21619357291946 pbc="F F F"
I        0.00000000       0.00000000       0.00000000       0.00000000       0.00000000    -207.93525696
I        0.00000000       0.00000000       1.53212121       0.00000000       0.00000000     207.93525696
2
Properties=species:S:1:pos:R:3:forces:R:3 energy=39.02888003500089 pbc="F F F"
I        0.00000000       0.00000000       0.00000000       0.00000000       0.00000000    -173.64044189
I        0.00000000       0.00000000       1.59090909       0.00000000       0.00000000     173.64044189
2
Properties=species:S:1:pos:R:3:forces:R:3 energy=29.84187403605889 pbc="F F F"
I        0.00000000       0.00000000       0.00000000       0.00000000       0.00000000    -138.63529968
I        0.00000000       0.00000000       1.64969697       0.00000000       0.00000000     138.63529968
2
Properties=species:S:1:pos:R:3:forces:R:3 energy=22.660104560938418 pbc="F F F"
I        0.00000000       0.00000000       0.00000000       0.00000000       0.00000000    -106.90787506
I        0.00000000       0.00000000       1.70848485       0.00000000       0.00000000     106.90787506
2
Properties=species:S:1:pos:R:3:forces:R:3 energy=17.114395191678373 pbc="F F F"
I        0.00000000       0.00000000       0.00000000       0.00000000       0.00000000     -83.00830841
I        0.00000000       0.00000000       1.76727273       0.00000000       0.00000000      83.00830841
2
Properties=species:S:1:pos:R:3:forces:R:3 energy=12.778356731412968 pbc="F F F"
I        0.00000000       0.00000000       0.00000000       0.00000000       0.00000000     -65.34155273
I        0.00000000       0.00000000       1.82606061       0.00000000       0.00000000      65.34155273
2
Properties=species:S:1:pos:R:3:forces:R:3 energy=9.351713066923475 pbc="F F F"
I        0.00000000       0.00000000       0.00000000       0.00000000       0.00000000     -51.79469681
I        0.00000000       0.00000000       1.88484848       0.00000000       0.00000000      51.79469681
2
Properties=species:S:1:pos:R:3:forces:R:3 energy=6.632885165969396 pbc="F F F"
I        0.00000000       0.00000000       0.00000000       0.00000000       0.00000000     -41.10436249
I        0.00000000       0.00000000       1.94363636       0.00000000       0.00000000      41.10436249
2
Properties=species:S:1:pos:R:3:forces:R:3 energy=4.477851381096649 pbc="F F F"
I        0.00000000       0.00000000       0.00000000       0.00000000       0.00000000     -32.51365280
I        0.00000000       0.00000000       2.00242424       0.00000000       0.00000000      32.51365280
2
Properties=species:S:1:pos:R:3:forces:R:3 energy=2.7786964992519847 pbc="F F F"
I        0.00000000       0.00000000       0.00000000       0.00000000       0.00000000     -25.52950668
I        0.00000000       0.00000000       2.06121212       0.00000000       0.00000000      25.52950668
2
Properties=species:S:1:pos:R:3:forces:R:3 energy=1.4510669636092826 pbc="F F F"
I        0.00000000       0.00000000       0.00000000       0.00000000       0.00000000     -19.83180618
I        0.00000000       0.00000000       2.12000000       0.00000000       0.00000000      19.83180618
2
Properties=species:S:1:pos:R:3:forces:R:3 energy=0.42607096022038 pbc="F F F"
I        0.00000000       0.00000000       0.00000000       0.00000000       0.00000000     -15.20147133
I        0.00000000       0.00000000       2.17878788       0.00000000       0.00000000      15.20147133
2
Properties=species:S:1:pos:R:3:forces:R:3 energy=-0.3537623989739717 pbc="F F F"
I        0.00000000       0.00000000       0.00000000       0.00000000       0.00000000     -11.46452332
I        0.00000000       0.00000000       2.23757576       0.00000000       0.00000000      11.46452332
2
Properties=species:S:1:pos:R:3:forces:R:3 energy=-0.9362886247513311 pbc="F F F"
I        0.00000000       0.00000000       0.00000000       0.00000000       0.00000000      -8.46357918
I        0.00000000       0.00000000       2.29636364       0.00000000       0.00000000       8.46357918
2
Properties=species:S:1:pos:R:3:forces:R:3 energy=-1.3604626462668343 pbc="F F F"
I        0.00000000       0.00000000       0.00000000       0.00000000       0.00000000      -6.05491829
I        0.00000000       0.00000000       2.35515152       0.00000000       0.00000000       6.05491829
2
Properties=species:S:1:pos:R:3:forces:R:3 energy=-1.657414069005442 pbc="F F F"
I        0.00000000       0.00000000       0.00000000       0.00000000       0.00000000      -4.11750221
I        0.00000000       0.00000000       2.41393939       0.00000000       0.00000000       4.11750221
2
Properties=species:S:1:pos:R:3:forces:R:3 energy=-1.8520362883406576 pbc="F F F"
I        0.00000000       0.00000000       0.00000000       0.00000000       0.00000000      -2.56142116
I        0.00000000       0.00000000       2.47272727       0.00000000       0.00000000       2.56142116
2
Properties=species:S:1:pos:R:3:forces:R:3 energy=-1.964855211897649 pbc="F F F"
I        0.00000000       0.00000000       0.00000000       0.00000000       0.00000000      -1.32652569
I        0.00000000       0.00000000       2.53151515       0.00000000       0.00000000       1.32652569
2
Properties=species:S:1:pos:R:3:forces:R:3 energy=-2.0134904363256734 pbc="F F F"
I        0.00000000       0.00000000       0.00000000       0.00000000       0.00000000      -0.37181780
I        0.00000000       0.00000000       2.59030303       0.00000000       0.00000000       0.37181780
2
Properties=species:S:1:pos:R:3:forces:R:3 energy=-2.0133694364874186 pbc="F F F"
I        0.00000000       0.00000000       0.00000000       0.00000000       0.00000000       0.33826071
I        0.00000000       0.00000000       2.64909091       0.00000000       0.00000000      -0.33826071
2
Properties=species:S:1:pos:R:3:forces:R:3 energy=-1.9777505855231772 pbc="F F F"
I        0.00000000       0.00000000       0.00000000       0.00000000       0.00000000       0.84276408
I        0.00000000       0.00000000       2.70787879       0.00000000       0.00000000      -0.84276408
2
Properties=species:S:1:pos:R:3:forces:R:3 energy=-1.9174809457491013 pbc="F F F"
I        0.00000000       0.00000000       0.00000000       0.00000000       0.00000000       1.18379307
I        0.00000000       0.00000000       2.76666667       0.00000000       0.00000000      -1.18379307
2
Properties=species:S:1:pos:R:3:forces:R:3 energy=-1.8410184427530145 pbc="F F F"
I        0.00000000       0.00000000       0.00000000       0.00000000       0.00000000       1.39920378
I        0.00000000       0.00000000       2.82545455       0.00000000       0.00000000      -1.39920378
2
Properties=species:S:1:pos:R:3:forces:R:3 energy=-1.7549010668224365 pbc="F F F"
I        0.00000000       0.00000000       0.00000000       0.00000000       0.00000000       1.51561058
I        0.00000000       0.00000000       2.88424242       0.00000000       0.00000000      -1.51561058
2
Properties=species:S:1:pos:R:3:forces:R:3 energy=-1.6644671564788542 pbc="F F F"
I        0.00000000       0.00000000       0.00000000       0.00000000       0.00000000       1.54770613
I        0.00000000       0.00000000       2.94303030       0.00000000       0.00000000      -1.54770613
2
Properties=species:S:1:pos:R:3:forces:R:3 energy=-1.5743992712703867 pbc="F F F"
I        0.00000000       0.00000000       0.00000000       0.00000000       0.00000000       1.50484705
I        0.00000000       0.00000000       3.00181818       0.00000000       0.00000000      -1.50484705
2
Properties=species:S:1:pos:R:3:forces:R:3 energy=-1.4887562317282275 pbc="F F F"
I        0.00000000       0.00000000       0.00000000       0.00000000       0.00000000       1.39993167
I        0.00000000       0.00000000       3.06060606       0.00000000       0.00000000      -1.39993167
2
Properties=species:S:1:pos:R:3:forces:R:3 energy=-1.410612700999049 pbc="F F F"
I        0.00000000       0.00000000       0.00000000       0.00000000       0.00000000       1.25379109
I        0.00000000       0.00000000       3.11939394       0.00000000       0.00000000      -1.25379109
2
Properties=species:S:1:pos:R:3:forces:R:3 energy=-1.3416404296172229 pbc="F F F"
I        0.00000000       0.00000000       0.00000000       0.00000000       0.00000000       1.09227276
I        0.00000000       0.00000000       3.17818182       0.00000000       0.00000000      -1.09227276
2
Properties=species:S:1:pos:R:3:forces:R:3 energy=-1.28202057848825 pbc="F F F"
I        0.00000000       0.00000000       0.00000000       0.00000000       0.00000000       0.93903607
I        0.00000000       0.00000000       3.23696970       0.00000000       0.00000000      -0.93903607
2
Properties=species:S:1:pos:R:3:forces:R:3 energy=-1.2307608869548883 pbc="F F F"
I        0.00000000       0.00000000       0.00000000       0.00000000       0.00000000       0.80954182
I        0.00000000       0.00000000       3.29575758       0.00000000       0.00000000      -0.80954182
2
Properties=species:S:1:pos:R:3:forces:R:3 energy=-1.186258356818978 pbc="F F F"
I        0.00000000       0.00000000       0.00000000       0.00000000       0.00000000       0.70933586
I        0.00000000       0.00000000       3.35454545       0.00000000       0.00000000      -0.70933586
2
Properties=species:S:1:pos:R:3:forces:R:3 energy=-1.1468278243477732 pbc="F F F"
I        0.00000000       0.00000000       0.00000000       0.00000000       0.00000000       0.63614798
I        0.00000000       0.00000000       3.41333333       0.00000000       0.00000000      -0.63614798
2
Properties=species:S:1:pos:R:3:forces:R:3 energy=-1.1110582458669256 pbc="F F F"
I        0.00000000       0.00000000       0.00000000       0.00000000       0.00000000       0.58357942
I        0.00000000       0.00000000       3.47212121       0.00000000       0.00000000      -0.58357942
2
Properties=species:S:1:pos:R:3:forces:R:3 energy=-1.077950604430113 pbc="F F F"
I        0.00000000       0.00000000       0.00000000       0.00000000       0.00000000       0.54446810
I        0.00000000       0.00000000       3.53090909       0.00000000       0.00000000      -0.54446810
2
Properties=species:S:1:pos:R:3:forces:R:3 energy=-1.046893455706869 pbc="F F F"
I        0.00000000       0.00000000       0.00000000       0.00000000       0.00000000       0.51301813
I        0.00000000       0.00000000       3.58969697       0.00000000       0.00000000      -0.51301813
2
Properties=species:S:1:pos:R:3:forces:R:3 energy=-1.0175567847879463 pbc="F F F"
I        0.00000000       0.00000000       0.00000000       0.00000000       0.00000000       0.48546579
I        0.00000000       0.00000000       3.64848485       0.00000000       0.00000000      -0.48546579
2
Properties=species:S:1:pos:R:3:forces:R:3 energy=-0.9897789790751267 pbc="F F F"
I        0.00000000       0.00000000       0.00000000       0.00000000       0.00000000       0.45976320
I        0.00000000       0.00000000       3.70727273       0.00000000       0.00000000      -0.45976320
2
Properties=species:S:1:pos:R:3:forces:R:3 energy=-0.9634817789812874 pbc="F F F"
I        0.00000000       0.00000000       0.00000000       0.00000000       0.00000000       0.43498901
I        0.00000000       0.00000000       3.76606061       0.00000000       0.00000000      -0.43498901
2
Properties=species:S:1:pos:R:3:forces:R:3 energy=-0.9386221480084539 pbc="F F F"
I        0.00000000       0.00000000       0.00000000       0.00000000       0.00000000       0.41086146
I        0.00000000       0.00000000       3.82484848       0.00000000       0.00000000      -0.41086146
2
Properties=species:S:1:pos:R:3:forces:R:3 energy=-0.9151621908414794 pbc="F F F"
I        0.00000000       0.00000000       0.00000000       0.00000000       0.00000000       0.38737461
I        0.00000000       0.00000000       3.88363636       0.00000000       0.00000000      -0.38737461
2
Properties=species:S:1:pos:R:3:forces:R:3 energy=-0.8930623409155937 pbc="F F F"
I        0.00000000       0.00000000       0.00000000       0.00000000       0.00000000       0.36459795
I        0.00000000       0.00000000       3.94242424       0.00000000       0.00000000      -0.36459795
2
Properties=species:S:1:pos:R:3:forces:R:3 energy=-0.87227971532494 pbc="F F F"
I        0.00000000       0.00000000       0.00000000       0.00000000       0.00000000       0.34258169
I        0.00000000       0.00000000       4.00121212       0.00000000       0.00000000      -0.34258169
2
Properties=species:S:1:pos:R:3:forces:R:3 energy=-0.852767889323227 pbc="F F F"
I        0.00000000       0.00000000       0.00000000       0.00000000       0.00000000       0.32135311
I        0.00000000       0.00000000       4.06000000       0.00000000       0.00000000      -0.32135311
2
Properties=species:S:1:pos:R:3:forces:R:3 energy=-0.8344800518660457 pbc="F F F"
I        0.00000000       0.00000000       0.00000000       0.00000000       0.00000000       0.30096564
I        0.00000000       0.00000000       4.11878788       0.00000000       0.00000000      -0.30096564
2
Properties=species:S:1:pos:R:3:forces:R:3 energy=-0.8173629636149337 pbc="F F F"
I        0.00000000       0.00000000       0.00000000       0.00000000       0.00000000       0.28153360
I        0.00000000       0.00000000       4.17757576       0.00000000       0.00000000      -0.28153360
2
Properties=species:S:1:pos:R:3:forces:R:3 energy=-0.8013553464440141 pbc="F F F"
I        0.00000000       0.00000000       0.00000000       0.00000000       0.00000000       0.26326090
I        0.00000000       0.00000000       4.23636364       0.00000000       0.00000000      -0.26326090
2
Properties=species:S:1:pos:R:3:forces:R:3 energy=-0.786381287163277 pbc="F F F"
I        0.00000000       0.00000000       0.00000000       0.00000000       0.00000000       0.24641748
I        0.00000000       0.00000000       4.29515152       0.00000000       0.00000000      -0.24641748
2
Properties=species:S:1:pos:R:3:forces:R:3 energy=-0.7723488248460851 pbc="F F F"
I        0.00000000       0.00000000       0.00000000       0.00000000       0.00000000       0.23130079
I        0.00000000       0.00000000       4.35393939       0.00000000       0.00000000      -0.23130079
2
Properties=species:S:1:pos:R:3:forces:R:3 energy=-0.7591474789442979 pbc="F F F"
I        0.00000000       0.00000000       0.00000000       0.00000000       0.00000000       0.21815988
I        0.00000000       0.00000000       4.41272727       0.00000000       0.00000000      -0.21815988
2
Properties=species:S:1:pos:R:3:forces:R:3 energy=-0.746656447218786 pbc="F F F"
I        0.00000000       0.00000000       0.00000000       0.00000000       0.00000000       0.20714590
I        0.00000000       0.00000000       4.47151515       0.00000000       0.00000000      -0.20714590
2
Properties=species:S:1:pos:R:3:forces:R:3 energy=-0.7347502004884681 pbc="F F F"
I        0.00000000       0.00000000       0.00000000       0.00000000       0.00000000       0.19825615
I        0.00000000       0.00000000       4.53030303       0.00000000       0.00000000      -0.19825615
2
Properties=species:S:1:pos:R:3:forces:R:3 energy=-0.7233080009505178 pbc="F F F"
I        0.00000000       0.00000000       0.00000000       0.00000000       0.00000000       0.19132291
I        0.00000000       0.00000000       4.58909091       0.00000000       0.00000000      -0.19132291
2
Properties=species:S:1:pos:R:3:forces:R:3 energy=-0.7122233163783994 pbc="F F F"
I        0.00000000       0.00000000       0.00000000       0.00000000       0.00000000       0.18603343
I        0.00000000       0.00000000       4.64787879       0.00000000       0.00000000      -0.18603343
2
Properties=species:S:1:pos:R:3:forces:R:3 energy=-0.7014105944605277 pbc="F F F"
I        0.00000000       0.00000000       0.00000000       0.00000000       0.00000000       0.18198252
I        0.00000000       0.00000000       4.70666667       0.00000000       0.00000000      -0.18198252
2
Properties=species:S:1:pos:R:3:forces:R:3 energy=-0.6908100876086731 pbc="F F F"
I        0.00000000       0.00000000       0.00000000       0.00000000       0.00000000       0.17878343
I        0.00000000       0.00000000       4.76545455       0.00000000       0.00000000      -0.17878343
2
Properties=species:S:1:pos:R:3:forces:R:3 energy=-0.6803772706736388 pbc="F F F"
I        0.00000000       0.00000000       0.00000000       0.00000000       0.00000000       0.17622311
I        0.00000000       0.00000000       4.82424242       0.00000000       0.00000000      -0.17622311
2
Properties=species:S:1:pos:R:3:forces:R:3 energy=-0.6700757675834415 pbc="F F F"
I        0.00000000       0.00000000       0.00000000       0.00000000       0.00000000       0.17446403
I        0.00000000       0.00000000       4.88303030       0.00000000       0.00000000      -0.17446403
2
Properties=species:S:1:pos:R:3:forces:R:3 energy=-0.6598348019624556 pbc="F F F"
I        0.00000000       0.00000000       0.00000000       0.00000000       0.00000000       0.17427097
I        0.00000000       0.00000000       4.94181818       0.00000000       0.00000000      -0.17427097
2
Properties=species:S:1:pos:R:3:forces:R:3 energy=-0.6495248168318309 pbc="F F F"
I        0.00000000       0.00000000       0.00000000       0.00000000       0.00000000       0.17717510
I        0.00000000       0.00000000       5.00060606       0.00000000       0.00000000      -0.17717510
2
Properties=species:S:1:pos:R:3:forces:R:3 energy=-0.6388992034416566 pbc="F F F"
I        0.00000000       0.00000000       0.00000000       0.00000000       0.00000000       0.18537354
I        0.00000000       0.00000000       5.05939394       0.00000000       0.00000000      -0.18537354
2
Properties=species:S:1:pos:R:3:forces:R:3 energy=-0.6275797682410379 pbc="F F F"
I        0.00000000       0.00000000       0.00000000       0.00000000       0.00000000       0.20116726
I        0.00000000       0.00000000       5.11818182       0.00000000       0.00000000      -0.20116726
2
Properties=species:S:1:pos:R:3:forces:R:3 energy=-0.6150736037444302 pbc="F F F"
I        0.00000000       0.00000000       0.00000000       0.00000000       0.00000000       0.22573495
I        0.00000000       0.00000000       5.17696970       0.00000000       0.00000000      -0.22573495
2
Properties=species:S:1:pos:R:3:forces:R:3 energy=-0.600901133563817 pbc="F F F"
I        0.00000000       0.00000000       0.00000000       0.00000000       0.00000000       0.25718749
I        0.00000000       0.00000000       5.23575758       0.00000000       0.00000000      -0.25718749
2
Properties=species:S:1:pos:R:3:forces:R:3 energy=-0.584832870769268 pbc="F F F"
I        0.00000000       0.00000000       0.00000000       0.00000000       0.00000000       0.28858244
I        0.00000000       0.00000000       5.29454545       0.00000000       0.00000000      -0.28858244
2
Properties=species:S:1:pos:R:3:forces:R:3 energy=-0.5671855151332473 pbc="F F F"
I        0.00000000       0.00000000       0.00000000       0.00000000       0.00000000       0.30921042
I        0.00000000       0.00000000       5.35333333       0.00000000       0.00000000      -0.30921042
2
Properties=species:S:1:pos:R:3:forces:R:3 energy=-0.5487539529424352 pbc="F F F"
I        0.00000000       0.00000000       0.00000000       0.00000000       0.00000000       0.31680879
I        0.00000000       0.00000000       5.41212121       0.00000000       0.00000000      -0.31680879
2
Properties=species:S:1:pos:R:3:forces:R:3 energy=-0.5297673547123767 pbc="F F F"
I        0.00000000       0.00000000       0.00000000       0.00000000       0.00000000       0.33277228
I        0.00000000       0.00000000       5.47090909       0.00000000       0.00000000      -0.33277228
2
Properties=species:S:1:pos:R:3:forces:R:3 energy=-0.5092644149320764 pbc="F F F"
I        0.00000000       0.00000000       0.00000000       0.00000000       0.00000000       0.36431423
I        0.00000000       0.00000000       5.52969697       0.00000000       0.00000000      -0.36431423
2
Properties=species:S:1:pos:R:3:forces:R:3 energy=-0.4875469938972443 pbc="F F F"
I        0.00000000       0.00000000       0.00000000       0.00000000       0.00000000       0.36633351
I        0.00000000       0.00000000       5.58848485       0.00000000       0.00000000      -0.36633351
2
Properties=species:S:1:pos:R:3:forces:R:3 energy=-0.4670400497595809 pbc="F F F"
I        0.00000000       0.00000000       0.00000000       0.00000000       0.00000000       0.32800034
I        0.00000000       0.00000000       5.64727273       0.00000000       0.00000000      -0.32800034
2
Properties=species:S:1:pos:R:3:forces:R:3 energy=-0.4487901671292569 pbc="F F F"
I        0.00000000       0.00000000       0.00000000       0.00000000       0.00000000       0.30019233
I        0.00000000       0.00000000       5.70606061       0.00000000       0.00000000      -0.30019233
2
Properties=species:S:1:pos:R:3:forces:R:3 energy=-0.43051829946463416 pbc="F F F"
I        0.00000000       0.00000000       0.00000000       0.00000000       0.00000000       0.32700303
I        0.00000000       0.00000000       5.76484848       0.00000000       0.00000000      -0.32700303
2
Properties=species:S:1:pos:R:3:forces:R:3 energy=-0.41089441745863287 pbc="F F F"
I        0.00000000       0.00000000       0.00000000       0.00000000       0.00000000       0.32427162
I        0.00000000       0.00000000       5.82363636       0.00000000       0.00000000      -0.32427162
2
Properties=species:S:1:pos:R:3:forces:R:3 energy=-0.394839402588103 pbc="F F F"
I        0.00000000       0.00000000       0.00000000       0.00000000       0.00000000       0.20847531
I        0.00000000       0.00000000       5.88242424       0.00000000       0.00000000      -0.20847531
2
Properties=species:S:1:pos:R:3:forces:R:3 energy=-0.38692876265544246 pbc="F F F"
I        0.00000000       0.00000000       0.00000000       0.00000000       0.00000000       0.06570959
I        0.00000000       0.00000000       5.94121212       0.00000000       0.00000000      -0.06570959
2
Properties=species:S:1:pos:R:3:forces:R:3 energy=-0.38539647452824943 pbc="F F F"
I        0.00000000       0.00000000       0.00000000       0.00000000       0.00000000       0.00598860
I        0.00000000       0.00000000       6.00000000       0.00000000       0.00000000      -0.00598860
