2
Properties=species:S:1:pos:R:3:forces:R:3 energy=14597.311866158194 pbc="F F F"
Lu       0.00000000       0.00000000       0.00000000       0.00000000       0.00000000 -244175.39062500
Lu       0.00000000       0.00000000       0.18000000       0.00000000       0.00000000  244175.39062500
2
Properties=species:S:1:pos:R:3:forces:R:3 energy=6050.221045845693 pbc="F F F"
Lu       0.00000000       0.00000000       0.00000000       0.00000000       0.00000000  -81098.23437500
Lu       0.00000000       0.00000000       0.23878788       0.00000000       0.00000000   81098.23437500
2
Properties=species:S:1:pos:R:3:forces:R:3 energy=2986.4776376425684 pbc="F F F"
Lu       0.00000000       0.00000000       0.00000000       0.00000000       0.00000000  -31837.69921875
Lu       0.00000000       0.00000000       0.29757576       0.00000000       0.00000000   31837.69921875
2
Properties=species:S:1:pos:R:3:forces:R:3 energy=1719.411719680154 pbc="F F F"
Lu       0.00000000       0.00000000       0.00000000       0.00000000       0.00000000  -14056.18554688
Lu       0.00000000       0.00000000       0.35636364       0.00000000       0.00000000   14056.18554688
2
Properties=species:S:1:pos:R:3:forces:R:3 energy=1131.3439706567165 pbc="F F F"
Lu       0.00000000       0.00000000       0.00000000       0.00000000       0.00000000   -6986.62500000
Lu       0.00000000       0.00000000       0.41515152       0.00000000       0.00000000    6986.62500000
2
Properties=species:S:1:pos:R:3:forces:R:3 energy=819.2059091459503 pbc="F F F"
Lu       0.00000000       0.00000000       0.00000000       0.00000000       0.00000000   -4052.85937500
Lu       0.00000000       0.00000000       0.47393939       0.00000000       0.00000000    4052.85937500
2
Properties=species:S:1:pos:R:3:forces:R:3 energy=622.6771616000278 pbc="F F F"
Lu       0.00000000       0.00000000       0.00000000       0.00000000       0.00000000   -2781.24096680
Lu       0.00000000       0.00000000       0.53272727       0.00000000       0.00000000    2781.24096680
2
Properties=species:S:1:pos:R:3:forces:R:3 energy=458.09049170983104 pbc="F F F"
Lu       0.00000000       0.00000000       0.00000000       0.00000000       0.00000000   -2623.64086914
Lu       0.00000000       0.00000000       0.59151515       0.00000000       0.00000000    2623.64086914
2
Properties=species:S:1:pos:R:3:forces:R:3 energy=319.4020762331724 pbc="F F F"
Lu       0.00000000       0.00000000       0.00000000       0.00000000       0.00000000   -2052.02172852
Lu       0.00000000       0.00000000       0.65030303       0.00000000       0.00000000    2052.02172852
2
Properties=species:S:1:pos:R:3:forces:R:3 energy=219.13132434973951 pbc="F F F"
Lu       0.00000000       0.00000000       0.00000000       0.00000000       0.00000000   -1384.50854492
Lu       0.00000000       0.00000000       0.70909091       0.00000000       0.00000000    1384.50854492
2
Properties=species:S:1:pos:R:3:forces:R:3 energy=153.3928906258905 pbc="F F F"
Lu       0.00000000       0.00000000       0.00000000       0.00000000       0.00000000    -931.62890625
Lu       0.00000000       0.00000000       0.76787879       0.00000000       0.00000000     931.62890625
2
Properties=species:S:1:pos:R:3:forces:R:3 energy=115.26018511481196 pbc="F F F"
Lu       0.00000000       0.00000000       0.00000000       0.00000000       0.00000000    -409.25433350
Lu       0.00000000       0.00000000       0.82666667       0.00000000       0.00000000     409.25433350
2
Properties=species:S:1:pos:R:3:forces:R:3 energy=96.94870770076928 pbc="F F F"
Lu       0.00000000       0.00000000       0.00000000       0.00000000       0.00000000    -235.65715027
Lu       0.00000000       0.00000000       0.88545455       0.00000000       0.00000000     235.65715027
2
Properties=species:S:1:pos:R:3:forces:R:3 energy=86.48479508536253 pbc="F F F"
Lu       0.00000000       0.00000000       0.00000000       0.00000000       0.00000000    -122.62983704
Lu       0.00000000       0.00000000       0.94424242       0.00000000       0.00000000     122.62983704
2
Properties=species:S:1:pos:R:3:forces:R:3 energy=82.33461855858272 pbc="F F F"
Lu       0.00000000       0.00000000       0.00000000       0.00000000       0.00000000     -23.68264771
Lu       0.00000000       0.00000000       1.00303030       0.00000000       0.00000000      23.68264771
2
Properties=species:S:1:pos:R:3:forces:R:3 energy=81.41678014818983 pbc="F F F"
Lu       0.00000000       0.00000000       0.00000000       0.00000000       0.00000000     -51.90289688
Lu       0.00000000       0.00000000       1.06181818       0.00000000       0.00000000      51.90289688
2
Properties=species:S:1:pos:R:3:forces:R:3 energy=71.35268646638042 pbc="F F F"
Lu       0.00000000       0.00000000       0.00000000       0.00000000       0.00000000    -203.36642456
Lu       0.00000000       0.00000000       1.12060606       0.00000000       0.00000000     203.36642456
2
Properties=species:S:1:pos:R:3:forces:R:3 energy=60.445232137117884 pbc="F F F"
Lu       0.00000000       0.00000000       0.00000000       0.00000000       0.00000000    -168.14091492
Lu       0.00000000       0.00000000       1.17939394       0.00000000       0.00000000     168.14091492
2
Properties=species:S:1:pos:R:3:forces:R:3 energy=51.273518798929935 pbc="F F F"
Lu       0.00000000       0.00000000       0.00000000       0.00000000       0.00000000    -146.84359741
Lu       0.00000000       0.00000000       1.23818182       0.00000000       0.00000000     146.84359741
2
Properties=species:S:1:pos:R:3:forces:R:3 energy=43.060080707531824 pbc="F F F"
Lu       0.00000000       0.00000000       0.00000000       0.00000000       0.00000000    -132.01013184
Lu       0.00000000       0.00000000       1.29696970       0.00000000       0.00000000     132.01013184
2
Properties=species:S:1:pos:R:3:forces:R:3 energy=35.86331332469346 pbc="F F F"
Lu       0.00000000       0.00000000       0.00000000       0.00000000       0.00000000    -112.24815369
Lu       0.00000000       0.00000000       1.35575758       0.00000000       0.00000000     112.24815369
2
Properties=species:S:1:pos:R:3:forces:R:3 energy=29.824114515310924 pbc="F F F"
Lu       0.00000000       0.00000000       0.00000000       0.00000000       0.00000000     -94.30796814
Lu       0.00000000       0.00000000       1.41454545       0.00000000       0.00000000      94.30796814
2
Properties=species:S:1:pos:R:3:forces:R:3 energy=24.639469638176806 pbc="F F F"
Lu       0.00000000       0.00000000       0.00000000       0.00000000       0.00000000     -82.78944397
Lu       0.00000000       0.00000000       1.47333333       0.00000000       0.00000000      82.78944397
2
Properties=species:S:1:pos:R:3:forces:R:3 energy=20.081576549728297 pbc="F F F"
Lu       0.00000000       0.00000000       0.00000000       0.00000000       0.00000000     -71.94730377
Lu       0.00000000       0.00000000       1.53212121       0.00000000       0.00000000      71.94730377
2
Properties=species:S:1:pos:R:3:forces:R:3 energy=16.205996480365986 pbc="F F F"
Lu       0.00000000       0.00000000       0.00000000       0.00000000       0.00000000     -59.99055099
Lu       0.00000000       0.00000000       1.59090909       0.00000000       0.00000000      59.99055099
2
Properties=species:S:1:pos:R:3:forces:R:3 energy=12.98431010018771 pbc="F F F"
Lu       0.00000000       0.00000000       0.00000000       0.00000000       0.00000000     -50.11945343
Lu       0.00000000       0.00000000       1.64969697       0.00000000       0.00000000      50.11945343
2
Properties=species:S:1:pos:R:3:forces:R:3 energy=10.263258334590342 pbc="F F F"
Lu       0.00000000       0.00000000       0.00000000       0.00000000       0.00000000     -42.72674561
Lu       0.00000000       0.00000000       1.70848485       0.00000000       0.00000000      42.72674561
2
Properties=species:S:1:pos:R:3:forces:R:3 energy=7.9438624217158615 pbc="F F F"
Lu       0.00000000       0.00000000       0.00000000       0.00000000       0.00000000     -36.24604416
Lu       0.00000000       0.00000000       1.76727273       0.00000000       0.00000000      36.24604416
2
Properties=species:S:1:pos:R:3:forces:R:3 energy=5.994662806640434 pbc="F F F"
Lu       0.00000000       0.00000000       0.00000000       0.00000000       0.00000000     -30.14345551
Lu       0.00000000       0.00000000       1.82606061       0.00000000       0.00000000      30.14345551
2
Properties=species:S:1:pos:R:3:forces:R:3 energy=4.388106228789732 pbc="F F F"
Lu       0.00000000       0.00000000       0.00000000       0.00000000       0.00000000     -24.62645531
Lu       0.00000000       0.00000000       1.88484848       0.00000000       0.00000000      24.62645531
2
Properties=species:S:1:pos:R:3:forces:R:3 energy=3.0854897890733852 pbc="F F F"
Lu       0.00000000       0.00000000       0.00000000       0.00000000       0.00000000     -19.80321312
Lu       0.00000000       0.00000000       1.94363636       0.00000000       0.00000000      19.80321312
2
Properties=species:S:1:pos:R:3:forces:R:3 energy=2.046918339450317 pbc="F F F"
Lu       0.00000000       0.00000000       0.00000000       0.00000000       0.00000000     -15.63539028
Lu       0.00000000       0.00000000       2.00242424       0.00000000       0.00000000      15.63539028
2
Properties=species:S:1:pos:R:3:forces:R:3 energy=1.2345918351433027 pbc="F F F"
Lu       0.00000000       0.00000000       0.00000000       0.00000000       0.00000000     -12.11155128
Lu       0.00000000       0.00000000       2.06121212       0.00000000       0.00000000      12.11155128
2
Properties=species:S:1:pos:R:3:forces:R:3 energy=0.6090366026419128 pbc="F F F"
Lu       0.00000000       0.00000000       0.00000000       0.00000000       0.00000000      -9.29423046
Lu       0.00000000       0.00000000       2.12000000       0.00000000       0.00000000       9.29423046
2
Properties=species:S:1:pos:R:3:forces:R:3 energy=0.12704335127857525 pbc="F F F"
Lu       0.00000000       0.00000000       0.00000000       0.00000000       0.00000000      -7.22620773
Lu       0.00000000       0.00000000       2.17878788       0.00000000       0.00000000       7.22620773
2
Properties=species:S:1:pos:R:3:forces:R:3 energy=-0.2539289141255174 pbc="F F F"
Lu       0.00000000       0.00000000       0.00000000       0.00000000       0.00000000      -5.83541441
Lu       0.00000000       0.00000000       2.23757576       0.00000000       0.00000000       5.83541441
2
Properties=species:S:1:pos:R:3:forces:R:3 energy=-0.5690663529266377 pbc="F F F"
Lu       0.00000000       0.00000000       0.00000000       0.00000000       0.00000000      -4.95454311
Lu       0.00000000       0.00000000       2.29636364       0.00000000       0.00000000       4.95454311
2
Properties=species:S:1:pos:R:3:forces:R:3 energy=-0.8426620142686886 pbc="F F F"
Lu       0.00000000       0.00000000       0.00000000       0.00000000       0.00000000      -4.39098263
Lu       0.00000000       0.00000000       2.35515152       0.00000000       0.00000000       4.39098263
2
Properties=species:S:1:pos:R:3:forces:R:3 energy=-1.0882283959951171 pbc="F F F"
Lu       0.00000000       0.00000000       0.00000000       0.00000000       0.00000000      -3.97668672
Lu       0.00000000       0.00000000       2.41393939       0.00000000       0.00000000       3.97668672
2
Properties=species:S:1:pos:R:3:forces:R:3 energy=-1.3108573314597407 pbc="F F F"
Lu       0.00000000       0.00000000       0.00000000       0.00000000       0.00000000      -3.59686923
Lu       0.00000000       0.00000000       2.47272727       0.00000000       0.00000000       3.59686923
2
Properties=species:S:1:pos:R:3:forces:R:3 energy=-1.5107441521629585 pbc="F F F"
Lu       0.00000000       0.00000000       0.00000000       0.00000000       0.00000000      -3.19877481
Lu       0.00000000       0.00000000       2.53151515       0.00000000       0.00000000       3.19877481
2
Properties=species:S:1:pos:R:3:forces:R:3 energy=-1.6864655722072937 pbc="F F F"
Lu       0.00000000       0.00000000       0.00000000       0.00000000       0.00000000      -2.77636528
Lu       0.00000000       0.00000000       2.59030303       0.00000000       0.00000000       2.77636528
2
Properties=species:S:1:pos:R:3:forces:R:3 energy=-1.8369878171291258 pbc="F F F"
Lu       0.00000000       0.00000000       0.00000000       0.00000000       0.00000000      -2.34438777
Lu       0.00000000       0.00000000       2.64909091       0.00000000       0.00000000       2.34438777
2
Properties=species:S:1:pos:R:3:forces:R:3 energy=-1.96225984216967 pbc="F F F"
Lu       0.00000000       0.00000000       0.00000000       0.00000000       0.00000000      -1.91990185
Lu       0.00000000       0.00000000       2.70787879       0.00000000       0.00000000       1.91990185
2
Properties=species:S:1:pos:R:3:forces:R:3 energy=-2.0631169604838653 pbc="F F F"
Lu       0.00000000       0.00000000       0.00000000       0.00000000       0.00000000      -1.51538551
Lu       0.00000000       0.00000000       2.76666667       0.00000000       0.00000000       1.51538551
2
Properties=species:S:1:pos:R:3:forces:R:3 energy=-2.1409735215919117 pbc="F F F"
Lu       0.00000000       0.00000000       0.00000000       0.00000000       0.00000000      -1.13838780
Lu       0.00000000       0.00000000       2.82545455       0.00000000       0.00000000       1.13838780
2
Properties=species:S:1:pos:R:3:forces:R:3 energy=-2.197580921689177 pbc="F F F"
Lu       0.00000000       0.00000000       0.00000000       0.00000000       0.00000000      -0.79284596
Lu       0.00000000       0.00000000       2.88424242       0.00000000       0.00000000       0.79284596
2
Properties=species:S:1:pos:R:3:forces:R:3 energy=-2.234841758699687 pbc="F F F"
Lu       0.00000000       0.00000000       0.00000000       0.00000000       0.00000000      -0.48034567
Lu       0.00000000       0.00000000       2.94303030       0.00000000       0.00000000       0.48034567
2
Properties=species:S:1:pos:R:3:forces:R:3 energy=-2.254712580502529 pbc="F F F"
Lu       0.00000000       0.00000000       0.00000000       0.00000000       0.00000000      -0.20125203
Lu       0.00000000       0.00000000       3.00181818       0.00000000       0.00000000       0.20125203
2
Properties=species:S:1:pos:R:3:forces:R:3 energy=-2.259160085605384 pbc="F F F"
Lu       0.00000000       0.00000000       0.00000000       0.00000000       0.00000000       0.04437727
Lu       0.00000000       0.00000000       3.06060606       0.00000000       0.00000000      -0.04437727
2
Properties=species:S:1:pos:R:3:forces:R:3 energy=-2.2501538462101687 pbc="F F F"
Lu       0.00000000       0.00000000       0.00000000       0.00000000       0.00000000       0.25639808
Lu       0.00000000       0.00000000       3.11939394       0.00000000       0.00000000      -0.25639808
2
Properties=species:S:1:pos:R:3:forces:R:3 energy=-2.2296711859544094 pbc="F F F"
Lu       0.00000000       0.00000000       0.00000000       0.00000000       0.00000000       0.43485692
Lu       0.00000000       0.00000000       3.17818182       0.00000000       0.00000000      -0.43485692
2
Properties=species:S:1:pos:R:3:forces:R:3 energy=-2.1996663042093645 pbc="F F F"
Lu       0.00000000       0.00000000       0.00000000       0.00000000       0.00000000       0.58063835
Lu       0.00000000       0.00000000       3.23696970       0.00000000       0.00000000      -0.58063835
2
Properties=species:S:1:pos:R:3:forces:R:3 energy=-2.1619987434985797 pbc="F F F"
Lu       0.00000000       0.00000000       0.00000000       0.00000000       0.00000000       0.69605857
Lu       0.00000000       0.00000000       3.29575758       0.00000000       0.00000000      -0.69605857
2
Properties=species:S:1:pos:R:3:forces:R:3 energy=-2.118348074332505 pbc="F F F"
Lu       0.00000000       0.00000000       0.00000000       0.00000000       0.00000000       0.78488916
Lu       0.00000000       0.00000000       3.35454545       0.00000000       0.00000000      -0.78488916
2
Properties=species:S:1:pos:R:3:forces:R:3 energy=-2.0701451994753763 pbc="F F F"
Lu       0.00000000       0.00000000       0.00000000       0.00000000       0.00000000       0.85176808
Lu       0.00000000       0.00000000       3.41333333       0.00000000       0.00000000      -0.85176808
2
Properties=species:S:1:pos:R:3:forces:R:3 energy=-2.0185411764683137 pbc="F F F"
Lu       0.00000000       0.00000000       0.00000000       0.00000000       0.00000000       0.90126395
Lu       0.00000000       0.00000000       3.47212121       0.00000000       0.00000000      -0.90126395
2
Properties=species:S:1:pos:R:3:forces:R:3 energy=-1.9644468537980893 pbc="F F F"
Lu       0.00000000       0.00000000       0.00000000       0.00000000       0.00000000       0.93702310
Lu       0.00000000       0.00000000       3.53090909       0.00000000       0.00000000      -0.93702310
2
Properties=species:S:1:pos:R:3:forces:R:3 energy=-1.908593024407051 pbc="F F F"
Lu       0.00000000       0.00000000       0.00000000       0.00000000       0.00000000       0.96134931
Lu       0.00000000       0.00000000       3.58969697       0.00000000       0.00000000      -0.96134931
2
Properties=species:S:1:pos:R:3:forces:R:3 energy=-1.8516178556195655 pbc="F F F"
Lu       0.00000000       0.00000000       0.00000000       0.00000000       0.00000000       0.97529620
Lu       0.00000000       0.00000000       3.64848485       0.00000000       0.00000000      -0.97529620
2
Properties=species:S:1:pos:R:3:forces:R:3 energy=-1.7941206271890289 pbc="F F F"
Lu       0.00000000       0.00000000       0.00000000       0.00000000       0.00000000       0.97913808
Lu       0.00000000       0.00000000       3.70727273       0.00000000       0.00000000      -0.97913808
2
Properties=species:S:1:pos:R:3:forces:R:3 energy=-1.7366899838994903 pbc="F F F"
Lu       0.00000000       0.00000000       0.00000000       0.00000000       0.00000000       0.97300112
Lu       0.00000000       0.00000000       3.76606061       0.00000000       0.00000000      -0.97300112
2
Properties=species:S:1:pos:R:3:forces:R:3 energy=-1.6799048028768517 pbc="F F F"
Lu       0.00000000       0.00000000       0.00000000       0.00000000       0.00000000       0.95740151
Lu       0.00000000       0.00000000       3.82484848       0.00000000       0.00000000      -0.95740151
2
Properties=species:S:1:pos:R:3:forces:R:3 energy=-1.624285586709001 pbc="F F F"
Lu       0.00000000       0.00000000       0.00000000       0.00000000       0.00000000       0.93353027
Lu       0.00000000       0.00000000       3.88363636       0.00000000       0.00000000      -0.93353027
2
Properties=species:S:1:pos:R:3:forces:R:3 energy=-1.5702700077024736 pbc="F F F"
Lu       0.00000000       0.00000000       0.00000000       0.00000000       0.00000000       0.90323389
Lu       0.00000000       0.00000000       3.94242424       0.00000000       0.00000000      -0.90323389
2
Properties=species:S:1:pos:R:3:forces:R:3 energy=-1.5181700052095022 pbc="F F F"
Lu       0.00000000       0.00000000       0.00000000       0.00000000       0.00000000       0.86876792
Lu       0.00000000       0.00000000       4.00121212       0.00000000       0.00000000      -0.86876792
2
Properties=species:S:1:pos:R:3:forces:R:3 energy=-1.4681608817298208 pbc="F F F"
Lu       0.00000000       0.00000000       0.00000000       0.00000000       0.00000000       0.83242148
Lu       0.00000000       0.00000000       4.06000000       0.00000000       0.00000000      -0.83242148
2
Properties=species:S:1:pos:R:3:forces:R:3 energy=-1.420294441275094 pbc="F F F"
Lu       0.00000000       0.00000000       0.00000000       0.00000000       0.00000000       0.79620987
Lu       0.00000000       0.00000000       4.11878788       0.00000000       0.00000000      -0.79620987
2
Properties=species:S:1:pos:R:3:forces:R:3 energy=-1.374513664782818 pbc="F F F"
Lu       0.00000000       0.00000000       0.00000000       0.00000000       0.00000000       0.76161951
Lu       0.00000000       0.00000000       4.17757576       0.00000000       0.00000000      -0.76161951
2
Properties=species:S:1:pos:R:3:forces:R:3 energy=-1.3306958587114481 pbc="F F F"
Lu       0.00000000       0.00000000       0.00000000       0.00000000       0.00000000       0.72953910
Lu       0.00000000       0.00000000       4.23636364       0.00000000       0.00000000      -0.72953910
2
Properties=species:S:1:pos:R:3:forces:R:3 energy=-1.2886812652698894 pbc="F F F"
Lu       0.00000000       0.00000000       0.00000000       0.00000000       0.00000000       0.70027471
Lu       0.00000000       0.00000000       4.29515152       0.00000000       0.00000000      -0.70027471
2
Properties=species:S:1:pos:R:3:forces:R:3 energy=-1.2483088822251607 pbc="F F F"
Lu       0.00000000       0.00000000       0.00000000       0.00000000       0.00000000       0.67367703
Lu       0.00000000       0.00000000       4.35393939       0.00000000       0.00000000      -0.67367703
2
Properties=species:S:1:pos:R:3:forces:R:3 energy=-1.2094312385186554 pbc="F F F"
Lu       0.00000000       0.00000000       0.00000000       0.00000000       0.00000000       0.64926624
Lu       0.00000000       0.00000000       4.41272727       0.00000000       0.00000000      -0.64926624
2
Properties=species:S:1:pos:R:3:forces:R:3 energy=-1.171939793348412 pbc="F F F"
Lu       0.00000000       0.00000000       0.00000000       0.00000000       0.00000000       0.62640202
Lu       0.00000000       0.00000000       4.47151515       0.00000000       0.00000000      -0.62640202
2
Properties=species:S:1:pos:R:3:forces:R:3 energy=-1.135764013005066 pbc="F F F"
Lu       0.00000000       0.00000000       0.00000000       0.00000000       0.00000000       0.60440034
Lu       0.00000000       0.00000000       4.53030303       0.00000000       0.00000000      -0.60440034
2
Properties=species:S:1:pos:R:3:forces:R:3 energy=-1.100873147507858 pbc="F F F"
Lu       0.00000000       0.00000000       0.00000000       0.00000000       0.00000000       0.58261138
Lu       0.00000000       0.00000000       4.58909091       0.00000000       0.00000000      -0.58261138
2
Properties=species:S:1:pos:R:3:forces:R:3 energy=-1.067270608761091 pbc="F F F"
Lu       0.00000000       0.00000000       0.00000000       0.00000000       0.00000000       0.56049097
Lu       0.00000000       0.00000000       4.64787879       0.00000000       0.00000000      -0.56049097
2
Properties=species:S:1:pos:R:3:forces:R:3 energy=-1.0349878655377873 pbc="F F F"
Lu       0.00000000       0.00000000       0.00000000       0.00000000       0.00000000       0.53759897
Lu       0.00000000       0.00000000       4.70666667       0.00000000       0.00000000      -0.53759897
2
Properties=species:S:1:pos:R:3:forces:R:3 energy=-1.004083383267369 pbc="F F F"
Lu       0.00000000       0.00000000       0.00000000       0.00000000       0.00000000       0.51362330
Lu       0.00000000       0.00000000       4.76545455       0.00000000       0.00000000      -0.51362330
2
Properties=species:S:1:pos:R:3:forces:R:3 energy=-0.9746212602302539 pbc="F F F"
Lu       0.00000000       0.00000000       0.00000000       0.00000000       0.00000000       0.48841459
Lu       0.00000000       0.00000000       4.82424242       0.00000000       0.00000000      -0.48841459
2
Properties=species:S:1:pos:R:3:forces:R:3 energy=-0.9466817585730455 pbc="F F F"
Lu       0.00000000       0.00000000       0.00000000       0.00000000       0.00000000       0.46203613
Lu       0.00000000       0.00000000       4.88303030       0.00000000       0.00000000      -0.46203613
2
Properties=species:S:1:pos:R:3:forces:R:3 energy=-0.9203149180556588 pbc="F F F"
Lu       0.00000000       0.00000000       0.00000000       0.00000000       0.00000000       0.43482262
Lu       0.00000000       0.00000000       4.94181818       0.00000000       0.00000000      -0.43482262
2
Properties=species:S:1:pos:R:3:forces:R:3 energy=-0.8955589332888427 pbc="F F F"
Lu       0.00000000       0.00000000       0.00000000       0.00000000       0.00000000       0.40745148
Lu       0.00000000       0.00000000       5.00060606       0.00000000       0.00000000      -0.40745148
2
Properties=species:S:1:pos:R:3:forces:R:3 energy=-0.8723923064595612 pbc="F F F"
Lu       0.00000000       0.00000000       0.00000000       0.00000000       0.00000000       0.38084912
Lu       0.00000000       0.00000000       5.05939394       0.00000000       0.00000000      -0.38084912
2
Properties=species:S:1:pos:R:3:forces:R:3 energy=-0.8507456504665523 pbc="F F F"
Lu       0.00000000       0.00000000       0.00000000       0.00000000       0.00000000       0.35599482
Lu       0.00000000       0.00000000       5.11818182       0.00000000       0.00000000      -0.35599482
2
Properties=species:S:1:pos:R:3:forces:R:3 energy=-0.8304906493897557 pbc="F F F"
Lu       0.00000000       0.00000000       0.00000000       0.00000000       0.00000000       0.33348724
Lu       0.00000000       0.00000000       5.17696970       0.00000000       0.00000000      -0.33348724
2
Properties=species:S:1:pos:R:3:forces:R:3 energy=-0.8114967419235192 pbc="F F F"
Lu       0.00000000       0.00000000       0.00000000       0.00000000       0.00000000       0.31294197
Lu       0.00000000       0.00000000       5.23575758       0.00000000       0.00000000      -0.31294197
2
Properties=species:S:1:pos:R:3:forces:R:3 energy=-0.7936948338221121 pbc="F F F"
Lu       0.00000000       0.00000000       0.00000000       0.00000000       0.00000000       0.29245192
Lu       0.00000000       0.00000000       5.29454545       0.00000000       0.00000000      -0.29245192
2
Properties=species:S:1:pos:R:3:forces:R:3 energy=-0.7771605471655206 pbc="F F F"
Lu       0.00000000       0.00000000       0.00000000       0.00000000       0.00000000       0.26954782
Lu       0.00000000       0.00000000       5.35333333       0.00000000       0.00000000      -0.26954782
2
Properties=species:S:1:pos:R:3:forces:R:3 energy=-0.7620224217028966 pbc="F F F"
Lu       0.00000000       0.00000000       0.00000000       0.00000000       0.00000000       0.24598788
Lu       0.00000000       0.00000000       5.41212121       0.00000000       0.00000000      -0.24598788
2
Properties=species:S:1:pos:R:3:forces:R:3 energy=-0.7480835903329281 pbc="F F F"
Lu       0.00000000       0.00000000       0.00000000       0.00000000       0.00000000       0.22997943
Lu       0.00000000       0.00000000       5.47090909       0.00000000       0.00000000      -0.22997943
2
Properties=species:S:1:pos:R:3:forces:R:3 energy=-0.7348507944785323 pbc="F F F"
Lu       0.00000000       0.00000000       0.00000000       0.00000000       0.00000000       0.21984589
Lu       0.00000000       0.00000000       5.52969697       0.00000000       0.00000000      -0.21984589
2
Properties=species:S:1:pos:R:3:forces:R:3 energy=-0.7224365213923332 pbc="F F F"
Lu       0.00000000       0.00000000       0.00000000       0.00000000       0.00000000       0.20023634
Lu       0.00000000       0.00000000       5.58848485       0.00000000       0.00000000      -0.20023634
2
Properties=species:S:1:pos:R:3:forces:R:3 energy=-0.7114927954836301 pbc="F F F"
Lu       0.00000000       0.00000000       0.00000000       0.00000000       0.00000000       0.17215861
Lu       0.00000000       0.00000000       5.64727273       0.00000000       0.00000000      -0.17215861
2
Properties=species:S:1:pos:R:3:forces:R:3 energy=-0.7019802511209183 pbc="F F F"
Lu       0.00000000       0.00000000       0.00000000       0.00000000       0.00000000       0.15512136
Lu       0.00000000       0.00000000       5.70606061       0.00000000       0.00000000      -0.15512136
2
Properties=species:S:1:pos:R:3:forces:R:3 energy=-0.6927470511591292 pbc="F F F"
Lu       0.00000000       0.00000000       0.00000000       0.00000000       0.00000000       0.16094565
Lu       0.00000000       0.00000000       5.76484848       0.00000000       0.00000000      -0.16094565
2
Properties=species:S:1:pos:R:3:forces:R:3 energy=-0.6832765262186892 pbc="F F F"
Lu       0.00000000       0.00000000       0.00000000       0.00000000       0.00000000       0.15514536
Lu       0.00000000       0.00000000       5.82363636       0.00000000       0.00000000      -0.15514536
2
Properties=species:S:1:pos:R:3:forces:R:3 energy=-0.6754284109250119 pbc="F F F"
Lu       0.00000000       0.00000000       0.00000000       0.00000000       0.00000000       0.10675143
Lu       0.00000000       0.00000000       5.88242424       0.00000000       0.00000000      -0.10675143
2
Properties=species:S:1:pos:R:3:forces:R:3 energy=-0.6709352179129495 pbc="F F F"
Lu       0.00000000       0.00000000       0.00000000       0.00000000       0.00000000       0.04814461
Lu       0.00000000       0.00000000       5.94121212       0.00000000       0.00000000      -0.04814461
2
Properties=species:S:1:pos:R:3:forces:R:3 energy=-0.6690739320982 pbc="F F F"
Lu       0.00000000       0.00000000       0.00000000       0.00000000       0.00000000       0.02315903
Lu       0.00000000       0.00000000       6.00000000       0.00000000       0.00000000      -0.02315903
