2
Properties=species:S:1:pos:R:3:forces:R:3 energy=5731.966530041125 pbc="F F F"
Pa       0.00000000       0.00000000       0.00000000       0.00000000       0.00000000 -350683.50000000
Pa       0.00000000       0.00000000       0.18000000       0.00000000       0.00000000  350683.50000000
2
Properties=species:S:1:pos:R:3:forces:R:3 energy=-6352.535911365125 pbc="F F F"
Pa       0.00000000       0.00000000       0.00000000       0.00000000       0.00000000 -111427.39843750
Pa       0.00000000       0.00000000       0.23878788       0.00000000       0.00000000  111427.39843750
2
Properties=species:S:1:pos:R:3:forces:R:3 energy=-10400.589622302625 pbc="F F F"
Pa       0.00000000       0.00000000       0.00000000       0.00000000       0.00000000  -38751.11328125
Pa       0.00000000       0.00000000       0.29757576       0.00000000       0.00000000   38751.11328125
2
Properties=species:S:1:pos:R:3:forces:R:3 energy=-11729.163841039954 pbc="F F F"
Pa       0.00000000       0.00000000       0.00000000       0.00000000       0.00000000  -10175.52539062
Pa       0.00000000       0.00000000       0.35636364       0.00000000       0.00000000   10175.52539062
2
Properties=species:S:1:pos:R:3:forces:R:3 energy=-11851.689231664954 pbc="F F F"
Pa       0.00000000       0.00000000       0.00000000       0.00000000       0.00000000    4820.85449219
Pa       0.00000000       0.00000000       0.41515152       0.00000000       0.00000000   -4820.85449219
2
Properties=species:S:1:pos:R:3:forces:R:3 energy=-11244.517356652283 pbc="F F F"
Pa       0.00000000       0.00000000       0.00000000       0.00000000       0.00000000   15439.60253906
Pa       0.00000000       0.00000000       0.47393939       0.00000000       0.00000000  -15439.60253906
2
Properties=species:S:1:pos:R:3:forces:R:3 energy=-10070.422630077112 pbc="F F F"
Pa       0.00000000       0.00000000       0.00000000       0.00000000       0.00000000   24244.50781250
Pa       0.00000000       0.00000000       0.53272727       0.00000000       0.00000000  -24244.50781250
2
Properties=species:S:1:pos:R:3:forces:R:3 energy=-8431.082786301768 pbc="F F F"
Pa       0.00000000       0.00000000       0.00000000       0.00000000       0.00000000   31107.25976562
Pa       0.00000000       0.00000000       0.59151515       0.00000000       0.00000000  -31107.25976562
2
Properties=species:S:1:pos:R:3:forces:R:3 energy=-6476.350852670004 pbc="F F F"
Pa       0.00000000       0.00000000       0.00000000       0.00000000       0.00000000   34727.39062500
Pa       0.00000000       0.00000000       0.65030303       0.00000000       0.00000000  -34727.39062500
2
Properties=species:S:1:pos:R:3:forces:R:3 energy=-4282.688254950398 pbc="F F F"
Pa       0.00000000       0.00000000       0.00000000       0.00000000       0.00000000   38089.04296875
Pa       0.00000000       0.00000000       0.70909091       0.00000000       0.00000000  -38089.04296875
2
Properties=species:S:1:pos:R:3:forces:R:3 energy=-2272.4328837552775 pbc="F F F"
Pa       0.00000000       0.00000000       0.00000000       0.00000000       0.00000000   29541.15234375
Pa       0.00000000       0.00000000       0.76787879       0.00000000       0.00000000  -29541.15234375
2
Properties=species:S:1:pos:R:3:forces:R:3 energy=-854.1065896705809 pbc="F F F"
Pa       0.00000000       0.00000000       0.00000000       0.00000000       0.00000000   17572.93945312
Pa       0.00000000       0.00000000       0.82666667       0.00000000       0.00000000  -17572.93945312
2
Properties=species:S:1:pos:R:3:forces:R:3 energy=-111.4435416646416 pbc="F F F"
Pa       0.00000000       0.00000000       0.00000000       0.00000000       0.00000000    8260.29882812
Pa       0.00000000       0.00000000       0.88545455       0.00000000       0.00000000   -8260.29882812
2
Properties=species:S:1:pos:R:3:forces:R:3 energy=182.459542402725 pbc="F F F"
Pa       0.00000000       0.00000000       0.00000000       0.00000000       0.00000000    2321.82226562
Pa       0.00000000       0.00000000       0.94424242       0.00000000       0.00000000   -2321.82226562
2
Properties=species:S:1:pos:R:3:forces:R:3 energy=221.29934078183905 pbc="F F F"
Pa       0.00000000       0.00000000       0.00000000       0.00000000       0.00000000    -279.73175049
Pa       0.00000000       0.00000000       1.00303030       0.00000000       0.00000000     279.73175049
2
Properties=species:S:1:pos:R:3:forces:R:3 energy=185.57218372125973 pbc="F F F"
Pa       0.00000000       0.00000000       0.00000000       0.00000000       0.00000000    -611.46453857
Pa       0.00000000       0.00000000       1.06181818       0.00000000       0.00000000     611.46453857
2
Properties=species:S:1:pos:R:3:forces:R:3 energy=158.60201535079779 pbc="F F F"
Pa       0.00000000       0.00000000       0.00000000       0.00000000       0.00000000    -324.06332397
Pa       0.00000000       0.00000000       1.12060606       0.00000000       0.00000000     324.06332397
2
Properties=species:S:1:pos:R:3:forces:R:3 energy=139.29459745255966 pbc="F F F"
Pa       0.00000000       0.00000000       0.00000000       0.00000000       0.00000000    -360.89572144
Pa       0.00000000       0.00000000       1.17939394       0.00000000       0.00000000     360.89572144
2
Properties=species:S:1:pos:R:3:forces:R:3 energy=118.67411525789458 pbc="F F F"
Pa       0.00000000       0.00000000       0.00000000       0.00000000       0.00000000    -338.85641479
Pa       0.00000000       0.00000000       1.23818182       0.00000000       0.00000000     338.85641479
2
Properties=species:S:1:pos:R:3:forces:R:3 energy=99.52893702991406 pbc="F F F"
Pa       0.00000000       0.00000000       0.00000000       0.00000000       0.00000000    -312.76315308
Pa       0.00000000       0.00000000       1.29696970       0.00000000       0.00000000     312.76315308
2
Properties=species:S:1:pos:R:3:forces:R:3 energy=81.8752219149343 pbc="F F F"
Pa       0.00000000       0.00000000       0.00000000       0.00000000       0.00000000    -287.35507202
Pa       0.00000000       0.00000000       1.35575758       0.00000000       0.00000000     287.35507202
2
Properties=species:S:1:pos:R:3:forces:R:3 energy=65.83428500409573 pbc="F F F"
Pa       0.00000000       0.00000000       0.00000000       0.00000000       0.00000000    -257.68246460
Pa       0.00000000       0.00000000       1.41454545       0.00000000       0.00000000     257.68246460
2
Properties=species:S:1:pos:R:3:forces:R:3 energy=51.61726607772375 pbc="F F F"
Pa       0.00000000       0.00000000       0.00000000       0.00000000       0.00000000    -226.00199890
Pa       0.00000000       0.00000000       1.47333333       0.00000000       0.00000000     226.00199890
2
Properties=species:S:1:pos:R:3:forces:R:3 energy=39.23770358511306 pbc="F F F"
Pa       0.00000000       0.00000000       0.00000000       0.00000000       0.00000000    -195.43135071
Pa       0.00000000       0.00000000       1.53212121       0.00000000       0.00000000     195.43135071
2
Properties=species:S:1:pos:R:3:forces:R:3 energy=28.61012936074024 pbc="F F F"
Pa       0.00000000       0.00000000       0.00000000       0.00000000       0.00000000    -166.34710693
Pa       0.00000000       0.00000000       1.59090909       0.00000000       0.00000000     166.34710693
2
Properties=species:S:1:pos:R:3:forces:R:3 energy=19.655380984347065 pbc="F F F"
Pa       0.00000000       0.00000000       0.00000000       0.00000000       0.00000000    -138.49238586
Pa       0.00000000       0.00000000       1.64969697       0.00000000       0.00000000     138.49238586
2
Properties=species:S:1:pos:R:3:forces:R:3 energy=12.300613136333341 pbc="F F F"
Pa       0.00000000       0.00000000       0.00000000       0.00000000       0.00000000    -112.02117157
Pa       0.00000000       0.00000000       1.70848485       0.00000000       0.00000000     112.02117157
2
Properties=species:S:1:pos:R:3:forces:R:3 energy=6.434787811431875 pbc="F F F"
Pa       0.00000000       0.00000000       0.00000000       0.00000000       0.00000000     -88.06715393
Pa       0.00000000       0.00000000       1.76727273       0.00000000       0.00000000      88.06715393
2
Properties=species:S:1:pos:R:3:forces:R:3 energy=1.8776030692863557 pbc="F F F"
Pa       0.00000000       0.00000000       0.00000000       0.00000000       0.00000000     -67.57288361
Pa       0.00000000       0.00000000       1.82606061       0.00000000       0.00000000      67.57288361
2
Properties=species:S:1:pos:R:3:forces:R:3 energy=-1.580931363423828 pbc="F F F"
Pa       0.00000000       0.00000000       0.00000000       0.00000000       0.00000000     -50.69115829
Pa       0.00000000       0.00000000       1.88484848       0.00000000       0.00000000      50.69115829
2
Properties=species:S:1:pos:R:3:forces:R:3 energy=-4.153107866462652 pbc="F F F"
Pa       0.00000000       0.00000000       0.00000000       0.00000000       0.00000000     -37.40655518
Pa       0.00000000       0.00000000       1.94363636       0.00000000       0.00000000      37.40655518
2
Properties=species:S:1:pos:R:3:forces:R:3 energy=-6.044333780538087 pbc="F F F"
Pa       0.00000000       0.00000000       0.00000000       0.00000000       0.00000000     -27.43629074
Pa       0.00000000       0.00000000       2.00242424       0.00000000       0.00000000      27.43629074
2
Properties=species:S:1:pos:R:3:forces:R:3 energy=-7.429919839416062 pbc="F F F"
Pa       0.00000000       0.00000000       0.00000000       0.00000000       0.00000000     -20.06604004
Pa       0.00000000       0.00000000       2.06121212       0.00000000       0.00000000      20.06604004
2
Properties=species:S:1:pos:R:3:forces:R:3 energy=-8.439059483778184 pbc="F F F"
Pa       0.00000000       0.00000000       0.00000000       0.00000000       0.00000000     -14.51230431
Pa       0.00000000       0.00000000       2.12000000       0.00000000       0.00000000      14.51230431
2
Properties=species:S:1:pos:R:3:forces:R:3 energy=-9.160051569916506 pbc="F F F"
Pa       0.00000000       0.00000000       0.00000000       0.00000000       0.00000000     -10.18214989
Pa       0.00000000       0.00000000       2.17878788       0.00000000       0.00000000      10.18214989
2
Properties=species:S:1:pos:R:3:forces:R:3 energy=-9.652601375917573 pbc="F F F"
Pa       0.00000000       0.00000000       0.00000000       0.00000000       0.00000000      -6.69279766
Pa       0.00000000       0.00000000       2.23757576       0.00000000       0.00000000       6.69279766
2
Properties=species:S:1:pos:R:3:forces:R:3 energy=-9.959142133638334 pbc="F F F"
Pa       0.00000000       0.00000000       0.00000000       0.00000000       0.00000000      -3.82803369
Pa       0.00000000       0.00000000       2.29636364       0.00000000       0.00000000       3.82803369
2
Properties=species:S:1:pos:R:3:forces:R:3 energy=-10.112527378413576 pbc="F F F"
Pa       0.00000000       0.00000000       0.00000000       0.00000000       0.00000000      -1.46718097
Pa       0.00000000       0.00000000       2.35515152       0.00000000       0.00000000       1.46718097
2
Properties=species:S:1:pos:R:3:forces:R:3 energy=-10.14017461327555 pbc="F F F"
Pa       0.00000000       0.00000000       0.00000000       0.00000000       0.00000000       0.45678127
Pa       0.00000000       0.00000000       2.41393939       0.00000000       0.00000000      -0.45678127
2
Properties=species:S:1:pos:R:3:forces:R:3 energy=-10.067031375462166 pbc="F F F"
Pa       0.00000000       0.00000000       0.00000000       0.00000000       0.00000000       1.96035147
Pa       0.00000000       0.00000000       2.47272727       0.00000000       0.00000000      -1.96035147
2
Properties=species:S:1:pos:R:3:forces:R:3 energy=-9.918313007296208 pbc="F F F"
Pa       0.00000000       0.00000000       0.00000000       0.00000000       0.00000000       3.02424908
Pa       0.00000000       0.00000000       2.53151515       0.00000000       0.00000000      -3.02424908
2
Properties=species:S:1:pos:R:3:forces:R:3 energy=-9.720087372582881 pbc="F F F"
Pa       0.00000000       0.00000000       0.00000000       0.00000000       0.00000000       3.65014911
Pa       0.00000000       0.00000000       2.59030303       0.00000000       0.00000000      -3.65014911
2
Properties=species:S:1:pos:R:3:forces:R:3 energy=-9.49637957741294 pbc="F F F"
Pa       0.00000000       0.00000000       0.00000000       0.00000000       0.00000000       3.90859628
Pa       0.00000000       0.00000000       2.64909091       0.00000000       0.00000000      -3.90859628
2
Properties=species:S:1:pos:R:3:forces:R:3 energy=-9.265387638419718 pbc="F F F"
Pa       0.00000000       0.00000000       0.00000000       0.00000000       0.00000000       3.91893864
Pa       0.00000000       0.00000000       2.70787879       0.00000000       0.00000000      -3.91893864
2
Properties=species:S:1:pos:R:3:forces:R:3 energy=-9.038200871210773 pbc="F F F"
Pa       0.00000000       0.00000000       0.00000000       0.00000000       0.00000000       3.79556131
Pa       0.00000000       0.00000000       2.76666667       0.00000000       0.00000000      -3.79556131
2
Properties=species:S:1:pos:R:3:forces:R:3 energy=-8.820174911334096 pbc="F F F"
Pa       0.00000000       0.00000000       0.00000000       0.00000000       0.00000000       3.61718011
Pa       0.00000000       0.00000000       2.82545455       0.00000000       0.00000000      -3.61718011
2
Properties=species:S:1:pos:R:3:forces:R:3 energy=-8.613140690091972 pbc="F F F"
Pa       0.00000000       0.00000000       0.00000000       0.00000000       0.00000000       3.42615819
Pa       0.00000000       0.00000000       2.88424242       0.00000000       0.00000000      -3.42615819
2
Properties=species:S:1:pos:R:3:forces:R:3 energy=-8.41721988831463 pbc="F F F"
Pa       0.00000000       0.00000000       0.00000000       0.00000000       0.00000000       3.24100900
Pa       0.00000000       0.00000000       2.94303030       0.00000000       0.00000000      -3.24100900
2
Properties=species:S:1:pos:R:3:forces:R:3 energy=-8.231797047270865 pbc="F F F"
Pa       0.00000000       0.00000000       0.00000000       0.00000000       0.00000000       3.07005239
Pa       0.00000000       0.00000000       3.00181818       0.00000000       0.00000000      -3.07005239
2
Properties=species:S:1:pos:R:3:forces:R:3 energy=-8.055849375254772 pbc="F F F"
Pa       0.00000000       0.00000000       0.00000000       0.00000000       0.00000000       2.91984415
Pa       0.00000000       0.00000000       3.06060606       0.00000000       0.00000000      -2.91984415
2
Properties=species:S:1:pos:R:3:forces:R:3 energy=-7.8879733617675845 pbc="F F F"
Pa       0.00000000       0.00000000       0.00000000       0.00000000       0.00000000       2.79612064
Pa       0.00000000       0.00000000       3.11939394       0.00000000       0.00000000      -2.79612064
2
Properties=species:S:1:pos:R:3:forces:R:3 energy=-7.726545273571175 pbc="F F F"
Pa       0.00000000       0.00000000       0.00000000       0.00000000       0.00000000       2.70000362
Pa       0.00000000       0.00000000       3.17818182       0.00000000       0.00000000      -2.70000362
2
Properties=species:S:1:pos:R:3:forces:R:3 energy=-7.570095581227037 pbc="F F F"
Pa       0.00000000       0.00000000       0.00000000       0.00000000       0.00000000       2.62530780
Pa       0.00000000       0.00000000       3.23696970       0.00000000       0.00000000      -2.62530780
2
Properties=species:S:1:pos:R:3:forces:R:3 energy=-7.417682099179771 pbc="F F F"
Pa       0.00000000       0.00000000       0.00000000       0.00000000       0.00000000       2.56045794
Pa       0.00000000       0.00000000       3.29575758       0.00000000       0.00000000      -2.56045794
2
Properties=species:S:1:pos:R:3:forces:R:3 energy=-7.269089367045656 pbc="F F F"
Pa       0.00000000       0.00000000       0.00000000       0.00000000       0.00000000       2.49362707
Pa       0.00000000       0.00000000       3.35454545       0.00000000       0.00000000      -2.49362707
2
Properties=species:S:1:pos:R:3:forces:R:3 energy=-7.124683234950168 pbc="F F F"
Pa       0.00000000       0.00000000       0.00000000       0.00000000       0.00000000       2.41725063
Pa       0.00000000       0.00000000       3.41333333       0.00000000       0.00000000      -2.41725063
2
Properties=species:S:1:pos:R:3:forces:R:3 energy=-6.985105882487863 pbc="F F F"
Pa       0.00000000       0.00000000       0.00000000       0.00000000       0.00000000       2.32941151
Pa       0.00000000       0.00000000       3.47212121       0.00000000       0.00000000      -2.32941151
2
Properties=species:S:1:pos:R:3:forces:R:3 energy=-6.850984854685051 pbc="F F F"
Pa       0.00000000       0.00000000       0.00000000       0.00000000       0.00000000       2.23226619
Pa       0.00000000       0.00000000       3.53090909       0.00000000       0.00000000      -2.23226619
2
Properties=species:S:1:pos:R:3:forces:R:3 energy=-6.722757966064228 pbc="F F F"
Pa       0.00000000       0.00000000       0.00000000       0.00000000       0.00000000       2.12936258
Pa       0.00000000       0.00000000       3.58969697       0.00000000       0.00000000      -2.12936258
2
Properties=species:S:1:pos:R:3:forces:R:3 energy=-6.600675017923386 pbc="F F F"
Pa       0.00000000       0.00000000       0.00000000       0.00000000       0.00000000       2.02368402
Pa       0.00000000       0.00000000       3.64848485       0.00000000       0.00000000      -2.02368402
2
Properties=species:S:1:pos:R:3:forces:R:3 energy=-6.484842334261052 pbc="F F F"
Pa       0.00000000       0.00000000       0.00000000       0.00000000       0.00000000       1.91694868
Pa       0.00000000       0.00000000       3.70727273       0.00000000       0.00000000      -1.91694868
2
Properties=species:S:1:pos:R:3:forces:R:3 energy=-6.3752941352945545 pbc="F F F"
Pa       0.00000000       0.00000000       0.00000000       0.00000000       0.00000000       1.80989766
Pa       0.00000000       0.00000000       3.76606061       0.00000000       0.00000000      -1.80989766
2
Properties=species:S:1:pos:R:3:forces:R:3 energy=-6.272043107541372 pbc="F F F"
Pa       0.00000000       0.00000000       0.00000000       0.00000000       0.00000000       1.70278215
Pa       0.00000000       0.00000000       3.82484848       0.00000000       0.00000000      -1.70278215
2
Properties=species:S:1:pos:R:3:forces:R:3 energy=-6.175087632404237 pbc="F F F"
Pa       0.00000000       0.00000000       0.00000000       0.00000000       0.00000000       1.59568715
Pa       0.00000000       0.00000000       3.88363636       0.00000000       0.00000000      -1.59568715
2
Properties=species:S:1:pos:R:3:forces:R:3 energy=-6.0844256017774345 pbc="F F F"
Pa       0.00000000       0.00000000       0.00000000       0.00000000       0.00000000       1.48875511
Pa       0.00000000       0.00000000       3.94242424       0.00000000       0.00000000      -1.48875511
2
Properties=species:S:1:pos:R:3:forces:R:3 energy=-6.000037741417556 pbc="F F F"
Pa       0.00000000       0.00000000       0.00000000       0.00000000       0.00000000       1.38235211
Pa       0.00000000       0.00000000       4.00121212       0.00000000       0.00000000      -1.38235211
2
Properties=species:S:1:pos:R:3:forces:R:3 energy=-5.921869554487925 pbc="F F F"
Pa       0.00000000       0.00000000       0.00000000       0.00000000       0.00000000       1.27726662
Pa       0.00000000       0.00000000       4.06000000       0.00000000       0.00000000      -1.27726662
2
Properties=species:S:1:pos:R:3:forces:R:3 energy=-5.849811256384094 pbc="F F F"
Pa       0.00000000       0.00000000       0.00000000       0.00000000       0.00000000       1.17479444
Pa       0.00000000       0.00000000       4.11878788       0.00000000       0.00000000      -1.17479444
2
Properties=species:S:1:pos:R:3:forces:R:3 energy=-5.783657853461084 pbc="F F F"
Pa       0.00000000       0.00000000       0.00000000       0.00000000       0.00000000       1.07660508
Pa       0.00000000       0.00000000       4.17757576       0.00000000       0.00000000      -1.07660508
2
Properties=species:S:1:pos:R:3:forces:R:3 energy=-5.72310764916546 pbc="F F F"
Pa       0.00000000       0.00000000       0.00000000       0.00000000       0.00000000       0.98450357
Pa       0.00000000       0.00000000       4.23636364       0.00000000       0.00000000      -0.98450357
2
Properties=species:S:1:pos:R:3:forces:R:3 energy=-5.667752814998129 pbc="F F F"
Pa       0.00000000       0.00000000       0.00000000       0.00000000       0.00000000       0.90006965
Pa       0.00000000       0.00000000       4.29515152       0.00000000       0.00000000      -0.90006965
2
Properties=species:S:1:pos:R:3:forces:R:3 energy=-5.617109946106325 pbc="F F F"
Pa       0.00000000       0.00000000       0.00000000       0.00000000       0.00000000       0.82439297
Pa       0.00000000       0.00000000       4.35393939       0.00000000       0.00000000      -0.82439297
2
Properties=species:S:1:pos:R:3:forces:R:3 energy=-5.570645759805002 pbc="F F F"
Pa       0.00000000       0.00000000       0.00000000       0.00000000       0.00000000       0.75785351
Pa       0.00000000       0.00000000       4.41272727       0.00000000       0.00000000      -0.75785351
2
Properties=species:S:1:pos:R:3:forces:R:3 energy=-5.5278311492381 pbc="F F F"
Pa       0.00000000       0.00000000       0.00000000       0.00000000       0.00000000       0.70012820
Pa       0.00000000       0.00000000       4.47151515       0.00000000       0.00000000      -0.70012820
2
Properties=species:S:1:pos:R:3:forces:R:3 energy=-5.488172622952775 pbc="F F F"
Pa       0.00000000       0.00000000       0.00000000       0.00000000       0.00000000       0.65026927
Pa       0.00000000       0.00000000       4.53030303       0.00000000       0.00000000      -0.65026927
2
Properties=species:S:1:pos:R:3:forces:R:3 energy=-5.451248093028832 pbc="F F F"
Pa       0.00000000       0.00000000       0.00000000       0.00000000       0.00000000       0.60689610
Pa       0.00000000       0.00000000       4.58909091       0.00000000       0.00000000      -0.60689610
2
Properties=species:S:1:pos:R:3:forces:R:3 energy=-5.416720849076137 pbc="F F F"
Pa       0.00000000       0.00000000       0.00000000       0.00000000       0.00000000       0.56844002
Pa       0.00000000       0.00000000       4.64787879       0.00000000       0.00000000      -0.56844002
2
Properties=species:S:1:pos:R:3:forces:R:3 energy=-5.384347048244972 pbc="F F F"
Pa       0.00000000       0.00000000       0.00000000       0.00000000       0.00000000       0.53334492
Pa       0.00000000       0.00000000       4.70666667       0.00000000       0.00000000      -0.53334492
2
Properties=species:S:1:pos:R:3:forces:R:3 energy=-5.353973540116504 pbc="F F F"
Pa       0.00000000       0.00000000       0.00000000       0.00000000       0.00000000       0.50024855
Pa       0.00000000       0.00000000       4.76545455       0.00000000       0.00000000      -0.50024855
2
Properties=species:S:1:pos:R:3:forces:R:3 energy=-5.325510610957043 pbc="F F F"
Pa       0.00000000       0.00000000       0.00000000       0.00000000       0.00000000       0.46811393
Pa       0.00000000       0.00000000       4.82424242       0.00000000       0.00000000      -0.46811393
2
Properties=species:S:1:pos:R:3:forces:R:3 energy=-5.298928257719786 pbc="F F F"
Pa       0.00000000       0.00000000       0.00000000       0.00000000       0.00000000       0.43637082
Pa       0.00000000       0.00000000       4.88303030       0.00000000       0.00000000      -0.43637082
2
Properties=species:S:1:pos:R:3:forces:R:3 energy=-5.274197429368414 pbc="F F F"
Pa       0.00000000       0.00000000       0.00000000       0.00000000       0.00000000       0.40505391
Pa       0.00000000       0.00000000       4.94181818       0.00000000       0.00000000      -0.40505391
2
Properties=species:S:1:pos:R:3:forces:R:3 energy=-5.251278226325371 pbc="F F F"
Pa       0.00000000       0.00000000       0.00000000       0.00000000       0.00000000       0.37500602
Pa       0.00000000       0.00000000       5.00060606       0.00000000       0.00000000      -0.37500602
2
Properties=species:S:1:pos:R:3:forces:R:3 energy=-5.230048362226855 pbc="F F F"
Pa       0.00000000       0.00000000       0.00000000       0.00000000       0.00000000       0.34785280
Pa       0.00000000       0.00000000       5.05939394       0.00000000       0.00000000      -0.34785280
2
Properties=species:S:1:pos:R:3:forces:R:3 energy=-5.210281115371931 pbc="F F F"
Pa       0.00000000       0.00000000       0.00000000       0.00000000       0.00000000       0.32568634
Pa       0.00000000       0.00000000       5.11818182       0.00000000       0.00000000      -0.32568634
2
Properties=species:S:1:pos:R:3:forces:R:3 energy=-5.191625320568829 pbc="F F F"
Pa       0.00000000       0.00000000       0.00000000       0.00000000       0.00000000       0.31015682
Pa       0.00000000       0.00000000       5.17696970       0.00000000       0.00000000      -0.31015682
2
Properties=species:S:1:pos:R:3:forces:R:3 energy=-5.173687429475662 pbc="F F F"
Pa       0.00000000       0.00000000       0.00000000       0.00000000       0.00000000       0.30100334
Pa       0.00000000       0.00000000       5.23575758       0.00000000       0.00000000      -0.30100334
2
Properties=species:S:1:pos:R:3:forces:R:3 energy=-5.15617956620214 pbc="F F F"
Pa       0.00000000       0.00000000       0.00000000       0.00000000       0.00000000       0.29459661
Pa       0.00000000       0.00000000       5.29454545       0.00000000       0.00000000      -0.29459661
2
Properties=species:S:1:pos:R:3:forces:R:3 energy=-5.139114228925588 pbc="F F F"
Pa       0.00000000       0.00000000       0.00000000       0.00000000       0.00000000       0.28505269
Pa       0.00000000       0.00000000       5.35333333       0.00000000       0.00000000      -0.28505269
2
Properties=species:S:1:pos:R:3:forces:R:3 energy=-5.122748767704325 pbc="F F F"
Pa       0.00000000       0.00000000       0.00000000       0.00000000       0.00000000       0.27172360
Pa       0.00000000       0.00000000       5.41212121       0.00000000       0.00000000      -0.27172360
2
Properties=species:S:1:pos:R:3:forces:R:3 energy=-5.1070417204252285 pbc="F F F"
Pa       0.00000000       0.00000000       0.00000000       0.00000000       0.00000000       0.26439232
Pa       0.00000000       0.00000000       5.47090909       0.00000000       0.00000000      -0.26439232
2
Properties=species:S:1:pos:R:3:forces:R:3 energy=-5.09153025298279 pbc="F F F"
Pa       0.00000000       0.00000000       0.00000000       0.00000000       0.00000000       0.26280200
Pa       0.00000000       0.00000000       5.52969697       0.00000000       0.00000000      -0.26280200
2
Properties=species:S:1:pos:R:3:forces:R:3 energy=-5.076392463768565 pbc="F F F"
Pa       0.00000000       0.00000000       0.00000000       0.00000000       0.00000000       0.24934113
Pa       0.00000000       0.00000000       5.58848485       0.00000000       0.00000000      -0.24934113
2
Properties=species:S:1:pos:R:3:forces:R:3 energy=-5.062460595727437 pbc="F F F"
Pa       0.00000000       0.00000000       0.00000000       0.00000000       0.00000000       0.22446540
Pa       0.00000000       0.00000000       5.64727273       0.00000000       0.00000000      -0.22446540
2
Properties=species:S:1:pos:R:3:forces:R:3 energy=-5.049766619668645 pbc="F F F"
Pa       0.00000000       0.00000000       0.00000000       0.00000000       0.00000000       0.21168515
Pa       0.00000000       0.00000000       5.70606061       0.00000000       0.00000000      -0.21168515
2
Properties=species:S:1:pos:R:3:forces:R:3 energy=-5.03697767174177 pbc="F F F"
Pa       0.00000000       0.00000000       0.00000000       0.00000000       0.00000000       0.22518943
Pa       0.00000000       0.00000000       5.76484848       0.00000000       0.00000000      -0.22518943
2
Properties=species:S:1:pos:R:3:forces:R:3 energy=-5.023673288320128 pbc="F F F"
Pa       0.00000000       0.00000000       0.00000000       0.00000000       0.00000000       0.21857361
Pa       0.00000000       0.00000000       5.82363636       0.00000000       0.00000000      -0.21857361
2
Properties=species:S:1:pos:R:3:forces:R:3 energy=-5.0125926191501495 pbc="F F F"
Pa       0.00000000       0.00000000       0.00000000       0.00000000       0.00000000       0.15113154
Pa       0.00000000       0.00000000       5.88242424       0.00000000       0.00000000      -0.15113154
2
Properties=species:S:1:pos:R:3:forces:R:3 energy=-5.006209426421241 pbc="F F F"
Pa       0.00000000       0.00000000       0.00000000       0.00000000       0.00000000       0.06891669
Pa       0.00000000       0.00000000       5.94121212       0.00000000       0.00000000      -0.06891669
2
Properties=species:S:1:pos:R:3:forces:R:3 energy=-5.003518460576929 pbc="F F F"
Pa       0.00000000       0.00000000       0.00000000       0.00000000       0.00000000       0.03397926
Pa       0.00000000       0.00000000       6.00000000       0.00000000       0.00000000      -0.03397926
