2
Properties=species:S:1:pos:R:3:forces:R:3 energy=18021.54251019681 pbc="F F F"
Pb       0.00000000       0.00000000       0.00000000       0.00000000       0.00000000 -301895.09375000
Pb       0.00000000       0.00000000       0.18000000       0.00000000       0.00000000  301895.09375000
2
Properties=species:S:1:pos:R:3:forces:R:3 energy=7520.7856742593085 pbc="F F F"
Pb       0.00000000       0.00000000       0.00000000       0.00000000       0.00000000  -98730.09375000
Pb       0.00000000       0.00000000       0.23878788       0.00000000       0.00000000   98730.09375000
2
Properties=species:S:1:pos:R:3:forces:R:3 energy=3814.492461368684 pbc="F F F"
Pb       0.00000000       0.00000000       0.00000000       0.00000000       0.00000000  -38201.64453125
Pb       0.00000000       0.00000000       0.29757576       0.00000000       0.00000000   38201.64453125
2
Properties=species:S:1:pos:R:3:forces:R:3 energy=2300.792021915559 pbc="F F F"
Pb       0.00000000       0.00000000       0.00000000       0.00000000       0.00000000  -16730.29492188
Pb       0.00000000       0.00000000       0.35636364       0.00000000       0.00000000   16730.29492188
2
Properties=species:S:1:pos:R:3:forces:R:3 energy=1599.6241752390392 pbc="F F F"
Pb       0.00000000       0.00000000       0.00000000       0.00000000       0.00000000   -8379.15429688
Pb       0.00000000       0.00000000       0.41515152       0.00000000       0.00000000    8379.15429688
2
Properties=species:S:1:pos:R:3:forces:R:3 energy=1221.4963676281873 pbc="F F F"
Pb       0.00000000       0.00000000       0.00000000       0.00000000       0.00000000   -4976.12646484
Pb       0.00000000       0.00000000       0.47393939       0.00000000       0.00000000    4976.12646484
2
Properties=species:S:1:pos:R:3:forces:R:3 energy=977.8005668596087 pbc="F F F"
Pb       0.00000000       0.00000000       0.00000000       0.00000000       0.00000000   -3500.99780273
Pb       0.00000000       0.00000000       0.53272727       0.00000000       0.00000000    3500.99780273
2
Properties=species:S:1:pos:R:3:forces:R:3 energy=796.589202129354 pbc="F F F"
Pb       0.00000000       0.00000000       0.00000000       0.00000000       0.00000000   -2727.47045898
Pb       0.00000000       0.00000000       0.59151515       0.00000000       0.00000000    2727.47045898
2
Properties=species:S:1:pos:R:3:forces:R:3 energy=652.3658134923251 pbc="F F F"
Pb       0.00000000       0.00000000       0.00000000       0.00000000       0.00000000   -2241.78637695
Pb       0.00000000       0.00000000       0.65030303       0.00000000       0.00000000    2241.78637695
2
Properties=species:S:1:pos:R:3:forces:R:3 energy=526.2703545586352 pbc="F F F"
Pb       0.00000000       0.00000000       0.00000000       0.00000000       0.00000000   -2038.88110352
Pb       0.00000000       0.00000000       0.70909091       0.00000000       0.00000000    2038.88110352
2
Properties=species:S:1:pos:R:3:forces:R:3 energy=418.05404604091297 pbc="F F F"
Pb       0.00000000       0.00000000       0.00000000       0.00000000       0.00000000   -1671.10473633
Pb       0.00000000       0.00000000       0.76787879       0.00000000       0.00000000    1671.10473633
2
Properties=species:S:1:pos:R:3:forces:R:3 energy=332.83053541276706 pbc="F F F"
Pb       0.00000000       0.00000000       0.00000000       0.00000000       0.00000000   -1271.53515625
Pb       0.00000000       0.00000000       0.82666667       0.00000000       0.00000000    1271.53515625
2
Properties=species:S:1:pos:R:3:forces:R:3 energy=259.50939909971663 pbc="F F F"
Pb       0.00000000       0.00000000       0.00000000       0.00000000       0.00000000   -1108.55932617
Pb       0.00000000       0.00000000       0.88545455       0.00000000       0.00000000    1108.55932617
2
Properties=species:S:1:pos:R:3:forces:R:3 energy=204.6006621451826 pbc="F F F"
Pb       0.00000000       0.00000000       0.00000000       0.00000000       0.00000000    -819.73797607
Pb       0.00000000       0.00000000       0.94424242       0.00000000       0.00000000     819.73797607
2
Properties=species:S:1:pos:R:3:forces:R:3 energy=160.6731417068439 pbc="F F F"
Pb       0.00000000       0.00000000       0.00000000       0.00000000       0.00000000    -659.97192383
Pb       0.00000000       0.00000000       1.00303030       0.00000000       0.00000000     659.97192383
2
Properties=species:S:1:pos:R:3:forces:R:3 energy=127.65976016698859 pbc="F F F"
Pb       0.00000000       0.00000000       0.00000000       0.00000000       0.00000000    -468.79699707
Pb       0.00000000       0.00000000       1.06181818       0.00000000       0.00000000     468.79699707
2
Properties=species:S:1:pos:R:3:forces:R:3 energy=104.36293150722813 pbc="F F F"
Pb       0.00000000       0.00000000       0.00000000       0.00000000       0.00000000    -334.60928345
Pb       0.00000000       0.00000000       1.12060606       0.00000000       0.00000000     334.60928345
2
Properties=species:S:1:pos:R:3:forces:R:3 energy=87.26900676608865 pbc="F F F"
Pb       0.00000000       0.00000000       0.00000000       0.00000000       0.00000000    -253.82553101
Pb       0.00000000       0.00000000       1.17939394       0.00000000       0.00000000     253.82553101
2
Properties=species:S:1:pos:R:3:forces:R:3 energy=73.89679244543919 pbc="F F F"
Pb       0.00000000       0.00000000       0.00000000       0.00000000       0.00000000    -205.01570129
Pb       0.00000000       0.00000000       1.23818182       0.00000000       0.00000000     205.01570129
2
Properties=species:S:1:pos:R:3:forces:R:3 energy=62.842560107689685 pbc="F F F"
Pb       0.00000000       0.00000000       0.00000000       0.00000000       0.00000000    -172.80316162
Pb       0.00000000       0.00000000       1.29696970       0.00000000       0.00000000     172.80316162
2
Properties=species:S:1:pos:R:3:forces:R:3 energy=53.44400970633328 pbc="F F F"
Pb       0.00000000       0.00000000       0.00000000       0.00000000       0.00000000    -147.75559998
Pb       0.00000000       0.00000000       1.35575758       0.00000000       0.00000000     147.75559998
2
Properties=species:S:1:pos:R:3:forces:R:3 energy=45.38459390459195 pbc="F F F"
Pb       0.00000000       0.00000000       0.00000000       0.00000000       0.00000000    -127.15694427
Pb       0.00000000       0.00000000       1.41454545       0.00000000       0.00000000     127.15694427
2
Properties=species:S:1:pos:R:3:forces:R:3 energy=38.395685624416664 pbc="F F F"
Pb       0.00000000       0.00000000       0.00000000       0.00000000       0.00000000    -111.55743408
Pb       0.00000000       0.00000000       1.47333333       0.00000000       0.00000000     111.55743408
2
Properties=species:S:1:pos:R:3:forces:R:3 energy=32.16234735345025 pbc="F F F"
Pb       0.00000000       0.00000000       0.00000000       0.00000000       0.00000000    -101.17512512
Pb       0.00000000       0.00000000       1.53212121       0.00000000       0.00000000     101.17512512
2
Properties=species:S:1:pos:R:3:forces:R:3 energy=26.46810085162033 pbc="F F F"
Pb       0.00000000       0.00000000       0.00000000       0.00000000       0.00000000     -92.44499207
Pb       0.00000000       0.00000000       1.59090909       0.00000000       0.00000000      92.44499207
2
Properties=species:S:1:pos:R:3:forces:R:3 energy=21.326444545578564 pbc="F F F"
Pb       0.00000000       0.00000000       0.00000000       0.00000000       0.00000000     -82.16113281
Pb       0.00000000       0.00000000       1.64969697       0.00000000       0.00000000      82.16113281
2
Properties=species:S:1:pos:R:3:forces:R:3 energy=16.83179422671069 pbc="F F F"
Pb       0.00000000       0.00000000       0.00000000       0.00000000       0.00000000     -70.68869781
Pb       0.00000000       0.00000000       1.70848485       0.00000000       0.00000000      70.68869781
2
Properties=species:S:1:pos:R:3:forces:R:3 energy=13.007928002467489 pbc="F F F"
Pb       0.00000000       0.00000000       0.00000000       0.00000000       0.00000000     -59.55590820
Pb       0.00000000       0.00000000       1.76727273       0.00000000       0.00000000      59.55590820
2
Properties=species:S:1:pos:R:3:forces:R:3 energy=9.805648853286543 pbc="F F F"
Pb       0.00000000       0.00000000       0.00000000       0.00000000       0.00000000     -49.61502457
Pb       0.00000000       0.00000000       1.82606061       0.00000000       0.00000000      49.61502457
2
Properties=species:S:1:pos:R:3:forces:R:3 energy=7.147632095653006 pbc="F F F"
Pb       0.00000000       0.00000000       0.00000000       0.00000000       0.00000000     -41.03056335
Pb       0.00000000       0.00000000       1.88484848       0.00000000       0.00000000      41.03056335
2
Properties=species:S:1:pos:R:3:forces:R:3 energy=4.9575182024740965 pbc="F F F"
Pb       0.00000000       0.00000000       0.00000000       0.00000000       0.00000000     -33.66863632
Pb       0.00000000       0.00000000       1.94363636       0.00000000       0.00000000      33.66863632
2
Properties=species:S:1:pos:R:3:forces:R:3 energy=3.1676964227528077 pbc="F F F"
Pb       0.00000000       0.00000000       0.00000000       0.00000000       0.00000000     -27.39677048
Pb       0.00000000       0.00000000       2.00242424       0.00000000       0.00000000      27.39677048
2
Properties=species:S:1:pos:R:3:forces:R:3 energy=1.7165603643308054 pbc="F F F"
Pb       0.00000000       0.00000000       0.00000000       0.00000000       0.00000000     -22.13281822
Pb       0.00000000       0.00000000       2.06121212       0.00000000       0.00000000      22.13281822
2
Properties=species:S:1:pos:R:3:forces:R:3 energy=0.5475512328017802 pbc="F F F"
Pb       0.00000000       0.00000000       0.00000000       0.00000000       0.00000000     -17.77954674
Pb       0.00000000       0.00000000       2.12000000       0.00000000       0.00000000      17.77954674
2
Properties=species:S:1:pos:R:3:forces:R:3 energy=-0.3892800753008565 pbc="F F F"
Pb       0.00000000       0.00000000       0.00000000       0.00000000       0.00000000     -14.21180153
Pb       0.00000000       0.00000000       2.17878788       0.00000000       0.00000000      14.21180153
2
Properties=species:S:1:pos:R:3:forces:R:3 energy=-1.1362661403478924 pbc="F F F"
Pb       0.00000000       0.00000000       0.00000000       0.00000000       0.00000000     -11.30032539
Pb       0.00000000       0.00000000       2.23757576       0.00000000       0.00000000      11.30032539
2
Properties=species:S:1:pos:R:3:forces:R:3 energy=-1.7284957458810521 pbc="F F F"
Pb       0.00000000       0.00000000       0.00000000       0.00000000       0.00000000      -8.92900848
Pb       0.00000000       0.00000000       2.29636364       0.00000000       0.00000000       8.92900848
2
Properties=species:S:1:pos:R:3:forces:R:3 energy=-2.1947484235902284 pbc="F F F"
Pb       0.00000000       0.00000000       0.00000000       0.00000000       0.00000000      -6.99959373
Pb       0.00000000       0.00000000       2.35515152       0.00000000       0.00000000       6.99959373
2
Properties=species:S:1:pos:R:3:forces:R:3 energy=-2.5585136864034967 pbc="F F F"
Pb       0.00000000       0.00000000       0.00000000       0.00000000       0.00000000      -5.42959881
Pb       0.00000000       0.00000000       2.41393939       0.00000000       0.00000000       5.42959881
2
Properties=species:S:1:pos:R:3:forces:R:3 energy=-2.8388171900453916 pbc="F F F"
Pb       0.00000000       0.00000000       0.00000000       0.00000000       0.00000000      -4.14974213
Pb       0.00000000       0.00000000       2.47272727       0.00000000       0.00000000       4.14974213
2
Properties=species:S:1:pos:R:3:forces:R:3 energy=-3.050980441167922 pbc="F F F"
Pb       0.00000000       0.00000000       0.00000000       0.00000000       0.00000000      -3.10288739
Pb       0.00000000       0.00000000       2.53151515       0.00000000       0.00000000       3.10288739
2
Properties=species:S:1:pos:R:3:forces:R:3 energy=-3.2073114432892096 pbc="F F F"
Pb       0.00000000       0.00000000       0.00000000       0.00000000       0.00000000      -2.24367166
Pb       0.00000000       0.00000000       2.59030303       0.00000000       0.00000000       2.24367166
2
Properties=species:S:1:pos:R:3:forces:R:3 energy=-3.3177659075410615 pbc="F F F"
Pb       0.00000000       0.00000000       0.00000000       0.00000000       0.00000000      -1.53698194
Pb       0.00000000       0.00000000       2.64909091       0.00000000       0.00000000       1.53698194
2
Properties=species:S:1:pos:R:3:forces:R:3 energy=-3.3904736428777675 pbc="F F F"
Pb       0.00000000       0.00000000       0.00000000       0.00000000       0.00000000      -0.95548338
Pb       0.00000000       0.00000000       2.70787879       0.00000000       0.00000000       0.95548338
2
Properties=species:S:1:pos:R:3:forces:R:3 energy=-3.432127552994964 pbc="F F F"
Pb       0.00000000       0.00000000       0.00000000       0.00000000       0.00000000      -0.47720215
Pb       0.00000000       0.00000000       2.76666667       0.00000000       0.00000000       0.47720215
2
Properties=species:S:1:pos:R:3:forces:R:3 energy=-3.448247772437056 pbc="F F F"
Pb       0.00000000       0.00000000       0.00000000       0.00000000       0.00000000      -0.08408644
Pb       0.00000000       0.00000000       2.82545455       0.00000000       0.00000000       0.08408644
2
Properties=species:S:1:pos:R:3:forces:R:3 energy=-3.4433939700063956 pbc="F F F"
Pb       0.00000000       0.00000000       0.00000000       0.00000000       0.00000000       0.23850156
Pb       0.00000000       0.00000000       2.88424242       0.00000000       0.00000000      -0.23850156
2
Properties=species:S:1:pos:R:3:forces:R:3 energy=-3.42136216446828 pbc="F F F"
Pb       0.00000000       0.00000000       0.00000000       0.00000000       0.00000000       0.50197995
Pb       0.00000000       0.00000000       2.94303030       0.00000000       0.00000000      -0.50197995
2
Properties=species:S:1:pos:R:3:forces:R:3 energy=-3.3853615914589446 pbc="F F F"
Pb       0.00000000       0.00000000       0.00000000       0.00000000       0.00000000       0.71497053
Pb       0.00000000       0.00000000       3.00181818       0.00000000       0.00000000      -0.71497053
2
Properties=species:S:1:pos:R:3:forces:R:3 energy=-3.338159193656196 pbc="F F F"
Pb       0.00000000       0.00000000       0.00000000       0.00000000       0.00000000       0.88403708
Pb       0.00000000       0.00000000       3.06060606       0.00000000       0.00000000      -0.88403708
2
Properties=species:S:1:pos:R:3:forces:R:3 energy=-3.282173989867527 pbc="F F F"
Pb       0.00000000       0.00000000       0.00000000       0.00000000       0.00000000       1.01459503
Pb       0.00000000       0.00000000       3.11939394       0.00000000       0.00000000      -1.01459503
2
Properties=species:S:1:pos:R:3:forces:R:3 energy=-3.219525282461027 pbc="F F F"
Pb       0.00000000       0.00000000       0.00000000       0.00000000       0.00000000       1.11154699
Pb       0.00000000       0.00000000       3.17818182       0.00000000       0.00000000      -1.11154699
2
Properties=species:S:1:pos:R:3:forces:R:3 energy=-3.152050642657548 pbc="F F F"
Pb       0.00000000       0.00000000       0.00000000       0.00000000       0.00000000       1.17956996
Pb       0.00000000       0.00000000       3.23696970       0.00000000       0.00000000      -1.17956996
2
Properties=species:S:1:pos:R:3:forces:R:3 energy=-3.081316739745304 pbc="F F F"
Pb       0.00000000       0.00000000       0.00000000       0.00000000       0.00000000       1.22313094
Pb       0.00000000       0.00000000       3.29575758       0.00000000       0.00000000      -1.22313094
2
Properties=species:S:1:pos:R:3:forces:R:3 energy=-3.0086348527171474 pbc="F F F"
Pb       0.00000000       0.00000000       0.00000000       0.00000000       0.00000000       1.24653149
Pb       0.00000000       0.00000000       3.35454545       0.00000000       0.00000000      -1.24653149
2
Properties=species:S:1:pos:R:3:forces:R:3 energy=-2.9350653429740965 pbc="F F F"
Pb       0.00000000       0.00000000       0.00000000       0.00000000       0.00000000       1.25405169
Pb       0.00000000       0.00000000       3.41333333       0.00000000       0.00000000      -1.25405169
2
Properties=species:S:1:pos:R:3:forces:R:3 energy=-2.861420721634773 pbc="F F F"
Pb       0.00000000       0.00000000       0.00000000       0.00000000       0.00000000       1.24967170
Pb       0.00000000       0.00000000       3.47212121       0.00000000       0.00000000      -1.24967170
2
Properties=species:S:1:pos:R:3:forces:R:3 energy=-2.788314575709573 pbc="F F F"
Pb       0.00000000       0.00000000       0.00000000       0.00000000       0.00000000       1.23605597
Pb       0.00000000       0.00000000       3.53090909       0.00000000       0.00000000      -1.23605597
2
Properties=species:S:1:pos:R:3:forces:R:3 energy=-2.7162538052222853 pbc="F F F"
Pb       0.00000000       0.00000000       0.00000000       0.00000000       0.00000000       1.21405876
Pb       0.00000000       0.00000000       3.58969697       0.00000000       0.00000000      -1.21405876
2
Properties=species:S:1:pos:R:3:forces:R:3 energy=-2.645732707139358 pbc="F F F"
Pb       0.00000000       0.00000000       0.00000000       0.00000000       0.00000000       1.18379819
Pb       0.00000000       0.00000000       3.64848485       0.00000000       0.00000000      -1.18379819
2
Properties=species:S:1:pos:R:3:forces:R:3 energy=-2.577219939719913 pbc="F F F"
Pb       0.00000000       0.00000000       0.00000000       0.00000000       0.00000000       1.14585102
Pb       0.00000000       0.00000000       3.70727273       0.00000000       0.00000000      -1.14585102
2
Properties=species:S:1:pos:R:3:forces:R:3 energy=-2.5111330918462764 pbc="F F F"
Pb       0.00000000       0.00000000       0.00000000       0.00000000       0.00000000       1.10151517
Pb       0.00000000       0.00000000       3.76606061       0.00000000       0.00000000      -1.10151517
2
Properties=species:S:1:pos:R:3:forces:R:3 energy=-2.447800615050861 pbc="F F F"
Pb       0.00000000       0.00000000       0.00000000       0.00000000       0.00000000       1.05248761
Pb       0.00000000       0.00000000       3.82484848       0.00000000       0.00000000      -1.05248761
2
Properties=species:S:1:pos:R:3:forces:R:3 energy=-2.3874439035313126 pbc="F F F"
Pb       0.00000000       0.00000000       0.00000000       0.00000000       0.00000000       1.00050831
Pb       0.00000000       0.00000000       3.88363636       0.00000000       0.00000000      -1.00050831
2
Properties=species:S:1:pos:R:3:forces:R:3 energy=-2.330191220790438 pbc="F F F"
Pb       0.00000000       0.00000000       0.00000000       0.00000000       0.00000000       0.94715589
Pb       0.00000000       0.00000000       3.94242424       0.00000000       0.00000000      -0.94715589
2
Properties=species:S:1:pos:R:3:forces:R:3 energy=-2.276083653445333 pbc="F F F"
Pb       0.00000000       0.00000000       0.00000000       0.00000000       0.00000000       0.89372462
Pb       0.00000000       0.00000000       4.00121212       0.00000000       0.00000000      -0.89372462
2
Properties=species:S:1:pos:R:3:forces:R:3 energy=-2.225093362936311 pbc="F F F"
Pb       0.00000000       0.00000000       0.00000000       0.00000000       0.00000000       0.84120160
Pb       0.00000000       0.00000000       4.06000000       0.00000000       0.00000000      -0.84120160
2
Properties=species:S:1:pos:R:3:forces:R:3 energy=-2.177146747487335 pbc="F F F"
Pb       0.00000000       0.00000000       0.00000000       0.00000000       0.00000000       0.79031038
Pb       0.00000000       0.00000000       4.11878788       0.00000000       0.00000000      -0.79031038
2
Properties=species:S:1:pos:R:3:forces:R:3 energy=-2.132130338222287 pbc="F F F"
Pb       0.00000000       0.00000000       0.00000000       0.00000000       0.00000000       0.74154896
Pb       0.00000000       0.00000000       4.17757576       0.00000000       0.00000000      -0.74154896
2
Properties=species:S:1:pos:R:3:forces:R:3 energy=-2.089908496664864 pbc="F F F"
Pb       0.00000000       0.00000000       0.00000000       0.00000000       0.00000000       0.69527960
Pb       0.00000000       0.00000000       4.23636364       0.00000000       0.00000000      -0.69527960
2
Properties=species:S:1:pos:R:3:forces:R:3 energy=-2.050327192925962 pbc="F F F"
Pb       0.00000000       0.00000000       0.00000000       0.00000000       0.00000000       0.65175933
Pb       0.00000000       0.00000000       4.29515152       0.00000000       0.00000000      -0.65175933
2
Properties=species:S:1:pos:R:3:forces:R:3 energy=-2.013220443341353 pbc="F F F"
Pb       0.00000000       0.00000000       0.00000000       0.00000000       0.00000000       0.61117738
Pb       0.00000000       0.00000000       4.35393939       0.00000000       0.00000000      -0.61117738
2
Properties=species:S:1:pos:R:3:forces:R:3 energy=-1.9784091944065123 pbc="F F F"
Pb       0.00000000       0.00000000       0.00000000       0.00000000       0.00000000       0.57362229
Pb       0.00000000       0.00000000       4.41272727       0.00000000       0.00000000      -0.57362229
2
Properties=species:S:1:pos:R:3:forces:R:3 energy=-1.945716712614348 pbc="F F F"
Pb       0.00000000       0.00000000       0.00000000       0.00000000       0.00000000       0.53907812
Pb       0.00000000       0.00000000       4.47151515       0.00000000       0.00000000      -0.53907812
2
Properties=species:S:1:pos:R:3:forces:R:3 energy=-1.9149703662588955 pbc="F F F"
Pb       0.00000000       0.00000000       0.00000000       0.00000000       0.00000000       0.50736630
Pb       0.00000000       0.00000000       4.53030303       0.00000000       0.00000000      -0.50736630
2
Properties=species:S:1:pos:R:3:forces:R:3 energy=-1.8860145253811686 pbc="F F F"
Pb       0.00000000       0.00000000       0.00000000       0.00000000       0.00000000       0.47812366
Pb       0.00000000       0.00000000       4.58909091       0.00000000       0.00000000      -0.47812366
2
Properties=species:S:1:pos:R:3:forces:R:3 energy=-1.8587175024184823 pbc="F F F"
Pb       0.00000000       0.00000000       0.00000000       0.00000000       0.00000000       0.45081705
Pb       0.00000000       0.00000000       4.64787879       0.00000000       0.00000000      -0.45081705
2
Properties=species:S:1:pos:R:3:forces:R:3 energy=-1.8329840668439505 pbc="F F F"
Pb       0.00000000       0.00000000       0.00000000       0.00000000       0.00000000       0.42478192
Pb       0.00000000       0.00000000       4.70666667       0.00000000       0.00000000      -0.42478192
2
Properties=species:S:1:pos:R:3:forces:R:3 energy=-1.8087617180774052 pbc="F F F"
Pb       0.00000000       0.00000000       0.00000000       0.00000000       0.00000000       0.39934736
Pb       0.00000000       0.00000000       4.76545455       0.00000000       0.00000000      -0.39934736
2
Properties=species:S:1:pos:R:3:forces:R:3 energy=-1.7860287633884886 pbc="F F F"
Pb       0.00000000       0.00000000       0.00000000       0.00000000       0.00000000       0.37397647
Pb       0.00000000       0.00000000       4.82424242       0.00000000       0.00000000      -0.37397647
2
Properties=species:S:1:pos:R:3:forces:R:3 energy=-1.7647953591020384 pbc="F F F"
Pb       0.00000000       0.00000000       0.00000000       0.00000000       0.00000000       0.34845299
Pb       0.00000000       0.00000000       4.88303030       0.00000000       0.00000000      -0.34845299
2
Properties=species:S:1:pos:R:3:forces:R:3 energy=-1.7450589695053529 pbc="F F F"
Pb       0.00000000       0.00000000       0.00000000       0.00000000       0.00000000       0.32300201
Pb       0.00000000       0.00000000       4.94181818       0.00000000       0.00000000      -0.32300201
2
Properties=species:S:1:pos:R:3:forces:R:3 energy=-1.7268018539496446 pbc="F F F"
Pb       0.00000000       0.00000000       0.00000000       0.00000000       0.00000000       0.29834777
Pb       0.00000000       0.00000000       5.00060606       0.00000000       0.00000000      -0.29834777
2
Properties=species:S:1:pos:R:3:forces:R:3 energy=-1.7099428556119072 pbc="F F F"
Pb       0.00000000       0.00000000       0.00000000       0.00000000       0.00000000       0.27557608
Pb       0.00000000       0.00000000       5.05939394       0.00000000       0.00000000      -0.27557608
2
Properties=species:S:1:pos:R:3:forces:R:3 energy=-1.69434132156223 pbc="F F F"
Pb       0.00000000       0.00000000       0.00000000       0.00000000       0.00000000       0.25581357
Pb       0.00000000       0.00000000       5.11818182       0.00000000       0.00000000      -0.25581357
2
Properties=species:S:1:pos:R:3:forces:R:3 energy=-1.6797940540074237 pbc="F F F"
Pb       0.00000000       0.00000000       0.00000000       0.00000000       0.00000000       0.23970260
Pb       0.00000000       0.00000000       5.17696970       0.00000000       0.00000000      -0.23970260
2
Properties=species:S:1:pos:R:3:forces:R:3 energy=-1.666094710195309 pbc="F F F"
Pb       0.00000000       0.00000000       0.00000000       0.00000000       0.00000000       0.22679524
Pb       0.00000000       0.00000000       5.23575758       0.00000000       0.00000000      -0.22679524
2
Properties=species:S:1:pos:R:3:forces:R:3 energy=-1.6531043921531106 pbc="F F F"
Pb       0.00000000       0.00000000       0.00000000       0.00000000       0.00000000       0.21509981
Pb       0.00000000       0.00000000       5.29454545       0.00000000       0.00000000      -0.21509981
2
Properties=species:S:1:pos:R:3:forces:R:3 energy=-1.6408366060649942 pbc="F F F"
Pb       0.00000000       0.00000000       0.00000000       0.00000000       0.00000000       0.20178927
Pb       0.00000000       0.00000000       5.35333333       0.00000000       0.00000000      -0.20178927
2
Properties=species:S:1:pos:R:3:forces:R:3 energy=-1.629423051205834 pbc="F F F"
Pb       0.00000000       0.00000000       0.00000000       0.00000000       0.00000000       0.18649192
Pb       0.00000000       0.00000000       5.41212121       0.00000000       0.00000000      -0.18649192
2
Properties=species:S:1:pos:R:3:forces:R:3 energy=-1.6188496905741492 pbc="F F F"
Pb       0.00000000       0.00000000       0.00000000       0.00000000       0.00000000       0.17412224
Pb       0.00000000       0.00000000       5.47090909       0.00000000       0.00000000      -0.17412224
2
Properties=species:S:1:pos:R:3:forces:R:3 energy=-1.6088771206705934 pbc="F F F"
Pb       0.00000000       0.00000000       0.00000000       0.00000000       0.00000000       0.16481219
Pb       0.00000000       0.00000000       5.52969697       0.00000000       0.00000000      -0.16481219
2
Properties=species:S:1:pos:R:3:forces:R:3 energy=-1.5996335216720037 pbc="F F F"
Pb       0.00000000       0.00000000       0.00000000       0.00000000       0.00000000       0.14781536
Pb       0.00000000       0.00000000       5.58848485       0.00000000       0.00000000      -0.14781536
2
Properties=species:S:1:pos:R:3:forces:R:3 energy=-1.5916635094814489 pbc="F F F"
Pb       0.00000000       0.00000000       0.00000000       0.00000000       0.00000000       0.12305656
Pb       0.00000000       0.00000000       5.64727273       0.00000000       0.00000000      -0.12305656
2
Properties=species:S:1:pos:R:3:forces:R:3 energy=-1.585071275194051 pbc="F F F"
Pb       0.00000000       0.00000000       0.00000000       0.00000000       0.00000000       0.10317767
Pb       0.00000000       0.00000000       5.70606061       0.00000000       0.00000000      -0.10317767
2
Properties=species:S:1:pos:R:3:forces:R:3 energy=-1.579240001275425 pbc="F F F"
Pb       0.00000000       0.00000000       0.00000000       0.00000000       0.00000000       0.09641065
Pb       0.00000000       0.00000000       5.76484848       0.00000000       0.00000000      -0.09641065
2
Properties=species:S:1:pos:R:3:forces:R:3 energy=-1.5738221315460668 pbc="F F F"
Pb       0.00000000       0.00000000       0.00000000       0.00000000       0.00000000       0.08504321
Pb       0.00000000       0.00000000       5.82363636       0.00000000       0.00000000      -0.08504321
2
Properties=species:S:1:pos:R:3:forces:R:3 energy=-1.5696477475516406 pbc="F F F"
Pb       0.00000000       0.00000000       0.00000000       0.00000000       0.00000000       0.05519930
Pb       0.00000000       0.00000000       5.88242424       0.00000000       0.00000000      -0.05519930
2
Properties=species:S:1:pos:R:3:forces:R:3 energy=-1.5673548011410166 pbc="F F F"
Pb       0.00000000       0.00000000       0.00000000       0.00000000       0.00000000       0.02431911
Pb       0.00000000       0.00000000       5.94121212       0.00000000       0.00000000      -0.02431911
2
Properties=species:S:1:pos:R:3:forces:R:3 energy=-1.5664181357959466 pbc="F F F"
Pb       0.00000000       0.00000000       0.00000000       0.00000000       0.00000000       0.01160836
Pb       0.00000000       0.00000000       6.00000000       0.00000000       0.00000000      -0.01160836
