2
Properties=species:S:1:pos:R:3:forces:R:3 energy=2416.271372707137 pbc="F F F"
Rb       0.00000000       0.00000000       0.00000000       0.00000000       0.00000000  -90970.08593750
Rb       0.00000000       0.00000000       0.18000000       0.00000000       0.00000000   90970.08593750
2
Properties=species:S:1:pos:R:3:forces:R:3 energy=-839.2928362772382 pbc="F F F"
Rb       0.00000000       0.00000000       0.00000000       0.00000000       0.00000000  -31694.48828125
Rb       0.00000000       0.00000000       0.23878788       0.00000000       0.00000000   31694.48828125
2
Properties=species:S:1:pos:R:3:forces:R:3 energy=-2039.2546282694257 pbc="F F F"
Rb       0.00000000       0.00000000       0.00000000       0.00000000       0.00000000  -12228.69628906
Rb       0.00000000       0.00000000       0.29757576       0.00000000       0.00000000   12228.69628906
2
Properties=species:S:1:pos:R:3:forces:R:3 energy=-2486.133412449113 pbc="F F F"
Rb       0.00000000       0.00000000       0.00000000       0.00000000       0.00000000   -3953.26147461
Rb       0.00000000       0.00000000       0.35636364       0.00000000       0.00000000    3953.26147461
2
Properties=species:S:1:pos:R:3:forces:R:3 energy=-2573.492787449113 pbc="F F F"
Rb       0.00000000       0.00000000       0.00000000       0.00000000       0.00000000     641.60137939
Rb       0.00000000       0.00000000       0.41515152       0.00000000       0.00000000    -641.60137939
2
Properties=species:S:1:pos:R:3:forces:R:3 energy=-2435.7388811975293 pbc="F F F"
Rb       0.00000000       0.00000000       0.00000000       0.00000000       0.00000000    3906.66064453
Rb       0.00000000       0.00000000       0.47393939       0.00000000       0.00000000   -3906.66064453
2
Properties=species:S:1:pos:R:3:forces:R:3 energy=-2126.7054339319043 pbc="F F F"
Rb       0.00000000       0.00000000       0.00000000       0.00000000       0.00000000    6506.01367188
Rb       0.00000000       0.00000000       0.53272727       0.00000000       0.00000000   -6506.01367188
2
Properties=species:S:1:pos:R:3:forces:R:3 energy=-1684.9565325615488 pbc="F F F"
Rb       0.00000000       0.00000000       0.00000000       0.00000000       0.00000000    8372.88476562
Rb       0.00000000       0.00000000       0.59151515       0.00000000       0.00000000   -8372.88476562
2
Properties=species:S:1:pos:R:3:forces:R:3 energy=-1164.3043108786935 pbc="F F F"
Rb       0.00000000       0.00000000       0.00000000       0.00000000       0.00000000    9116.77734375
Rb       0.00000000       0.00000000       0.65030303       0.00000000       0.00000000   -9116.77734375
2
Properties=species:S:1:pos:R:3:forces:R:3 energy=-642.3601580403266 pbc="F F F"
Rb       0.00000000       0.00000000       0.00000000       0.00000000       0.00000000    8379.34277344
Rb       0.00000000       0.00000000       0.70909091       0.00000000       0.00000000   -8379.34277344
2
Properties=species:S:1:pos:R:3:forces:R:3 energy=-207.53445917828412 pbc="F F F"
Rb       0.00000000       0.00000000       0.00000000       0.00000000       0.00000000    6211.85498047
Rb       0.00000000       0.00000000       0.76787879       0.00000000       0.00000000   -6211.85498047
2
Properties=species:S:1:pos:R:3:forces:R:3 energy=77.86391730081482 pbc="F F F"
Rb       0.00000000       0.00000000       0.00000000       0.00000000       0.00000000    3356.22436523
Rb       0.00000000       0.00000000       0.82666667       0.00000000       0.00000000   -3356.22436523
2
Properties=species:S:1:pos:R:3:forces:R:3 energy=193.38657662157956 pbc="F F F"
Rb       0.00000000       0.00000000       0.00000000       0.00000000       0.00000000     638.88763428
Rb       0.00000000       0.00000000       0.88545455       0.00000000       0.00000000    -638.88763428
2
Properties=species:S:1:pos:R:3:forces:R:3 energy=221.32421397760763 pbc="F F F"
Rb       0.00000000       0.00000000       0.00000000       0.00000000       0.00000000    -189.59382629
Rb       0.00000000       0.00000000       0.94424242       0.00000000       0.00000000     189.59382629
2
Properties=species:S:1:pos:R:3:forces:R:3 energy=133.8964796406215 pbc="F F F"
Rb       0.00000000       0.00000000       0.00000000       0.00000000       0.00000000   -1780.50415039
Rb       0.00000000       0.00000000       1.00303030       0.00000000       0.00000000    1780.50415039
2
Properties=species:S:1:pos:R:3:forces:R:3 energy=91.21310719216413 pbc="F F F"
Rb       0.00000000       0.00000000       0.00000000       0.00000000       0.00000000    -495.77816772
Rb       0.00000000       0.00000000       1.06181818       0.00000000       0.00000000     495.77816772
2
Properties=species:S:1:pos:R:3:forces:R:3 energy=72.13355556349497 pbc="F F F"
Rb       0.00000000       0.00000000       0.00000000       0.00000000       0.00000000    -159.68997192
Rb       0.00000000       0.00000000       1.12060606       0.00000000       0.00000000     159.68997192
2
Properties=species:S:1:pos:R:3:forces:R:3 energy=70.77469181845976 pbc="F F F"
Rb       0.00000000       0.00000000       0.00000000       0.00000000       0.00000000      85.52774048
Rb       0.00000000       0.00000000       1.17939394       0.00000000       0.00000000     -85.52774048
2
Properties=species:S:1:pos:R:3:forces:R:3 energy=77.35679947644667 pbc="F F F"
Rb       0.00000000       0.00000000       0.00000000       0.00000000       0.00000000      91.24902344
Rb       0.00000000       0.00000000       1.23818182       0.00000000       0.00000000     -91.24902344
2
Properties=species:S:1:pos:R:3:forces:R:3 energy=73.11059142966461 pbc="F F F"
Rb       0.00000000       0.00000000       0.00000000       0.00000000       0.00000000    -192.53422546
Rb       0.00000000       0.00000000       1.29696970       0.00000000       0.00000000     192.53422546
2
Properties=species:S:1:pos:R:3:forces:R:3 energy=61.70461245532024 pbc="F F F"
Rb       0.00000000       0.00000000       0.00000000       0.00000000       0.00000000    -187.05111694
Rb       0.00000000       0.00000000       1.35575758       0.00000000       0.00000000     187.05111694
2
Properties=species:S:1:pos:R:3:forces:R:3 energy=51.51851267729992 pbc="F F F"
Rb       0.00000000       0.00000000       0.00000000       0.00000000       0.00000000    -158.96809387
Rb       0.00000000       0.00000000       1.41454545       0.00000000       0.00000000     158.96809387
2
Properties=species:S:1:pos:R:3:forces:R:3 energy=42.89153313293914 pbc="F F F"
Rb       0.00000000       0.00000000       0.00000000       0.00000000       0.00000000    -135.65966797
Rb       0.00000000       0.00000000       1.47333333       0.00000000       0.00000000     135.65966797
2
Properties=species:S:1:pos:R:3:forces:R:3 energy=35.49554501704411 pbc="F F F"
Rb       0.00000000       0.00000000       0.00000000       0.00000000       0.00000000    -116.21160889
Rb       0.00000000       0.00000000       1.53212121       0.00000000       0.00000000     116.21160889
2
Properties=species:S:1:pos:R:3:forces:R:3 energy=29.20850664159951 pbc="F F F"
Rb       0.00000000       0.00000000       0.00000000       0.00000000       0.00000000     -97.86856079
Rb       0.00000000       0.00000000       1.59090909       0.00000000       0.00000000      97.86856079
2
Properties=species:S:1:pos:R:3:forces:R:3 energy=23.954549411125345 pbc="F F F"
Rb       0.00000000       0.00000000       0.00000000       0.00000000       0.00000000     -81.24982452
Rb       0.00000000       0.00000000       1.64969697       0.00000000       0.00000000      81.24982452
2
Properties=species:S:1:pos:R:3:forces:R:3 energy=19.607666262966507 pbc="F F F"
Rb       0.00000000       0.00000000       0.00000000       0.00000000       0.00000000     -67.03686523
Rb       0.00000000       0.00000000       1.70848485       0.00000000       0.00000000      67.03686523
2
Properties=species:S:1:pos:R:3:forces:R:3 energy=16.028000876045045 pbc="F F F"
Rb       0.00000000       0.00000000       0.00000000       0.00000000       0.00000000     -55.10589600
Rb       0.00000000       0.00000000       1.76727273       0.00000000       0.00000000      55.10589600
2
Properties=species:S:1:pos:R:3:forces:R:3 energy=13.087032302207804 pbc="F F F"
Rb       0.00000000       0.00000000       0.00000000       0.00000000       0.00000000     -45.29820251
Rb       0.00000000       0.00000000       1.82606061       0.00000000       0.00000000      45.29820251
2
Properties=species:S:1:pos:R:3:forces:R:3 energy=10.66153440260979 pbc="F F F"
Rb       0.00000000       0.00000000       0.00000000       0.00000000       0.00000000     -37.54643631
Rb       0.00000000       0.00000000       1.88484848       0.00000000       0.00000000      37.54643631
2
Properties=species:S:1:pos:R:3:forces:R:3 energy=8.638552102874149 pbc="F F F"
Rb       0.00000000       0.00000000       0.00000000       0.00000000       0.00000000     -31.51337242
Rb       0.00000000       0.00000000       1.94363636       0.00000000       0.00000000      31.51337242
2
Properties=species:S:1:pos:R:3:forces:R:3 energy=6.935397106242918 pbc="F F F"
Rb       0.00000000       0.00000000       0.00000000       0.00000000       0.00000000     -26.55534935
Rb       0.00000000       0.00000000       2.00242424       0.00000000       0.00000000      26.55534935
2
Properties=species:S:1:pos:R:3:forces:R:3 energy=5.504876389258063 pbc="F F F"
Rb       0.00000000       0.00000000       0.00000000       0.00000000       0.00000000     -22.19628143
Rb       0.00000000       0.00000000       2.06121212       0.00000000       0.00000000      22.19628143
2
Properties=species:S:1:pos:R:3:forces:R:3 energy=4.315339443552739 pbc="F F F"
Rb       0.00000000       0.00000000       0.00000000       0.00000000       0.00000000     -18.36707878
Rb       0.00000000       0.00000000       2.12000000       0.00000000       0.00000000      18.36707878
2
Properties=species:S:1:pos:R:3:forces:R:3 energy=3.3338192181180335 pbc="F F F"
Rb       0.00000000       0.00000000       0.00000000       0.00000000       0.00000000     -15.12218285
Rb       0.00000000       0.00000000       2.17878788       0.00000000       0.00000000      15.12218285
2
Properties=species:S:1:pos:R:3:forces:R:3 energy=2.526543763989808 pbc="F F F"
Rb       0.00000000       0.00000000       0.00000000       0.00000000       0.00000000     -12.42594433
Rb       0.00000000       0.00000000       2.23757576       0.00000000       0.00000000      12.42594433
2
Properties=species:S:1:pos:R:3:forces:R:3 energy=1.863911435532014 pbc="F F F"
Rb       0.00000000       0.00000000       0.00000000       0.00000000       0.00000000     -10.18592834
Rb       0.00000000       0.00000000       2.29636364       0.00000000       0.00000000      10.18592834
2
Properties=species:S:1:pos:R:3:forces:R:3 energy=1.3214175010765468 pbc="F F F"
Rb       0.00000000       0.00000000       0.00000000       0.00000000       0.00000000      -8.33026123
Rb       0.00000000       0.00000000       2.35515152       0.00000000       0.00000000       8.33026123
2
Properties=species:S:1:pos:R:3:forces:R:3 energy=0.877655012640945 pbc="F F F"
Rb       0.00000000       0.00000000       0.00000000       0.00000000       0.00000000      -6.82278109
Rb       0.00000000       0.00000000       2.41393939       0.00000000       0.00000000       6.82278109
2
Properties=species:S:1:pos:R:3:forces:R:3 energy=0.5129607545417413 pbc="F F F"
Rb       0.00000000       0.00000000       0.00000000       0.00000000       0.00000000      -5.63420534
Rb       0.00000000       0.00000000       2.47272727       0.00000000       0.00000000       5.63420534
2
Properties=species:S:1:pos:R:3:forces:R:3 energy=0.2099112294827476 pbc="F F F"
Rb       0.00000000       0.00000000       0.00000000       0.00000000       0.00000000      -4.71534967
Rb       0.00000000       0.00000000       2.53151515       0.00000000       0.00000000       4.71534967
2
Properties=species:S:1:pos:R:3:forces:R:3 energy=-0.04542789650186201 pbc="F F F"
Rb       0.00000000       0.00000000       0.00000000       0.00000000       0.00000000      -3.99970007
Rb       0.00000000       0.00000000       2.59030303       0.00000000       0.00000000       3.99970007
2
Properties=species:S:1:pos:R:3:forces:R:3 energy=-0.2631221742948496 pbc="F F F"
Rb       0.00000000       0.00000000       0.00000000       0.00000000       0.00000000      -3.42598176
Rb       0.00000000       0.00000000       2.64909091       0.00000000       0.00000000       3.42598176
2
Properties=species:S:1:pos:R:3:forces:R:3 energy=-0.4502145937389507 pbc="F F F"
Rb       0.00000000       0.00000000       0.00000000       0.00000000       0.00000000      -2.95366120
Rb       0.00000000       0.00000000       2.70787879       0.00000000       0.00000000       2.95366120
2
Properties=species:S:1:pos:R:3:forces:R:3 energy=-0.6119535883308593 pbc="F F F"
Rb       0.00000000       0.00000000       0.00000000       0.00000000       0.00000000      -2.56083632
Rb       0.00000000       0.00000000       2.76666667       0.00000000       0.00000000       2.56083632
2
Properties=species:S:1:pos:R:3:forces:R:3 energy=-0.7526082574512875 pbc="F F F"
Rb       0.00000000       0.00000000       0.00000000       0.00000000       0.00000000      -2.23444510
Rb       0.00000000       0.00000000       2.82545455       0.00000000       0.00000000       2.23444510
2
Properties=species:S:1:pos:R:3:forces:R:3 energy=-0.8757552536696969 pbc="F F F"
Rb       0.00000000       0.00000000       0.00000000       0.00000000       0.00000000      -1.96334827
Rb       0.00000000       0.00000000       2.88424242       0.00000000       0.00000000       1.96334827
2
Properties=species:S:1:pos:R:3:forces:R:3 energy=-0.9843104993969256 pbc="F F F"
Rb       0.00000000       0.00000000       0.00000000       0.00000000       0.00000000      -1.73610592
Rb       0.00000000       0.00000000       2.94303030       0.00000000       0.00000000       1.73610592
2
Properties=species:S:1:pos:R:3:forces:R:3 energy=-1.0805173287286998 pbc="F F F"
Rb       0.00000000       0.00000000       0.00000000       0.00000000       0.00000000      -1.54151523
Rb       0.00000000       0.00000000       3.00181818       0.00000000       0.00000000       1.54151523
2
Properties=species:S:1:pos:R:3:forces:R:3 energy=-1.166008909347824 pbc="F F F"
Rb       0.00000000       0.00000000       0.00000000       0.00000000       0.00000000      -1.37019598
Rb       0.00000000       0.00000000       3.06060606       0.00000000       0.00000000       1.37019598
2
Properties=species:S:1:pos:R:3:forces:R:3 energy=-1.2419506237653506 pbc="F F F"
Rb       0.00000000       0.00000000       0.00000000       0.00000000       0.00000000      -1.21592319
Rb       0.00000000       0.00000000       3.11939394       0.00000000       0.00000000       1.21592319
2
Properties=species:S:1:pos:R:3:forces:R:3 energy=-1.3092463140627904 pbc="F F F"
Rb       0.00000000       0.00000000       0.00000000       0.00000000       0.00000000      -1.07575727
Rb       0.00000000       0.00000000       3.17818182       0.00000000       0.00000000       1.07575727
2
Properties=species:S:1:pos:R:3:forces:R:3 energy=-1.368698133629845 pbc="F F F"
Rb       0.00000000       0.00000000       0.00000000       0.00000000       0.00000000      -0.94911015
Rb       0.00000000       0.00000000       3.23696970       0.00000000       0.00000000       0.94911015
2
Properties=species:S:1:pos:R:3:forces:R:3 energy=-1.421108610907107 pbc="F F F"
Rb       0.00000000       0.00000000       0.00000000       0.00000000       0.00000000      -0.83625811
Rb       0.00000000       0.00000000       3.29575758       0.00000000       0.00000000       0.83625811
2
Properties=species:S:1:pos:R:3:forces:R:3 energy=-1.4672895900827756 pbc="F F F"
Rb       0.00000000       0.00000000       0.00000000       0.00000000       0.00000000      -0.73704141
Rb       0.00000000       0.00000000       3.35454545       0.00000000       0.00000000       0.73704141
2
Properties=species:S:1:pos:R:3:forces:R:3 energy=-1.508010613470281 pbc="F F F"
Rb       0.00000000       0.00000000       0.00000000       0.00000000       0.00000000      -0.65020084
Rb       0.00000000       0.00000000       3.41333333       0.00000000       0.00000000       0.65020084
2
Properties=species:S:1:pos:R:3:forces:R:3 energy=-1.5439371964388753 pbc="F F F"
Rb       0.00000000       0.00000000       0.00000000       0.00000000       0.00000000      -0.57350445
Rb       0.00000000       0.00000000       3.47212121       0.00000000       0.00000000       0.57350445
2
Properties=species:S:1:pos:R:3:forces:R:3 energy=-1.5755892328750438 pbc="F F F"
Rb       0.00000000       0.00000000       0.00000000       0.00000000       0.00000000      -0.50439858
Rb       0.00000000       0.00000000       3.53090909       0.00000000       0.00000000       0.50439858
2
Properties=species:S:1:pos:R:3:forces:R:3 energy=-1.6033468617802726 pbc="F F F"
Rb       0.00000000       0.00000000       0.00000000       0.00000000       0.00000000      -0.44069678
Rb       0.00000000       0.00000000       3.58969697       0.00000000       0.00000000       0.44069678
2
Properties=species:S:1:pos:R:3:forces:R:3 energy=-1.6274806351408584 pbc="F F F"
Rb       0.00000000       0.00000000       0.00000000       0.00000000       0.00000000      -0.38091815
Rb       0.00000000       0.00000000       3.64848485       0.00000000       0.00000000       0.38091815
2
Properties=species:S:1:pos:R:3:forces:R:3 energy=-1.6481932871126732 pbc="F F F"
Rb       0.00000000       0.00000000       0.00000000       0.00000000       0.00000000      -0.32419115
Rb       0.00000000       0.00000000       3.70727273       0.00000000       0.00000000       0.32419115
2
Properties=species:S:1:pos:R:3:forces:R:3 energy=-1.6656462396651324 pbc="F F F"
Rb       0.00000000       0.00000000       0.00000000       0.00000000       0.00000000      -0.26991120
Rb       0.00000000       0.00000000       3.76606061       0.00000000       0.00000000       0.26991120
2
Properties=species:S:1:pos:R:3:forces:R:3 energy=-1.6799646473852217 pbc="F F F"
Rb       0.00000000       0.00000000       0.00000000       0.00000000       0.00000000      -0.21747306
Rb       0.00000000       0.00000000       3.82484848       0.00000000       0.00000000       0.21747306
2
Properties=species:S:1:pos:R:3:forces:R:3 energy=-1.6912386751015904 pbc="F F F"
Rb       0.00000000       0.00000000       0.00000000       0.00000000       0.00000000      -0.16621441
Rb       0.00000000       0.00000000       3.88363636       0.00000000       0.00000000       0.16621441
2
Properties=species:S:1:pos:R:3:forces:R:3 energy=-1.699520013472708 pbc="F F F"
Rb       0.00000000       0.00000000       0.00000000       0.00000000       0.00000000      -0.11559916
Rb       0.00000000       0.00000000       3.94242424       0.00000000       0.00000000       0.11559916
2
Properties=species:S:1:pos:R:3:forces:R:3 energy=-1.704838717175041 pbc="F F F"
Rb       0.00000000       0.00000000       0.00000000       0.00000000       0.00000000      -0.06543265
Rb       0.00000000       0.00000000       4.00121212       0.00000000       0.00000000       0.06543265
2
Properties=species:S:1:pos:R:3:forces:R:3 energy=-1.7072266312803785 pbc="F F F"
Rb       0.00000000       0.00000000       0.00000000       0.00000000       0.00000000      -0.01596055
Rb       0.00000000       0.00000000       4.06000000       0.00000000       0.00000000       0.01596055
2
Properties=species:S:1:pos:R:3:forces:R:3 energy=-1.7067401146327497 pbc="F F F"
Rb       0.00000000       0.00000000       0.00000000       0.00000000       0.00000000       0.03223629
Rb       0.00000000       0.00000000       4.11878788       0.00000000       0.00000000      -0.03223629
2
Properties=species:S:1:pos:R:3:forces:R:3 energy=-1.703473949241509 pbc="F F F"
Rb       0.00000000       0.00000000       0.00000000       0.00000000       0.00000000       0.07850113
Rb       0.00000000       0.00000000       4.17757576       0.00000000       0.00000000      -0.07850113
2
Properties=species:S:1:pos:R:3:forces:R:3 energy=-1.6975570034855616 pbc="F F F"
Rb       0.00000000       0.00000000       0.00000000       0.00000000       0.00000000       0.12237460
Rb       0.00000000       0.00000000       4.23636364       0.00000000       0.00000000      -0.12237460
2
Properties=species:S:1:pos:R:3:forces:R:3 energy=-1.6891338495482953 pbc="F F F"
Rb       0.00000000       0.00000000       0.00000000       0.00000000       0.00000000       0.16380601
Rb       0.00000000       0.00000000       4.29515152       0.00000000       0.00000000      -0.16380601
2
Properties=species:S:1:pos:R:3:forces:R:3 energy=-1.6783381248213431 pbc="F F F"
Rb       0.00000000       0.00000000       0.00000000       0.00000000       0.00000000       0.20320968
Rb       0.00000000       0.00000000       4.35393939       0.00000000       0.00000000      -0.20320968
2
Properties=species:S:1:pos:R:3:forces:R:3 energy=-1.665265913739337 pbc="F F F"
Rb       0.00000000       0.00000000       0.00000000       0.00000000       0.00000000       0.24138042
Rb       0.00000000       0.00000000       4.41272727       0.00000000       0.00000000      -0.24138042
2
Properties=species:S:1:pos:R:3:forces:R:3 energy=-1.6499633342872788 pbc="F F F"
Rb       0.00000000       0.00000000       0.00000000       0.00000000       0.00000000       0.27925053
Rb       0.00000000       0.00000000       4.47151515       0.00000000       0.00000000      -0.27925053
2
Properties=species:S:1:pos:R:3:forces:R:3 energy=-1.6324234636145558 pbc="F F F"
Rb       0.00000000       0.00000000       0.00000000       0.00000000       0.00000000       0.31754738
Rb       0.00000000       0.00000000       4.53030303       0.00000000       0.00000000      -0.31754738
2
Properties=species:S:1:pos:R:3:forces:R:3 energy=-1.6126166170999765 pbc="F F F"
Rb       0.00000000       0.00000000       0.00000000       0.00000000       0.00000000       0.35636643
Rb       0.00000000       0.00000000       4.58909091       0.00000000       0.00000000      -0.35636643
2
Properties=species:S:1:pos:R:3:forces:R:3 energy=-1.5905304848946649 pbc="F F F"
Rb       0.00000000       0.00000000       0.00000000       0.00000000       0.00000000       0.39480722
Rb       0.00000000       0.00000000       4.64787879       0.00000000       0.00000000      -0.39480722
2
Properties=species:S:1:pos:R:3:forces:R:3 energy=-1.5662443451075998 pbc="F F F"
Rb       0.00000000       0.00000000       0.00000000       0.00000000       0.00000000       0.43075132
Rb       0.00000000       0.00000000       4.70666667       0.00000000       0.00000000      -0.43075132
2
Properties=species:S:1:pos:R:3:forces:R:3 energy=-1.5399939746831628 pbc="F F F"
Rb       0.00000000       0.00000000       0.00000000       0.00000000       0.00000000       0.46110964
Rb       0.00000000       0.00000000       4.76545455       0.00000000       0.00000000      -0.46110964
2
Properties=species:S:1:pos:R:3:forces:R:3 energy=-1.512197143599744 pbc="F F F"
Rb       0.00000000       0.00000000       0.00000000       0.00000000       0.00000000       0.48290604
Rb       0.00000000       0.00000000       4.82424242       0.00000000       0.00000000      -0.48290604
2
Properties=species:S:1:pos:R:3:forces:R:3 energy=-1.4834012246295583 pbc="F F F"
Rb       0.00000000       0.00000000       0.00000000       0.00000000       0.00000000       0.49551827
Rb       0.00000000       0.00000000       4.88303030       0.00000000       0.00000000      -0.49551827
2
Properties=species:S:1:pos:R:3:forces:R:3 energy=-1.4540256653835197 pbc="F F F"
Rb       0.00000000       0.00000000       0.00000000       0.00000000       0.00000000       0.50387573
Rb       0.00000000       0.00000000       4.94181818       0.00000000       0.00000000      -0.50387573
2
Properties=species:S:1:pos:R:3:forces:R:3 energy=-1.4240022604612737 pbc="F F F"
Rb       0.00000000       0.00000000       0.00000000       0.00000000       0.00000000       0.52029479
Rb       0.00000000       0.00000000       5.00060606       0.00000000       0.00000000      -0.52029479
2
Properties=species:S:1:pos:R:3:forces:R:3 energy=-1.3923581535631946 pbc="F F F"
Rb       0.00000000       0.00000000       0.00000000       0.00000000       0.00000000       0.56165540
Rb       0.00000000       0.00000000       5.05939394       0.00000000       0.00000000      -0.56165540
2
Properties=species:S:1:pos:R:3:forces:R:3 energy=-1.3572188651145234 pbc="F F F"
Rb       0.00000000       0.00000000       0.00000000       0.00000000       0.00000000       0.64058560
Rb       0.00000000       0.00000000       5.11818182       0.00000000       0.00000000      -0.64058560
2
Properties=species:S:1:pos:R:3:forces:R:3 energy=-1.3163346910510973 pbc="F F F"
Rb       0.00000000       0.00000000       0.00000000       0.00000000       0.00000000       0.75491887
Rb       0.00000000       0.00000000       5.17696970       0.00000000       0.00000000      -0.75491887
2
Properties=species:S:1:pos:R:3:forces:R:3 energy=-1.2682435068187219 pbc="F F F"
Rb       0.00000000       0.00000000       0.00000000       0.00000000       0.00000000       0.87952620
Rb       0.00000000       0.00000000       5.23575758       0.00000000       0.00000000      -0.87952620
2
Properties=species:S:1:pos:R:3:forces:R:3 energy=-1.2136614187250065 pbc="F F F"
Rb       0.00000000       0.00000000       0.00000000       0.00000000       0.00000000       0.96656036
Rb       0.00000000       0.00000000       5.29454545       0.00000000       0.00000000      -0.96656036
2
Properties=species:S:1:pos:R:3:forces:R:3 energy=-1.1561422004451933 pbc="F F F"
Rb       0.00000000       0.00000000       0.00000000       0.00000000       0.00000000       0.97809303
Rb       0.00000000       0.00000000       5.35333333       0.00000000       0.00000000      -0.97809303
2
Properties=species:S:1:pos:R:3:forces:R:3 energy=-1.0990784545018701 pbc="F F F"
Rb       0.00000000       0.00000000       0.00000000       0.00000000       0.00000000       0.97328359
Rb       0.00000000       0.00000000       5.41212121       0.00000000       0.00000000      -0.97328359
2
Properties=species:S:1:pos:R:3:forces:R:3 energy=-1.0390837891752227 pbc="F F F"
Rb       0.00000000       0.00000000       0.00000000       0.00000000       0.00000000       1.09309065
Rb       0.00000000       0.00000000       5.47090909       0.00000000       0.00000000      -1.09309065
2
Properties=species:S:1:pos:R:3:forces:R:3 energy=-0.9695939399281991 pbc="F F F"
Rb       0.00000000       0.00000000       0.00000000       0.00000000       0.00000000       1.25302577
Rb       0.00000000       0.00000000       5.52969697       0.00000000       0.00000000      -1.25302577
2
Properties=species:S:1:pos:R:3:forces:R:3 energy=-0.8959285746308399 pbc="F F F"
Rb       0.00000000       0.00000000       0.00000000       0.00000000       0.00000000       1.21546257
Rb       0.00000000       0.00000000       5.58848485       0.00000000       0.00000000      -1.21546257
2
Properties=species:S:1:pos:R:3:forces:R:3 energy=-0.8291367718688484 pbc="F F F"
Rb       0.00000000       0.00000000       0.00000000       0.00000000       0.00000000       1.06293046
Rb       0.00000000       0.00000000       5.64727273       0.00000000       0.00000000      -1.06293046
2
Properties=species:S:1:pos:R:3:forces:R:3 energy=-0.766765653447461 pbc="F F F"
Rb       0.00000000       0.00000000       0.00000000       0.00000000       0.00000000       1.12108862
Rb       0.00000000       0.00000000       5.70606061       0.00000000       0.00000000      -1.12108862
2
Properties=species:S:1:pos:R:3:forces:R:3 energy=-0.690117222401075 pbc="F F F"
Rb       0.00000000       0.00000000       0.00000000       0.00000000       0.00000000       1.50324941
Rb       0.00000000       0.00000000       5.76484848       0.00000000       0.00000000      -1.50324941
2
Properties=species:S:1:pos:R:3:forces:R:3 energy=-0.5959001973628986 pbc="F F F"
Rb       0.00000000       0.00000000       0.00000000       0.00000000       0.00000000       1.59282768
Rb       0.00000000       0.00000000       5.82363636       0.00000000       0.00000000      -1.59282768
2
Properties=species:S:1:pos:R:3:forces:R:3 energy=-0.5168200765321049 pbc="F F F"
Rb       0.00000000       0.00000000       0.00000000       0.00000000       0.00000000       1.02738345
Rb       0.00000000       0.00000000       5.88242424       0.00000000       0.00000000      -1.02738345
2
Properties=species:S:1:pos:R:3:forces:R:3 energy=-0.4776570643626201 pbc="F F F"
Rb       0.00000000       0.00000000       0.00000000       0.00000000       0.00000000       0.33257130
Rb       0.00000000       0.00000000       5.94121212       0.00000000       0.00000000      -0.33257130
2
Properties=species:S:1:pos:R:3:forces:R:3 energy=-0.4693161921769455 pbc="F F F"
Rb       0.00000000       0.00000000       0.00000000       0.00000000       0.00000000       0.04632730
Rb       0.00000000       0.00000000       6.00000000       0.00000000       0.00000000      -0.04632730
