2
Properties=species:S:1:pos:R:3:forces:R:3 energy=10628.019138807176 pbc="F F F"
Xe       0.00000000       0.00000000       0.00000000       0.00000000       0.00000000 -162203.90625000
Xe       0.00000000       0.00000000       0.18000000       0.00000000       0.00000000  162203.90625000
2
Properties=species:S:1:pos:R:3:forces:R:3 energy=4887.476170057176 pbc="F F F"
Xe       0.00000000       0.00000000       0.00000000       0.00000000       0.00000000  -55291.05078125
Xe       0.00000000       0.00000000       0.23878788       0.00000000       0.00000000   55291.05078125
2
Properties=species:S:1:pos:R:3:forces:R:3 energy=2780.307468888469 pbc="F F F"
Xe       0.00000000       0.00000000       0.00000000       0.00000000       0.00000000  -22094.44921875
Xe       0.00000000       0.00000000       0.29757576       0.00000000       0.00000000   22094.44921875
2
Properties=species:S:1:pos:R:3:forces:R:3 energy=1903.1550030744922 pbc="F F F"
Xe       0.00000000       0.00000000       0.00000000       0.00000000       0.00000000   -9591.87402344
Xe       0.00000000       0.00000000       0.35636364       0.00000000       0.00000000    9591.87402344
2
Properties=species:S:1:pos:R:3:forces:R:3 energy=1518.0289044480153 pbc="F F F"
Xe       0.00000000       0.00000000       0.00000000       0.00000000       0.00000000   -4201.54736328
Xe       0.00000000       0.00000000       0.41515152       0.00000000       0.00000000    4201.54736328
2
Properties=species:S:1:pos:R:3:forces:R:3 energy=1356.4093976342526 pbc="F F F"
Xe       0.00000000       0.00000000       0.00000000       0.00000000       0.00000000   -1581.27197266
Xe       0.00000000       0.00000000       0.47393939       0.00000000       0.00000000    1581.27197266
2
Properties=species:S:1:pos:R:3:forces:R:3 energy=1309.5539289190986 pbc="F F F"
Xe       0.00000000       0.00000000       0.00000000       0.00000000       0.00000000    -140.61254883
Xe       0.00000000       0.00000000       0.53272727       0.00000000       0.00000000     140.61254883
2
Properties=species:S:1:pos:R:3:forces:R:3 energy=1326.72702468558 pbc="F F F"
Xe       0.00000000       0.00000000       0.00000000       0.00000000       0.00000000     546.54968262
Xe       0.00000000       0.00000000       0.59151515       0.00000000       0.00000000    -546.54968262
2
Properties=species:S:1:pos:R:3:forces:R:3 energy=1370.616673230786 pbc="F F F"
Xe       0.00000000       0.00000000       0.00000000       0.00000000       0.00000000     934.75390625
Xe       0.00000000       0.00000000       0.65030303       0.00000000       0.00000000    -934.75390625
2
Properties=species:S:1:pos:R:3:forces:R:3 energy=1429.4601792548876 pbc="F F F"
Xe       0.00000000       0.00000000       0.00000000       0.00000000       0.00000000    1061.26843262
Xe       0.00000000       0.00000000       0.70909091       0.00000000       0.00000000   -1061.26843262
2
Properties=species:S:1:pos:R:3:forces:R:3 energy=1510.7088367380438 pbc="F F F"
Xe       0.00000000       0.00000000       0.00000000       0.00000000       0.00000000    1438.79040527
Xe       0.00000000       0.00000000       0.76787879       0.00000000       0.00000000   -1438.79040527
2
Properties=species:S:1:pos:R:3:forces:R:3 energy=1618.9209953181396 pbc="F F F"
Xe       0.00000000       0.00000000       0.00000000       0.00000000       0.00000000    2144.25292969
Xe       0.00000000       0.00000000       0.82666667       0.00000000       0.00000000   -2144.25292969
2
Properties=species:S:1:pos:R:3:forces:R:3 energy=1683.6868649972944 pbc="F F F"
Xe       0.00000000       0.00000000       0.00000000       0.00000000       0.00000000    -245.60310364
Xe       0.00000000       0.00000000       0.88545455       0.00000000       0.00000000     245.60310364
2
Properties=species:S:1:pos:R:3:forces:R:3 energy=1602.3528813762362 pbc="F F F"
Xe       0.00000000       0.00000000       0.00000000       0.00000000       0.00000000   -2276.58544922
Xe       0.00000000       0.00000000       0.94424242       0.00000000       0.00000000    2276.58544922
2
Properties=species:S:1:pos:R:3:forces:R:3 energy=1441.1811294792585 pbc="F F F"
Xe       0.00000000       0.00000000       0.00000000       0.00000000       0.00000000   -3047.84082031
Xe       0.00000000       0.00000000       1.00303030       0.00000000       0.00000000    3047.84082031
2
Properties=species:S:1:pos:R:3:forces:R:3 energy=1254.376931660686 pbc="F F F"
Xe       0.00000000       0.00000000       0.00000000       0.00000000       0.00000000   -3266.03320312
Xe       0.00000000       0.00000000       1.06181818       0.00000000       0.00000000    3266.03320312
2
Properties=species:S:1:pos:R:3:forces:R:3 energy=1063.0544237514048 pbc="F F F"
Xe       0.00000000       0.00000000       0.00000000       0.00000000       0.00000000   -3202.45556641
Xe       0.00000000       0.00000000       1.12060606       0.00000000       0.00000000    3202.45556641
2
Properties=species:S:1:pos:R:3:forces:R:3 energy=876.5679759889797 pbc="F F F"
Xe       0.00000000       0.00000000       0.00000000       0.00000000       0.00000000   -3150.30639648
Xe       0.00000000       0.00000000       1.17939394       0.00000000       0.00000000    3150.30639648
2
Properties=species:S:1:pos:R:3:forces:R:3 energy=693.6218731807637 pbc="F F F"
Xe       0.00000000       0.00000000       0.00000000       0.00000000       0.00000000   -3060.92919922
Xe       0.00000000       0.00000000       1.23818182       0.00000000       0.00000000    3060.92919922
2
Properties=species:S:1:pos:R:3:forces:R:3 energy=518.9004416570228 pbc="F F F"
Xe       0.00000000       0.00000000       0.00000000       0.00000000       0.00000000   -2862.91845703
Xe       0.00000000       0.00000000       1.29696970       0.00000000       0.00000000    2862.91845703
2
Properties=species:S:1:pos:R:3:forces:R:3 energy=362.4087780433733 pbc="F F F"
Xe       0.00000000       0.00000000       0.00000000       0.00000000       0.00000000   -2417.95751953
Xe       0.00000000       0.00000000       1.35575758       0.00000000       0.00000000    2417.95751953
2
Properties=species:S:1:pos:R:3:forces:R:3 energy=237.09596398246114 pbc="F F F"
Xe       0.00000000       0.00000000       0.00000000       0.00000000       0.00000000   -1830.70263672
Xe       0.00000000       0.00000000       1.41454545       0.00000000       0.00000000    1830.70263672
2
Properties=species:S:1:pos:R:3:forces:R:3 energy=149.44977743767305 pbc="F F F"
Xe       0.00000000       0.00000000       0.00000000       0.00000000       0.00000000   -1179.01623535
Xe       0.00000000       0.00000000       1.47333333       0.00000000       0.00000000    1179.01623535
2
Properties=species:S:1:pos:R:3:forces:R:3 energy=92.82386403782698 pbc="F F F"
Xe       0.00000000       0.00000000       0.00000000       0.00000000       0.00000000    -754.97753906
Xe       0.00000000       0.00000000       1.53212121       0.00000000       0.00000000     754.97753906
2
Properties=species:S:1:pos:R:3:forces:R:3 energy=58.789982376304465 pbc="F F F"
Xe       0.00000000       0.00000000       0.00000000       0.00000000       0.00000000    -427.05148315
Xe       0.00000000       0.00000000       1.59090909       0.00000000       0.00000000     427.05148315
2
Properties=species:S:1:pos:R:3:forces:R:3 energy=39.73730063155998 pbc="F F F"
Xe       0.00000000       0.00000000       0.00000000       0.00000000       0.00000000    -241.89530945
Xe       0.00000000       0.00000000       1.64969697       0.00000000       0.00000000     241.89530945
2
Properties=species:S:1:pos:R:3:forces:R:3 energy=28.535154402642245 pbc="F F F"
Xe       0.00000000       0.00000000       0.00000000       0.00000000       0.00000000    -149.92347717
Xe       0.00000000       0.00000000       1.70848485       0.00000000       0.00000000     149.92347717
2
Properties=species:S:1:pos:R:3:forces:R:3 energy=21.25578311218629 pbc="F F F"
Xe       0.00000000       0.00000000       0.00000000       0.00000000       0.00000000    -102.38244629
Xe       0.00000000       0.00000000       1.76727273       0.00000000       0.00000000     102.38244629
2
Properties=species:S:1:pos:R:3:forces:R:3 energy=16.130842432242787 pbc="F F F"
Xe       0.00000000       0.00000000       0.00000000       0.00000000       0.00000000     -74.04534149
Xe       0.00000000       0.00000000       1.82606061       0.00000000       0.00000000      74.04534149
2
Properties=species:S:1:pos:R:3:forces:R:3 energy=12.374154382166392 pbc="F F F"
Xe       0.00000000       0.00000000       0.00000000       0.00000000       0.00000000     -54.85846710
Xe       0.00000000       0.00000000       1.88484848       0.00000000       0.00000000      54.85846710
2
Properties=species:S:1:pos:R:3:forces:R:3 energy=9.578144051578178 pbc="F F F"
Xe       0.00000000       0.00000000       0.00000000       0.00000000       0.00000000     -40.97424316
Xe       0.00000000       0.00000000       1.94363636       0.00000000       0.00000000      40.97424316
2
Properties=species:S:1:pos:R:3:forces:R:3 energy=7.485827486894279 pbc="F F F"
Xe       0.00000000       0.00000000       0.00000000       0.00000000       0.00000000     -30.72037125
Xe       0.00000000       0.00000000       2.00242424       0.00000000       0.00000000      30.72037125
2
Properties=species:S:1:pos:R:3:forces:R:3 energy=5.914144897369546 pbc="F F F"
Xe       0.00000000       0.00000000       0.00000000       0.00000000       0.00000000     -23.13025665
Xe       0.00000000       0.00000000       2.06121212       0.00000000       0.00000000      23.13025665
2
Properties=species:S:1:pos:R:3:forces:R:3 energy=4.7275414638369035 pbc="F F F"
Xe       0.00000000       0.00000000       0.00000000       0.00000000       0.00000000     -17.52246857
Xe       0.00000000       0.00000000       2.12000000       0.00000000       0.00000000      17.52246857
2
Properties=species:S:1:pos:R:3:forces:R:3 energy=3.825127340975878 pbc="F F F"
Xe       0.00000000       0.00000000       0.00000000       0.00000000       0.00000000     -13.38858891
Xe       0.00000000       0.00000000       2.17878788       0.00000000       0.00000000      13.38858891
2
Properties=species:S:1:pos:R:3:forces:R:3 energy=3.1320723965301536 pbc="F F F"
Xe       0.00000000       0.00000000       0.00000000       0.00000000       0.00000000     -10.34459591
Xe       0.00000000       0.00000000       2.23757576       0.00000000       0.00000000      10.34459591
2
Properties=species:S:1:pos:R:3:forces:R:3 energy=2.593218751826151 pbc="F F F"
Xe       0.00000000       0.00000000       0.00000000       0.00000000       0.00000000      -8.10084343
Xe       0.00000000       0.00000000       2.29636364       0.00000000       0.00000000       8.10084343
2
Properties=species:S:1:pos:R:3:forces:R:3 energy=2.1682132407333756 pbc="F F F"
Xe       0.00000000       0.00000000       0.00000000       0.00000000       0.00000000      -6.44052505
Xe       0.00000000       0.00000000       2.35515152       0.00000000       0.00000000       6.44052505
2
Properties=species:S:1:pos:R:3:forces:R:3 energy=1.8277111708317442 pbc="F F F"
Xe       0.00000000       0.00000000       0.00000000       0.00000000       0.00000000      -5.20303822
Xe       0.00000000       0.00000000       2.41393939       0.00000000       0.00000000       5.20303822
2
Properties=species:S:1:pos:R:3:forces:R:3 energy=1.5504945802207353 pbc="F F F"
Xe       0.00000000       0.00000000       0.00000000       0.00000000       0.00000000      -4.27097416
Xe       0.00000000       0.00000000       2.47272727       0.00000000       0.00000000       4.27097416
2
Properties=species:S:1:pos:R:3:forces:R:3 energy=1.3212436040121294 pbc="F F F"
Xe       0.00000000       0.00000000       0.00000000       0.00000000       0.00000000      -3.55937839
Xe       0.00000000       0.00000000       2.53151515       0.00000000       0.00000000       3.55937839
2
Properties=species:S:1:pos:R:3:forces:R:3 energy=1.128891379798563 pbc="F F F"
Xe       0.00000000       0.00000000       0.00000000       0.00000000       0.00000000      -3.00698590
Xe       0.00000000       0.00000000       2.59030303       0.00000000       0.00000000       3.00698590
2
Properties=species:S:1:pos:R:3:forces:R:3 energy=0.9654511632927486 pbc="F F F"
Xe       0.00000000       0.00000000       0.00000000       0.00000000       0.00000000      -2.56950974
Xe       0.00000000       0.00000000       2.64909091       0.00000000       0.00000000       2.56950974
2
Properties=species:S:1:pos:R:3:forces:R:3 energy=0.825161923671044 pbc="F F F"
Xe       0.00000000       0.00000000       0.00000000       0.00000000       0.00000000      -2.21484160
Xe       0.00000000       0.00000000       2.70787879       0.00000000       0.00000000       2.21484160
2
Properties=species:S:1:pos:R:3:forces:R:3 energy=0.7038739420629287 pbc="F F F"
Xe       0.00000000       0.00000000       0.00000000       0.00000000       0.00000000      -1.91987109
Xe       0.00000000       0.00000000       2.76666667       0.00000000       0.00000000       1.91987109
2
Properties=species:S:1:pos:R:3:forces:R:3 energy=0.5985833367051984 pbc="F F F"
Xe       0.00000000       0.00000000       0.00000000       0.00000000       0.00000000      -1.66837680
Xe       0.00000000       0.00000000       2.82545455       0.00000000       0.00000000       1.66837680
2
Properties=species:S:1:pos:R:3:forces:R:3 energy=0.5070757337042084 pbc="F F F"
Xe       0.00000000       0.00000000       0.00000000       0.00000000       0.00000000      -1.44951689
Xe       0.00000000       0.00000000       2.88424242       0.00000000       0.00000000       1.44951689
2
Properties=species:S:1:pos:R:3:forces:R:3 energy=0.42764973574618464 pbc="F F F"
Xe       0.00000000       0.00000000       0.00000000       0.00000000       0.00000000      -1.25655150
Xe       0.00000000       0.00000000       2.94303030       0.00000000       0.00000000       1.25655150
2
Properties=species:S:1:pos:R:3:forces:R:3 energy=0.3589056249234167 pbc="F F F"
Xe       0.00000000       0.00000000       0.00000000       0.00000000       0.00000000      -1.08559942
Xe       0.00000000       0.00000000       3.00181818       0.00000000       0.00000000       1.08559942
2
Properties=species:S:1:pos:R:3:forces:R:3 energy=0.2996207839829568 pbc="F F F"
Xe       0.00000000       0.00000000       0.00000000       0.00000000       0.00000000      -0.93449640
Xe       0.00000000       0.00000000       3.06060606       0.00000000       0.00000000       0.93449640
2
Properties=species:S:1:pos:R:3:forces:R:3 energy=0.24867095671497205 pbc="F F F"
Xe       0.00000000       0.00000000       0.00000000       0.00000000       0.00000000      -0.80182111
Xe       0.00000000       0.00000000       3.11939394       0.00000000       0.00000000       0.80182111
2
Properties=species:S:1:pos:R:3:forces:R:3 energy=0.2050101976793956 pbc="F F F"
Xe       0.00000000       0.00000000       0.00000000       0.00000000       0.00000000      -0.68628830
Xe       0.00000000       0.00000000       3.17818182       0.00000000       0.00000000       0.68628830
2
Properties=species:S:1:pos:R:3:forces:R:3 energy=0.1676720871815239 pbc="F F F"
Xe       0.00000000       0.00000000       0.00000000       0.00000000       0.00000000      -0.58647120
Xe       0.00000000       0.00000000       3.23696970       0.00000000       0.00000000       0.58647120
2
Properties=species:S:1:pos:R:3:forces:R:3 energy=0.1357785391502056 pbc="F F F"
Xe       0.00000000       0.00000000       0.00000000       0.00000000       0.00000000      -0.50077170
Xe       0.00000000       0.00000000       3.29575758       0.00000000       0.00000000       0.50077170
2
Properties=species:S:1:pos:R:3:forces:R:3 energy=0.10854968002373683 pbc="F F F"
Xe       0.00000000       0.00000000       0.00000000       0.00000000       0.00000000      -0.42751205
Xe       0.00000000       0.00000000       3.35454545       0.00000000       0.00000000       0.42751205
2
Properties=species:S:1:pos:R:3:forces:R:3 energy=0.08530241765441068 pbc="F F F"
Xe       0.00000000       0.00000000       0.00000000       0.00000000       0.00000000      -0.36503413
Xe       0.00000000       0.00000000       3.41333333       0.00000000       0.00000000       0.36503413
2
Properties=species:S:1:pos:R:3:forces:R:3 energy=0.06544943917891899 pbc="F F F"
Xe       0.00000000       0.00000000       0.00000000       0.00000000       0.00000000      -0.31178850
Xe       0.00000000       0.00000000       3.47212121       0.00000000       0.00000000       0.31178850
2
Properties=species:S:1:pos:R:3:forces:R:3 energy=0.0484903811423954 pbc="F F F"
Xe       0.00000000       0.00000000       0.00000000       0.00000000       0.00000000      -0.26637557
Xe       0.00000000       0.00000000       3.53090909       0.00000000       0.00000000       0.26637557
2
Properties=species:S:1:pos:R:3:forces:R:3 energy=0.03400104399553073 pbc="F F F"
Xe       0.00000000       0.00000000       0.00000000       0.00000000       0.00000000      -0.22756018
Xe       0.00000000       0.00000000       3.58969697       0.00000000       0.00000000       0.22756018
2
Properties=species:S:1:pos:R:3:forces:R:3 energy=0.02162630119473046 pbc="F F F"
Xe       0.00000000       0.00000000       0.00000000       0.00000000       0.00000000      -0.19428082
Xe       0.00000000       0.00000000       3.64848485       0.00000000       0.00000000       0.19428082
2
Properties=species:S:1:pos:R:3:forces:R:3 energy=0.011067866994671202 pbc="F F F"
Xe       0.00000000       0.00000000       0.00000000       0.00000000       0.00000000      -0.16562922
Xe       0.00000000       0.00000000       3.70727273       0.00000000       0.00000000       0.16562922
2
Properties=species:S:1:pos:R:3:forces:R:3 energy=0.0020765955387988602 pbc="F F F"
Xe       0.00000000       0.00000000       0.00000000       0.00000000       0.00000000      -0.14084233
Xe       0.00000000       0.00000000       3.76606061       0.00000000       0.00000000       0.14084233
2
Properties=species:S:1:pos:R:3:forces:R:3 energy=-0.005555064919665564 pbc="F F F"
Xe       0.00000000       0.00000000       0.00000000       0.00000000       0.00000000      -0.11928561
Xe       0.00000000       0.00000000       3.82484848       0.00000000       0.00000000       0.11928561
2
Properties=species:S:1:pos:R:3:forces:R:3 energy=-0.012001564538162236 pbc="F F F"
Xe       0.00000000       0.00000000       0.00000000       0.00000000       0.00000000      -0.10043879
Xe       0.00000000       0.00000000       3.88363636       0.00000000       0.00000000       0.10043879
2
Properties=species:S:1:pos:R:3:forces:R:3 energy=-0.017409152694420865 pbc="F F F"
Xe       0.00000000       0.00000000       0.00000000       0.00000000       0.00000000      -0.08388485
Xe       0.00000000       0.00000000       3.94242424       0.00000000       0.00000000       0.08388485
2
Properties=species:S:1:pos:R:3:forces:R:3 energy=-0.021902677906670526 pbc="F F F"
Xe       0.00000000       0.00000000       0.00000000       0.00000000       0.00000000      -0.06929489
Xe       0.00000000       0.00000000       4.00121212       0.00000000       0.00000000       0.06929489
2
Properties=species:S:1:pos:R:3:forces:R:3 energy=-0.025589977327293623 pbc="F F F"
Xe       0.00000000       0.00000000       0.00000000       0.00000000       0.00000000      -0.05641603
Xe       0.00000000       0.00000000       4.06000000       0.00000000       0.00000000       0.05641603
2
Properties=species:S:1:pos:R:3:forces:R:3 energy=-0.02856558335365709 pbc="F F F"
Xe       0.00000000       0.00000000       0.00000000       0.00000000       0.00000000      -0.04505714
Xe       0.00000000       0.00000000       4.11878788       0.00000000       0.00000000       0.04505714
2
Properties=species:S:1:pos:R:3:forces:R:3 energy=-0.030914539977901546 pbc="F F F"
Xe       0.00000000       0.00000000       0.00000000       0.00000000       0.00000000      -0.03507102
Xe       0.00000000       0.00000000       4.17757576       0.00000000       0.00000000       0.03507102
2
Properties=species:S:1:pos:R:3:forces:R:3 energy=-0.03271382160718145 pbc="F F F"
Xe       0.00000000       0.00000000       0.00000000       0.00000000       0.00000000      -0.02634227
Xe       0.00000000       0.00000000       4.23636364       0.00000000       0.00000000       0.02634227
2
Properties=species:S:1:pos:R:3:forces:R:3 energy=-0.0340345043925455 pbc="F F F"
Xe       0.00000000       0.00000000       0.00000000       0.00000000       0.00000000      -0.01877258
Xe       0.00000000       0.00000000       4.29515152       0.00000000       0.00000000       0.01877258
2
Properties=species:S:1:pos:R:3:forces:R:3 energy=-0.03494191781776777 pbc="F F F"
Xe       0.00000000       0.00000000       0.00000000       0.00000000       0.00000000      -0.01227164
Xe       0.00000000       0.00000000       4.35393939       0.00000000       0.00000000       0.01227164
2
Properties=species:S:1:pos:R:3:forces:R:3 energy=-0.03549648208231322 pbc="F F F"
Xe       0.00000000       0.00000000       0.00000000       0.00000000       0.00000000      -0.00675064
Xe       0.00000000       0.00000000       4.41272727       0.00000000       0.00000000       0.00675064
2
Properties=species:S:1:pos:R:3:forces:R:3 energy=-0.035753134672111886 pbc="F F F"
Xe       0.00000000       0.00000000       0.00000000       0.00000000       0.00000000      -0.00212142
Xe       0.00000000       0.00000000       4.47151515       0.00000000       0.00000000       0.00212142
2
Properties=species:S:1:pos:R:3:forces:R:3 energy=-0.035761709361457956 pbc="F F F"
Xe       0.00000000       0.00000000       0.00000000       0.00000000       0.00000000       0.00170406
Xe       0.00000000       0.00000000       4.53030303       0.00000000       0.00000000      -0.00170406
2
Properties=species:S:1:pos:R:3:forces:R:3 energy=-0.03556680664417061 pbc="F F F"
Xe       0.00000000       0.00000000       0.00000000       0.00000000       0.00000000       0.00481305
Xe       0.00000000       0.00000000       4.58909091       0.00000000       0.00000000      -0.00481305
2
Properties=species:S:1:pos:R:3:forces:R:3 energy=-0.035208152476399024 pbc="F F F"
Xe       0.00000000       0.00000000       0.00000000       0.00000000       0.00000000       0.00729085
Xe       0.00000000       0.00000000       4.64787879       0.00000000       0.00000000      -0.00729085
2
Properties=species:S:1:pos:R:3:forces:R:3 energy=-0.03472033058005411 pbc="F F F"
Xe       0.00000000       0.00000000       0.00000000       0.00000000       0.00000000       0.00922107
Xe       0.00000000       0.00000000       4.70666667       0.00000000       0.00000000      -0.00922107
2
Properties=species:S:1:pos:R:3:forces:R:3 energy=-0.03413310739914768 pbc="F F F"
Xe       0.00000000       0.00000000       0.00000000       0.00000000       0.00000000       0.01068462
Xe       0.00000000       0.00000000       4.76545455       0.00000000       0.00000000      -0.01068462
2
Properties=species:S:1:pos:R:3:forces:R:3 energy=-0.03347170152412357 pbc="F F F"
Xe       0.00000000       0.00000000       0.00000000       0.00000000       0.00000000       0.01175876
Xe       0.00000000       0.00000000       4.82424242       0.00000000       0.00000000      -0.01175876
2
Properties=species:S:1:pos:R:3:forces:R:3 energy=-0.03275686585173887 pbc="F F F"
Xe       0.00000000       0.00000000       0.00000000       0.00000000       0.00000000       0.01251061
Xe       0.00000000       0.00000000       4.88303030       0.00000000       0.00000000      -0.01251061
2
Properties=species:S:1:pos:R:3:forces:R:3 energy=-0.032006032731349304 pbc="F F F"
Xe       0.00000000       0.00000000       0.00000000       0.00000000       0.00000000       0.01299160
Xe       0.00000000       0.00000000       4.94181818       0.00000000       0.00000000      -0.01299160
2
Properties=species:S:1:pos:R:3:forces:R:3 energy=-0.03123417555991899 pbc="F F F"
Xe       0.00000000       0.00000000       0.00000000       0.00000000       0.00000000       0.01322683
Xe       0.00000000       0.00000000       5.00060606       0.00000000       0.00000000      -0.01322683
2
Properties=species:S:1:pos:R:3:forces:R:3 energy=-0.030455689288173472 pbc="F F F"
Xe       0.00000000       0.00000000       0.00000000       0.00000000       0.00000000       0.01321566
Xe       0.00000000       0.00000000       5.05939394       0.00000000       0.00000000      -0.01321566
2
Properties=species:S:1:pos:R:3:forces:R:3 energy=-0.02968551871458544 pbc="F F F"
Xe       0.00000000       0.00000000       0.00000000       0.00000000       0.00000000       0.01294082
Xe       0.00000000       0.00000000       5.11818182       0.00000000       0.00000000      -0.01294082
2
Properties=species:S:1:pos:R:3:forces:R:3 energy=-0.02893955656047635 pbc="F F F"
Xe       0.00000000       0.00000000       0.00000000       0.00000000       0.00000000       0.01239183
Xe       0.00000000       0.00000000       5.17696970       0.00000000       0.00000000      -0.01239183
2
Properties=species:S:1:pos:R:3:forces:R:3 energy=-0.028233590310059495 pbc="F F F"
Xe       0.00000000       0.00000000       0.00000000       0.00000000       0.00000000       0.01158617
Xe       0.00000000       0.00000000       5.23575758       0.00000000       0.00000000      -0.01158617
2
Properties=species:S:1:pos:R:3:forces:R:3 energy=-0.027581407152614357 pbc="F F F"
Xe       0.00000000       0.00000000       0.00000000       0.00000000       0.00000000       0.01057170
Xe       0.00000000       0.00000000       5.29454545       0.00000000       0.00000000      -0.01057170
2
Properties=species:S:1:pos:R:3:forces:R:3 energy=-0.026993223856634337 pbc="F F F"
Xe       0.00000000       0.00000000       0.00000000       0.00000000       0.00000000       0.00942744
Xe       0.00000000       0.00000000       5.35333333       0.00000000       0.00000000      -0.00942744
2
Properties=species:S:1:pos:R:3:forces:R:3 energy=-0.02647167221206202 pbc="F F F"
Xe       0.00000000       0.00000000       0.00000000       0.00000000       0.00000000       0.00835977
Xe       0.00000000       0.00000000       5.41212121       0.00000000       0.00000000      -0.00835977
2
Properties=species:S:1:pos:R:3:forces:R:3 energy=-0.026000263447646523 pbc="F F F"
Xe       0.00000000       0.00000000       0.00000000       0.00000000       0.00000000       0.00779594
Xe       0.00000000       0.00000000       5.47090909       0.00000000       0.00000000      -0.00779594
2
Properties=species:S:1:pos:R:3:forces:R:3 energy=-0.025542923520859698 pbc="F F F"
Xe       0.00000000       0.00000000       0.00000000       0.00000000       0.00000000       0.00781272
Xe       0.00000000       0.00000000       5.52969697       0.00000000       0.00000000      -0.00781272
2
Properties=species:S:1:pos:R:3:forces:R:3 energy=-0.02508415426917415 pbc="F F F"
Xe       0.00000000       0.00000000       0.00000000       0.00000000       0.00000000       0.00772964
Xe       0.00000000       0.00000000       5.58848485       0.00000000       0.00000000      -0.00772964
2
Properties=species:S:1:pos:R:3:forces:R:3 energy=-0.024639997129652327 pbc="F F F"
Xe       0.00000000       0.00000000       0.00000000       0.00000000       0.00000000       0.00737717
Xe       0.00000000       0.00000000       5.64727273       0.00000000       0.00000000      -0.00737717
2
Properties=species:S:1:pos:R:3:forces:R:3 energy=-0.024209357526964514 pbc="F F F"
Xe       0.00000000       0.00000000       0.00000000       0.00000000       0.00000000       0.00739892
Xe       0.00000000       0.00000000       5.70606061       0.00000000       0.00000000      -0.00739892
2
Properties=species:S:1:pos:R:3:forces:R:3 energy=-0.023754031112242415 pbc="F F F"
Xe       0.00000000       0.00000000       0.00000000       0.00000000       0.00000000       0.00816018
Xe       0.00000000       0.00000000       5.76484848       0.00000000       0.00000000      -0.00816018
2
Properties=species:S:1:pos:R:3:forces:R:3 energy=-0.023258762893270966 pbc="F F F"
Xe       0.00000000       0.00000000       0.00000000       0.00000000       0.00000000       0.00847495
Xe       0.00000000       0.00000000       5.82363636       0.00000000       0.00000000      -0.00847495
2
Properties=species:S:1:pos:R:3:forces:R:3 energy=-0.02278818152083157 pbc="F F F"
Xe       0.00000000       0.00000000       0.00000000       0.00000000       0.00000000       0.00735209
Xe       0.00000000       0.00000000       5.88242424       0.00000000       0.00000000      -0.00735209
2
Properties=species:S:1:pos:R:3:forces:R:3 energy=-0.022403628983974022 pbc="F F F"
Xe       0.00000000       0.00000000       0.00000000       0.00000000       0.00000000       0.00576082
Xe       0.00000000       0.00000000       5.94121212       0.00000000       0.00000000      -0.00576082
2
Properties=species:S:1:pos:R:3:forces:R:3 energy=-0.02209562274055956 pbc="F F F"
Xe       0.00000000       0.00000000       0.00000000       0.00000000       0.00000000       0.00489970
Xe       0.00000000       0.00000000       6.00000000       0.00000000       0.00000000      -0.00489970
