2
Properties=species:S:1:pos:R:3:forces:R:3 energy=20749.034964235285 pbc="F F F"
Ga       0.00000000       0.00000000       0.00000000       0.00000000       0.00000000 -473547.15625000
Ga       0.00000000       0.00000000       0.10000000       0.00000000       0.00000000  473547.15625000
2
Properties=species:S:1:pos:R:3:forces:R:3 energy=6466.761038454033 pbc="F F F"
Ga       0.00000000       0.00000000       0.00000000       0.00000000       0.00000000 -109978.89062500
Ga       0.00000000       0.00000000       0.15959596       0.00000000       0.00000000  109978.89062500
2
Properties=species:S:1:pos:R:3:forces:R:3 energy=2596.4500032977835 pbc="F F F"
Ga       0.00000000       0.00000000       0.00000000       0.00000000       0.00000000  -36068.12890625
Ga       0.00000000       0.00000000       0.21919192       0.00000000       0.00000000   36068.12890625
2
Properties=species:S:1:pos:R:3:forces:R:3 energy=1207.2090365009085 pbc="F F F"
Ga       0.00000000       0.00000000       0.00000000       0.00000000       0.00000000  -14410.08593750
Ga       0.00000000       0.00000000       0.27878788       0.00000000       0.00000000   14410.08593750
2
Properties=species:S:1:pos:R:3:forces:R:3 energy=619.6033846486075 pbc="F F F"
Ga       0.00000000       0.00000000       0.00000000       0.00000000       0.00000000   -6504.22314453
Ga       0.00000000       0.00000000       0.33838384       0.00000000       0.00000000    6504.22314453
2
Properties=species:S:1:pos:R:3:forces:R:3 energy=344.39314905924005 pbc="F F F"
Ga       0.00000000       0.00000000       0.00000000       0.00000000       0.00000000   -3174.46875000
Ga       0.00000000       0.00000000       0.39797980       0.00000000       0.00000000    3174.46875000
2
Properties=species:S:1:pos:R:3:forces:R:3 energy=206.73451869448195 pbc="F F F"
Ga       0.00000000       0.00000000       0.00000000       0.00000000       0.00000000   -1631.25048828
Ga       0.00000000       0.00000000       0.45757576       0.00000000       0.00000000    1631.25048828
2
Properties=species:S:1:pos:R:3:forces:R:3 energy=134.80867642833263 pbc="F F F"
Ga       0.00000000       0.00000000       0.00000000       0.00000000       0.00000000    -868.31457520
Ga       0.00000000       0.00000000       0.51717172       0.00000000       0.00000000     868.31457520
2
Properties=species:S:1:pos:R:3:forces:R:3 energy=95.97047302983509 pbc="F F F"
Ga       0.00000000       0.00000000       0.00000000       0.00000000       0.00000000    -478.04037476
Ga       0.00000000       0.00000000       0.57676768       0.00000000       0.00000000     478.04037476
2
Properties=species:S:1:pos:R:3:forces:R:3 energy=74.07515600921917 pbc="F F F"
Ga       0.00000000       0.00000000       0.00000000       0.00000000       0.00000000    -279.53729248
Ga       0.00000000       0.00000000       0.63636364       0.00000000       0.00000000     279.53729248
2
Properties=species:S:1:pos:R:3:forces:R:3 energy=60.68344773023039 pbc="F F F"
Ga       0.00000000       0.00000000       0.00000000       0.00000000       0.00000000    -180.80552673
Ga       0.00000000       0.00000000       0.69595960       0.00000000       0.00000000     180.80552673
2
Properties=species:S:1:pos:R:3:forces:R:3 energy=51.77921965916535 pbc="F F F"
Ga       0.00000000       0.00000000       0.00000000       0.00000000       0.00000000    -121.41340637
Ga       0.00000000       0.00000000       0.75555556       0.00000000       0.00000000     121.41340637
2
Properties=species:S:1:pos:R:3:forces:R:3 energy=45.601649522056206 pbc="F F F"
Ga       0.00000000       0.00000000       0.00000000       0.00000000       0.00000000     -93.95929718
Ga       0.00000000       0.00000000       0.81515152       0.00000000       0.00000000      93.95929718
2
Properties=species:S:1:pos:R:3:forces:R:3 energy=39.69216877441533 pbc="F F F"
Ga       0.00000000       0.00000000       0.00000000       0.00000000       0.00000000    -108.65456390
Ga       0.00000000       0.00000000       0.87474747       0.00000000       0.00000000     108.65456390
2
Properties=species:S:1:pos:R:3:forces:R:3 energy=32.581386575612484 pbc="F F F"
Ga       0.00000000       0.00000000       0.00000000       0.00000000       0.00000000    -127.64865112
Ga       0.00000000       0.00000000       0.93434343       0.00000000       0.00000000     127.64865112
2
Properties=species:S:1:pos:R:3:forces:R:3 energy=24.927195194002206 pbc="F F F"
Ga       0.00000000       0.00000000       0.00000000       0.00000000       0.00000000    -124.98490906
Ga       0.00000000       0.00000000       0.99393939       0.00000000       0.00000000     124.98490906
2
Properties=species:S:1:pos:R:3:forces:R:3 energy=18.098910775008232 pbc="F F F"
Ga       0.00000000       0.00000000       0.00000000       0.00000000       0.00000000    -101.93901062
Ga       0.00000000       0.00000000       1.05353535       0.00000000       0.00000000     101.93901062
2
Properties=species:S:1:pos:R:3:forces:R:3 energy=12.87403639559784 pbc="F F F"
Ga       0.00000000       0.00000000       0.00000000       0.00000000       0.00000000     -73.80761719
Ga       0.00000000       0.00000000       1.11313131       0.00000000       0.00000000      73.80761719
2
Properties=species:S:1:pos:R:3:forces:R:3 energy=9.172265112291537 pbc="F F F"
Ga       0.00000000       0.00000000       0.00000000       0.00000000       0.00000000     -51.76250076
Ga       0.00000000       0.00000000       1.17272727       0.00000000       0.00000000      51.76250076
2
Properties=species:S:1:pos:R:3:forces:R:3 energy=6.572011457111195 pbc="F F F"
Ga       0.00000000       0.00000000       0.00000000       0.00000000       0.00000000     -36.32569122
Ga       0.00000000       0.00000000       1.23232323       0.00000000       0.00000000      36.32569122
2
Properties=species:S:1:pos:R:3:forces:R:3 energy=4.752687886883374 pbc="F F F"
Ga       0.00000000       0.00000000       0.00000000       0.00000000       0.00000000     -25.46488762
Ga       0.00000000       0.00000000       1.29191919       0.00000000       0.00000000      25.46488762
2
Properties=species:S:1:pos:R:3:forces:R:3 energy=3.4625779050479597 pbc="F F F"
Ga       0.00000000       0.00000000       0.00000000       0.00000000       0.00000000     -18.33169746
Ga       0.00000000       0.00000000       1.35151515       0.00000000       0.00000000      18.33169746
2
Properties=species:S:1:pos:R:3:forces:R:3 energy=2.5157728407469415 pbc="F F F"
Ga       0.00000000       0.00000000       0.00000000       0.00000000       0.00000000     -13.82500648
Ga       0.00000000       0.00000000       1.41111111       0.00000000       0.00000000      13.82500648
2
Properties=species:S:1:pos:R:3:forces:R:3 energy=1.7777021472311303 pbc="F F F"
Ga       0.00000000       0.00000000       0.00000000       0.00000000       0.00000000     -11.17371941
Ga       0.00000000       0.00000000       1.47070707       0.00000000       0.00000000      11.17371941
2
Properties=species:S:1:pos:R:3:forces:R:3 energy=1.1654043265614449 pbc="F F F"
Ga       0.00000000       0.00000000       0.00000000       0.00000000       0.00000000      -9.47095394
Ga       0.00000000       0.00000000       1.53030303       0.00000000       0.00000000       9.47095394
2
Properties=species:S:1:pos:R:3:forces:R:3 energy=0.6414589351843747 pbc="F F F"
Ga       0.00000000       0.00000000       0.00000000       0.00000000       0.00000000      -8.15438080
Ga       0.00000000       0.00000000       1.58989899       0.00000000       0.00000000       8.15438080
2
Properties=species:S:1:pos:R:3:forces:R:3 energy=0.18906981960974317 pbc="F F F"
Ga       0.00000000       0.00000000       0.00000000       0.00000000       0.00000000      -7.06376266
Ga       0.00000000       0.00000000       1.64949495       0.00000000       0.00000000       7.06376266
2
Properties=species:S:1:pos:R:3:forces:R:3 energy=-0.204858738491036 pbc="F F F"
Ga       0.00000000       0.00000000       0.00000000       0.00000000       0.00000000      -6.19137812
Ga       0.00000000       0.00000000       1.70909091       0.00000000       0.00000000       6.19137812
2
Properties=species:S:1:pos:R:3:forces:R:3 energy=-0.5524997743776038 pbc="F F F"
Ga       0.00000000       0.00000000       0.00000000       0.00000000       0.00000000      -5.49916363
Ga       0.00000000       0.00000000       1.76868687       0.00000000       0.00000000       5.49916363
2
Properties=species:S:1:pos:R:3:forces:R:3 energy=-0.8624151563149752 pbc="F F F"
Ga       0.00000000       0.00000000       0.00000000       0.00000000       0.00000000      -4.91347742
Ga       0.00000000       0.00000000       1.82828283       0.00000000       0.00000000       4.91347742
2
Properties=species:S:1:pos:R:3:forces:R:3 energy=-1.1391422443690848 pbc="F F F"
Ga       0.00000000       0.00000000       0.00000000       0.00000000       0.00000000      -4.37886429
Ga       0.00000000       0.00000000       1.88787879       0.00000000       0.00000000       4.37886429
2
Properties=species:S:1:pos:R:3:forces:R:3 energy=-1.3847719101219507 pbc="F F F"
Ga       0.00000000       0.00000000       0.00000000       0.00000000       0.00000000      -3.86644077
Ga       0.00000000       0.00000000       1.94747475       0.00000000       0.00000000       3.86644077
2
Properties=species:S:1:pos:R:3:forces:R:3 energy=-1.6001282703989101 pbc="F F F"
Ga       0.00000000       0.00000000       0.00000000       0.00000000       0.00000000      -3.36139250
Ga       0.00000000       0.00000000       2.00707071       0.00000000       0.00000000       3.36139250
2
Properties=species:S:1:pos:R:3:forces:R:3 energy=-1.7855053606643085 pbc="F F F"
Ga       0.00000000       0.00000000       0.00000000       0.00000000       0.00000000      -2.86095119
Ga       0.00000000       0.00000000       2.06666667       0.00000000       0.00000000       2.86095119
2
Properties=species:S:1:pos:R:3:forces:R:3 energy=-1.9413727854915044 pbc="F F F"
Ga       0.00000000       0.00000000       0.00000000       0.00000000       0.00000000      -2.37284636
Ga       0.00000000       0.00000000       2.12626263       0.00000000       0.00000000       2.37284636
2
Properties=species:S:1:pos:R:3:forces:R:3 energy=-2.0688306984074782 pbc="F F F"
Ga       0.00000000       0.00000000       0.00000000       0.00000000       0.00000000      -1.90998554
Ga       0.00000000       0.00000000       2.18585859       0.00000000       0.00000000       1.90998554
2
Properties=species:S:1:pos:R:3:forces:R:3 energy=-2.169834785836212 pbc="F F F"
Ga       0.00000000       0.00000000       0.00000000       0.00000000       0.00000000      -1.48779452
Ga       0.00000000       0.00000000       2.24545455       0.00000000       0.00000000       1.48779452
2
Properties=species:S:1:pos:R:3:forces:R:3 energy=-2.247292583036952 pbc="F F F"
Ga       0.00000000       0.00000000       0.00000000       0.00000000       0.00000000      -1.12225497
Ga       0.00000000       0.00000000       2.30505051       0.00000000       0.00000000       1.12225497
2
Properties=species:S:1:pos:R:3:forces:R:3 energy=-2.304946352729155 pbc="F F F"
Ga       0.00000000       0.00000000       0.00000000       0.00000000       0.00000000      -0.82418907
Ga       0.00000000       0.00000000       2.36464646       0.00000000       0.00000000       0.82418907
2
Properties=species:S:1:pos:R:3:forces:R:3 energy=-2.34686943617952 pbc="F F F"
Ga       0.00000000       0.00000000       0.00000000       0.00000000       0.00000000      -0.59315825
Ga       0.00000000       0.00000000       2.42424242       0.00000000       0.00000000       0.59315825
2
Properties=species:S:1:pos:R:3:forces:R:3 energy=-2.3767303485789792 pbc="F F F"
Ga       0.00000000       0.00000000       0.00000000       0.00000000       0.00000000      -0.41641203
Ga       0.00000000       0.00000000       2.48383838       0.00000000       0.00000000       0.41641203
2
Properties=species:S:1:pos:R:3:forces:R:3 energy=-2.397176736440455 pbc="F F F"
Ga       0.00000000       0.00000000       0.00000000       0.00000000       0.00000000      -0.27357021
Ga       0.00000000       0.00000000       2.54343434       0.00000000       0.00000000       0.27357021
2
Properties=species:S:1:pos:R:3:forces:R:3 energy=-2.4095887165717143 pbc="F F F"
Ga       0.00000000       0.00000000       0.00000000       0.00000000       0.00000000      -0.14356244
Ga       0.00000000       0.00000000       2.60303030       0.00000000       0.00000000       0.14356244
2
Properties=species:S:1:pos:R:3:forces:R:3 energy=-2.4142201137572443 pbc="F F F"
Ga       0.00000000       0.00000000       0.00000000       0.00000000       0.00000000      -0.01041910
Ga       0.00000000       0.00000000       2.66262626       0.00000000       0.00000000       0.01041910
2
Properties=species:S:1:pos:R:3:forces:R:3 energy=-2.410610910277943 pbc="F F F"
Ga       0.00000000       0.00000000       0.00000000       0.00000000       0.00000000       0.13348022
Ga       0.00000000       0.00000000       2.72222222       0.00000000       0.00000000      -0.13348022
2
Properties=species:S:1:pos:R:3:forces:R:3 energy=-2.3981114749312926 pbc="F F F"
Ga       0.00000000       0.00000000       0.00000000       0.00000000       0.00000000       0.28718483
Ga       0.00000000       0.00000000       2.78181818       0.00000000       0.00000000      -0.28718483
2
Properties=species:S:1:pos:R:3:forces:R:3 energy=-2.3763190498221634 pbc="F F F"
Ga       0.00000000       0.00000000       0.00000000       0.00000000       0.00000000       0.44393799
Ga       0.00000000       0.00000000       2.84141414       0.00000000       0.00000000      -0.44393799
2
Properties=species:S:1:pos:R:3:forces:R:3 energy=-2.3452947786551563 pbc="F F F"
Ga       0.00000000       0.00000000       0.00000000       0.00000000       0.00000000       0.59594005
Ga       0.00000000       0.00000000       2.90101010       0.00000000       0.00000000      -0.59594005
2
Properties=species:S:1:pos:R:3:forces:R:3 energy=-2.305477441691644 pbc="F F F"
Ga       0.00000000       0.00000000       0.00000000       0.00000000       0.00000000       0.73852497
Ga       0.00000000       0.00000000       2.96060606       0.00000000       0.00000000      -0.73852497
2
Properties=species:S:1:pos:R:3:forces:R:3 energy=-2.2574884094700645 pbc="F F F"
Ga       0.00000000       0.00000000       0.00000000       0.00000000       0.00000000       0.86998057
Ga       0.00000000       0.00000000       3.02020202       0.00000000       0.00000000      -0.86998057
2
Properties=species:S:1:pos:R:3:forces:R:3 energy=-2.2020521962159836 pbc="F F F"
Ga       0.00000000       0.00000000       0.00000000       0.00000000       0.00000000       0.98780012
Ga       0.00000000       0.00000000       3.07979798       0.00000000       0.00000000      -0.98780012
2
Properties=species:S:1:pos:R:3:forces:R:3 energy=-2.140101426020993 pbc="F F F"
Ga       0.00000000       0.00000000       0.00000000       0.00000000       0.00000000       1.08799016
Ga       0.00000000       0.00000000       3.13939394       0.00000000       0.00000000      -1.08799016
2
Properties=species:S:1:pos:R:3:forces:R:3 energy=-2.0727858151586465 pbc="F F F"
Ga       0.00000000       0.00000000       0.00000000       0.00000000       0.00000000       1.16745663
Ga       0.00000000       0.00000000       3.19898990       0.00000000       0.00000000      -1.16745663
2
Properties=species:S:1:pos:R:3:forces:R:3 energy=-2.0013860356107394 pbc="F F F"
Ga       0.00000000       0.00000000       0.00000000       0.00000000       0.00000000       1.22502577
Ga       0.00000000       0.00000000       3.25858586       0.00000000       0.00000000      -1.22502577
2
Properties=species:S:1:pos:R:3:forces:R:3 energy=-1.9271978735799304 pbc="F F F"
Ga       0.00000000       0.00000000       0.00000000       0.00000000       0.00000000       1.26125562
Ga       0.00000000       0.00000000       3.31818182       0.00000000       0.00000000      -1.26125562
2
Properties=species:S:1:pos:R:3:forces:R:3 energy=-1.8514404630691377 pbc="F F F"
Ga       0.00000000       0.00000000       0.00000000       0.00000000       0.00000000       1.27812088
Ga       0.00000000       0.00000000       3.37777778       0.00000000       0.00000000      -1.27812088
2
Properties=species:S:1:pos:R:3:forces:R:3 energy=-1.7751831274080854 pbc="F F F"
Ga       0.00000000       0.00000000       0.00000000       0.00000000       0.00000000       1.27855873
Ga       0.00000000       0.00000000       3.43737374       0.00000000       0.00000000      -1.27855873
2
Properties=species:S:1:pos:R:3:forces:R:3 energy=-1.6993066507781778 pbc="F F F"
Ga       0.00000000       0.00000000       0.00000000       0.00000000       0.00000000       1.26586497
Ga       0.00000000       0.00000000       3.49696970       0.00000000       0.00000000      -1.26586497
2
Properties=species:S:1:pos:R:3:forces:R:3 energy=-1.6245017955445522 pbc="F F F"
Ga       0.00000000       0.00000000       0.00000000       0.00000000       0.00000000       1.24307740
Ga       0.00000000       0.00000000       3.55656566       0.00000000       0.00000000      -1.24307740
2
Properties=species:S:1:pos:R:3:forces:R:3 energy=-1.551295496973927 pbc="F F F"
Ga       0.00000000       0.00000000       0.00000000       0.00000000       0.00000000       1.21256602
Ga       0.00000000       0.00000000       3.61616162       0.00000000       0.00000000      -1.21256602
2
Properties=species:S:1:pos:R:3:forces:R:3 energy=-1.4800961672765893 pbc="F F F"
Ga       0.00000000       0.00000000       0.00000000       0.00000000       0.00000000       1.17589045
Ga       0.00000000       0.00000000       3.67575758       0.00000000       0.00000000      -1.17589045
2
Properties=species:S:1:pos:R:3:forces:R:3 energy=-1.4112435142581596 pbc="F F F"
Ga       0.00000000       0.00000000       0.00000000       0.00000000       0.00000000       1.13389361
Ga       0.00000000       0.00000000       3.73535354       0.00000000       0.00000000      -1.13389361
2
Properties=species:S:1:pos:R:3:forces:R:3 energy=-1.3450438362768804 pbc="F F F"
Ga       0.00000000       0.00000000       0.00000000       0.00000000       0.00000000       1.08689892
Ga       0.00000000       0.00000000       3.79494949       0.00000000       0.00000000      -1.08689892
2
Properties=species:S:1:pos:R:3:forces:R:3 energy=-1.2817926680088905 pbc="F F F"
Ga       0.00000000       0.00000000       0.00000000       0.00000000       0.00000000       1.03492737
Ga       0.00000000       0.00000000       3.85454545       0.00000000       0.00000000      -1.03492737
2
Properties=species:S:1:pos:R:3:forces:R:3 energy=-1.2217892978070564 pbc="F F F"
Ga       0.00000000       0.00000000       0.00000000       0.00000000       0.00000000       0.97789800
Ga       0.00000000       0.00000000       3.91414141       0.00000000       0.00000000      -0.97789800
2
Properties=species:S:1:pos:R:3:forces:R:3 energy=-1.1653361106339841 pbc="F F F"
Ga       0.00000000       0.00000000       0.00000000       0.00000000       0.00000000       0.91577339
Ga       0.00000000       0.00000000       3.97373737       0.00000000       0.00000000      -0.91577339
2
Properties=species:S:1:pos:R:3:forces:R:3 energy=-1.112734673162398 pbc="F F F"
Ga       0.00000000       0.00000000       0.00000000       0.00000000       0.00000000       0.84872800
Ga       0.00000000       0.00000000       4.03333333       0.00000000       0.00000000      -0.84872800
2
Properties=species:S:1:pos:R:3:forces:R:3 energy=-1.064262940626211 pbc="F F F"
Ga       0.00000000       0.00000000       0.00000000       0.00000000       0.00000000       0.77728623
Ga       0.00000000       0.00000000       4.09292929       0.00000000       0.00000000      -0.77728623
2
Properties=species:S:1:pos:R:3:forces:R:3 energy=-1.0201556468923934 pbc="F F F"
Ga       0.00000000       0.00000000       0.00000000       0.00000000       0.00000000       0.70245582
Ga       0.00000000       0.00000000       4.15252525       0.00000000       0.00000000      -0.70245582
2
Properties=species:S:1:pos:R:3:forces:R:3 energy=-0.9805728332085317 pbc="F F F"
Ga       0.00000000       0.00000000       0.00000000       0.00000000       0.00000000       0.62577832
Ga       0.00000000       0.00000000       4.21212121       0.00000000       0.00000000      -0.62577832
2
Properties=species:S:1:pos:R:3:forces:R:3 energy=-0.9455651703868821 pbc="F F F"
Ga       0.00000000       0.00000000       0.00000000       0.00000000       0.00000000       0.54924899
Ga       0.00000000       0.00000000       4.27171717       0.00000000       0.00000000      -0.54924899
2
Properties=species:S:1:pos:R:3:forces:R:3 energy=-0.9150582606080389 pbc="F F F"
Ga       0.00000000       0.00000000       0.00000000       0.00000000       0.00000000       0.47516048
Ga       0.00000000       0.00000000       4.33131313       0.00000000       0.00000000      -0.47516048
2
Properties=species:S:1:pos:R:3:forces:R:3 energy=-0.8888355524786634 pbc="F F F"
Ga       0.00000000       0.00000000       0.00000000       0.00000000       0.00000000       0.40583581
Ga       0.00000000       0.00000000       4.39090909       0.00000000       0.00000000      -0.40583581
2
Properties=species:S:1:pos:R:3:forces:R:3 energy=-0.8665484378070999 pbc="F F F"
Ga       0.00000000       0.00000000       0.00000000       0.00000000       0.00000000       0.34339920
Ga       0.00000000       0.00000000       4.45050505       0.00000000       0.00000000      -0.34339920
2
Properties=species:S:1:pos:R:3:forces:R:3 energy=-0.8477339167529844 pbc="F F F"
Ga       0.00000000       0.00000000       0.00000000       0.00000000       0.00000000       0.28956705
Ga       0.00000000       0.00000000       4.51010101       0.00000000       0.00000000      -0.28956705
2
Properties=species:S:1:pos:R:3:forces:R:3 energy=-0.8318397143893677 pbc="F F F"
Ga       0.00000000       0.00000000       0.00000000       0.00000000       0.00000000       0.24550588
Ga       0.00000000       0.00000000       4.56969697       0.00000000       0.00000000      -0.24550588
2
Properties=species:S:1:pos:R:3:forces:R:3 energy=-0.8182668199961288 pbc="F F F"
Ga       0.00000000       0.00000000       0.00000000       0.00000000       0.00000000       0.21171290
Ga       0.00000000       0.00000000       4.62929293       0.00000000       0.00000000      -0.21171290
2
Properties=species:S:1:pos:R:3:forces:R:3 energy=-0.8064064807855187 pbc="F F F"
Ga       0.00000000       0.00000000       0.00000000       0.00000000       0.00000000       0.18791547
Ga       0.00000000       0.00000000       4.68888889       0.00000000       0.00000000      -0.18791547
2
Properties=species:S:1:pos:R:3:forces:R:3 energy=-0.7956909533812883 pbc="F F F"
Ga       0.00000000       0.00000000       0.00000000       0.00000000       0.00000000       0.17304200
Ga       0.00000000       0.00000000       4.74848485       0.00000000       0.00000000      -0.17304200
2
Properties=species:S:1:pos:R:3:forces:R:3 energy=-0.7856386813875641 pbc="F F F"
Ga       0.00000000       0.00000000       0.00000000       0.00000000       0.00000000       0.16533093
Ga       0.00000000       0.00000000       4.80808081       0.00000000       0.00000000      -0.16533093
2
Properties=species:S:1:pos:R:3:forces:R:3 energy=-0.7758861195174259 pbc="F F F"
Ga       0.00000000       0.00000000       0.00000000       0.00000000       0.00000000       0.16258611
Ga       0.00000000       0.00000000       4.86767677       0.00000000       0.00000000      -0.16258611
2
Properties=species:S:1:pos:R:3:forces:R:3 energy=-0.7662063074833454 pbc="F F F"
Ga       0.00000000       0.00000000       0.00000000       0.00000000       0.00000000       0.16252130
Ga       0.00000000       0.00000000       4.92727273       0.00000000       0.00000000      -0.16252130
2
Properties=species:S:1:pos:R:3:forces:R:3 energy=-0.7565026061737751 pbc="F F F"
Ga       0.00000000       0.00000000       0.00000000       0.00000000       0.00000000       0.16308400
Ga       0.00000000       0.00000000       4.98686869       0.00000000       0.00000000      -0.16308400
2
Properties=species:S:1:pos:R:3:forces:R:3 energy=-0.7467889922743941 pbc="F F F"
Ga       0.00000000       0.00000000       0.00000000       0.00000000       0.00000000       0.16266446
Ga       0.00000000       0.00000000       5.04646465       0.00000000       0.00000000      -0.16266446
2
Properties=species:S:1:pos:R:3:forces:R:3 energy=-0.7371566822508804 pbc="F F F"
Ga       0.00000000       0.00000000       0.00000000       0.00000000       0.00000000       0.16017018
Ga       0.00000000       0.00000000       5.10606061       0.00000000       0.00000000      -0.16017018
2
Properties=species:S:1:pos:R:3:forces:R:3 energy=-0.727749906520619 pbc="F F F"
Ga       0.00000000       0.00000000       0.00000000       0.00000000       0.00000000       0.15499988
Ga       0.00000000       0.00000000       5.16565657       0.00000000       0.00000000      -0.15499988
2
Properties=species:S:1:pos:R:3:forces:R:3 energy=-0.7187381511112588 pbc="F F F"
Ga       0.00000000       0.00000000       0.00000000       0.00000000       0.00000000       0.14697640
Ga       0.00000000       0.00000000       5.22525253       0.00000000       0.00000000      -0.14697640
2
Properties=species:S:1:pos:R:3:forces:R:3 energy=-0.7102856759285667 pbc="F F F"
Ga       0.00000000       0.00000000       0.00000000       0.00000000       0.00000000       0.13627690
Ga       0.00000000       0.00000000       5.28484848       0.00000000       0.00000000      -0.13627690
2
Properties=species:S:1:pos:R:3:forces:R:3 energy=-0.7025387932085536 pbc="F F F"
Ga       0.00000000       0.00000000       0.00000000       0.00000000       0.00000000       0.12337319
Ga       0.00000000       0.00000000       5.34444444       0.00000000       0.00000000      -0.12337319
2
Properties=species:S:1:pos:R:3:forces:R:3 energy=-0.6956105221972789 pbc="F F F"
Ga       0.00000000       0.00000000       0.00000000       0.00000000       0.00000000       0.10893629
Ga       0.00000000       0.00000000       5.40404040       0.00000000       0.00000000      -0.10893629
2
Properties=species:S:1:pos:R:3:forces:R:3 energy=-0.6895682046400025 pbc="F F F"
Ga       0.00000000       0.00000000       0.00000000       0.00000000       0.00000000       0.09374195
Ga       0.00000000       0.00000000       5.46363636       0.00000000       0.00000000      -0.09374195
2
Properties=species:S:1:pos:R:3:forces:R:3 energy=-0.6844387188956786 pbc="F F F"
Ga       0.00000000       0.00000000       0.00000000       0.00000000       0.00000000       0.07854430
Ga       0.00000000       0.00000000       5.52323232       0.00000000       0.00000000      -0.07854430
2
Properties=species:S:1:pos:R:3:forces:R:3 energy=-0.680195058388481 pbc="F F F"
Ga       0.00000000       0.00000000       0.00000000       0.00000000       0.00000000       0.06400817
Ga       0.00000000       0.00000000       5.58282828       0.00000000       0.00000000      -0.06400817
2
Properties=species:S:1:pos:R:3:forces:R:3 energy=-0.6767862539314347 pbc="F F F"
Ga       0.00000000       0.00000000       0.00000000       0.00000000       0.00000000       0.05063271
Ga       0.00000000       0.00000000       5.64242424       0.00000000       0.00000000      -0.05063271
2
Properties=species:S:1:pos:R:3:forces:R:3 energy=-0.6741290534187899 pbc="F F F"
Ga       0.00000000       0.00000000       0.00000000       0.00000000       0.00000000       0.03875823
Ga       0.00000000       0.00000000       5.70202020       0.00000000       0.00000000      -0.03875823
2
Properties=species:S:1:pos:R:3:forces:R:3 energy=-0.6721326052765594 pbc="F F F"
Ga       0.00000000       0.00000000       0.00000000       0.00000000       0.00000000       0.02860054
Ga       0.00000000       0.00000000       5.76161616       0.00000000       0.00000000      -0.02860054
2
Properties=species:S:1:pos:R:3:forces:R:3 energy=-0.6706838178946578 pbc="F F F"
Ga       0.00000000       0.00000000       0.00000000       0.00000000       0.00000000       0.02031482
Ga       0.00000000       0.00000000       5.82121212       0.00000000       0.00000000      -0.02031482
2
Properties=species:S:1:pos:R:3:forces:R:3 energy=-0.669672158118972 pbc="F F F"
Ga       0.00000000       0.00000000       0.00000000       0.00000000       0.00000000       0.01403775
Ga       0.00000000       0.00000000       5.88080808       0.00000000       0.00000000      -0.01403775
2
Properties=species:S:1:pos:R:3:forces:R:3 energy=-0.6689668585183896 pbc="F F F"
Ga       0.00000000       0.00000000       0.00000000       0.00000000       0.00000000       0.00993801
Ga       0.00000000       0.00000000       5.94040404       0.00000000       0.00000000      -0.00993801
2
Properties=species:S:1:pos:R:3:forces:R:3 energy=-0.668439160796699 pbc="F F F"
Ga       0.00000000       0.00000000       0.00000000       0.00000000       0.00000000       0.00820687
Ga       0.00000000       0.00000000       6.00000000       0.00000000       0.00000000      -0.00820687
