2
Properties=species:S:1:pos:R:3:forces:R:3 energy=65351.82732998384 pbc="F F F"
Gd       0.00000000       0.00000000       0.00000000       0.00000000       0.00000000 -1623018.00000000
Gd       0.00000000       0.00000000       0.10000000       0.00000000       0.00000000 1623018.00000000
2
Properties=species:S:1:pos:R:3:forces:R:3 energy=18361.174986233844 pbc="F F F"
Gd       0.00000000       0.00000000       0.00000000       0.00000000       0.00000000 -341048.65625000
Gd       0.00000000       0.00000000       0.15959596       0.00000000       0.00000000  341048.65625000
2
Properties=species:S:1:pos:R:3:forces:R:3 energy=6723.957701077593 pbc="F F F"
Gd       0.00000000       0.00000000       0.00000000       0.00000000       0.00000000 -103935.65625000
Gd       0.00000000       0.00000000       0.21919192       0.00000000       0.00000000  103935.65625000
2
Properties=species:S:1:pos:R:3:forces:R:3 energy=2835.1295760775924 pbc="F F F"
Gd       0.00000000       0.00000000       0.00000000       0.00000000       0.00000000  -38747.97265625
Gd       0.00000000       0.00000000       0.27878788       0.00000000       0.00000000   38747.97265625
2
Properties=species:S:1:pos:R:3:forces:R:3 energy=1302.9404891635302 pbc="F F F"
Gd       0.00000000       0.00000000       0.00000000       0.00000000       0.00000000  -16282.54296875
Gd       0.00000000       0.00000000       0.33838384       0.00000000       0.00000000   16282.54296875
2
Properties=species:S:1:pos:R:3:forces:R:3 energy=634.8358138705614 pbc="F F F"
Gd       0.00000000       0.00000000       0.00000000       0.00000000       0.00000000   -7417.04882812
Gd       0.00000000       0.00000000       0.39797980       0.00000000       0.00000000    7417.04882812
2
Properties=species:S:1:pos:R:3:forces:R:3 energy=321.7707809242483 pbc="F F F"
Gd       0.00000000       0.00000000       0.00000000       0.00000000       0.00000000   -3595.64453125
Gd       0.00000000       0.00000000       0.45757576       0.00000000       0.00000000    3595.64453125
2
Properties=species:S:1:pos:R:3:forces:R:3 energy=166.32729949160708 pbc="F F F"
Gd       0.00000000       0.00000000       0.00000000       0.00000000       0.00000000   -1837.53833008
Gd       0.00000000       0.00000000       0.51717172       0.00000000       0.00000000    1837.53833008
2
Properties=species:S:1:pos:R:3:forces:R:3 energy=85.18328707211343 pbc="F F F"
Gd       0.00000000       0.00000000       0.00000000       0.00000000       0.00000000    -983.82928467
Gd       0.00000000       0.00000000       0.57676768       0.00000000       0.00000000     983.82928467
2
Properties=species:S:1:pos:R:3:forces:R:3 energy=40.90602728980278 pbc="F F F"
Gd       0.00000000       0.00000000       0.00000000       0.00000000       0.00000000    -548.90447998
Gd       0.00000000       0.00000000       0.63636364       0.00000000       0.00000000     548.90447998
2
Properties=species:S:1:pos:R:3:forces:R:3 energy=15.78695540538129 pbc="F F F"
Gd       0.00000000       0.00000000       0.00000000       0.00000000       0.00000000    -317.42196655
Gd       0.00000000       0.00000000       0.69595960       0.00000000       0.00000000     317.42196655
2
Properties=species:S:1:pos:R:3:forces:R:3 energy=1.0514609184467143 pbc="F F F"
Gd       0.00000000       0.00000000       0.00000000       0.00000000       0.00000000    -189.23674011
Gd       0.00000000       0.00000000       0.75555556       0.00000000       0.00000000     189.23674011
2
Properties=species:S:1:pos:R:3:forces:R:3 energy=-7.8396111710739955 pbc="F F F"
Gd       0.00000000       0.00000000       0.00000000       0.00000000       0.00000000    -115.71379852
Gd       0.00000000       0.00000000       0.81515152       0.00000000       0.00000000     115.71379852
2
Properties=species:S:1:pos:R:3:forces:R:3 energy=-13.330138070663361 pbc="F F F"
Gd       0.00000000       0.00000000       0.00000000       0.00000000       0.00000000     -72.22663879
Gd       0.00000000       0.00000000       0.87474747       0.00000000       0.00000000      72.22663879
2
Properties=species:S:1:pos:R:3:forces:R:3 energy=-16.783077684042965 pbc="F F F"
Gd       0.00000000       0.00000000       0.00000000       0.00000000       0.00000000     -45.76816177
Gd       0.00000000       0.00000000       0.93434343       0.00000000       0.00000000      45.76816177
2
Properties=species:S:1:pos:R:3:forces:R:3 energy=-18.97913353048693 pbc="F F F"
Gd       0.00000000       0.00000000       0.00000000       0.00000000       0.00000000     -29.16206551
Gd       0.00000000       0.00000000       0.99393939       0.00000000       0.00000000      29.16206551
2
Properties=species:S:1:pos:R:3:forces:R:3 energy=-20.371920766915665 pbc="F F F"
Gd       0.00000000       0.00000000       0.00000000       0.00000000       0.00000000     -18.29910851
Gd       0.00000000       0.00000000       1.05353535       0.00000000       0.00000000      18.29910851
2
Properties=species:S:1:pos:R:3:forces:R:3 energy=-21.2273008412032 pbc="F F F"
Gd       0.00000000       0.00000000       0.00000000       0.00000000       0.00000000     -10.85135174
Gd       0.00000000       0.00000000       1.11313131       0.00000000       0.00000000      10.85135174
2
Properties=species:S:1:pos:R:3:forces:R:3 energy=-21.710356634182933 pbc="F F F"
Gd       0.00000000       0.00000000       0.00000000       0.00000000       0.00000000      -5.69878912
Gd       0.00000000       0.00000000       1.17272727       0.00000000       0.00000000       5.69878912
2
Properties=species:S:1:pos:R:3:forces:R:3 energy=-21.945615047366196 pbc="F F F"
Gd       0.00000000       0.00000000       0.00000000       0.00000000       0.00000000      -2.52058172
Gd       0.00000000       0.00000000       1.23232323       0.00000000       0.00000000       2.52058172
2
Properties=species:S:1:pos:R:3:forces:R:3 energy=-22.04849347252272 pbc="F F F"
Gd       0.00000000       0.00000000       0.00000000       0.00000000       0.00000000      -1.22815573
Gd       0.00000000       0.00000000       1.29191919       0.00000000       0.00000000       1.22815573
2
Properties=species:S:1:pos:R:3:forces:R:3 energy=-22.122043960235704 pbc="F F F"
Gd       0.00000000       0.00000000       0.00000000       0.00000000       0.00000000      -1.43222106
Gd       0.00000000       0.00000000       1.35151515       0.00000000       0.00000000       1.43222106
2
Properties=species:S:1:pos:R:3:forces:R:3 energy=-22.232857633938366 pbc="F F F"
Gd       0.00000000       0.00000000       0.00000000       0.00000000       0.00000000      -2.31902981
Gd       0.00000000       0.00000000       1.41111111       0.00000000       0.00000000       2.31902981
2
Properties=species:S:1:pos:R:3:forces:R:3 energy=-22.393023148888226 pbc="F F F"
Gd       0.00000000       0.00000000       0.00000000       0.00000000       0.00000000      -2.94151187
Gd       0.00000000       0.00000000       1.47070707       0.00000000       0.00000000       2.94151187
2
Properties=species:S:1:pos:R:3:forces:R:3 energy=-22.56405005761966 pbc="F F F"
Gd       0.00000000       0.00000000       0.00000000       0.00000000       0.00000000      -2.60357738
Gd       0.00000000       0.00000000       1.53030303       0.00000000       0.00000000       2.60357738
2
Properties=species:S:1:pos:R:3:forces:R:3 energy=-22.679793226826042 pbc="F F F"
Gd       0.00000000       0.00000000       0.00000000       0.00000000       0.00000000      -1.10018969
Gd       0.00000000       0.00000000       1.58989899       0.00000000       0.00000000       1.10018969
2
Properties=species:S:1:pos:R:3:forces:R:3 energy=-22.678973156891754 pbc="F F F"
Gd       0.00000000       0.00000000       0.00000000       0.00000000       0.00000000       1.20569599
Gd       0.00000000       0.00000000       1.64949495       0.00000000       0.00000000      -1.20569599
2
Properties=species:S:1:pos:R:3:forces:R:3 energy=-22.53466548009717 pbc="F F F"
Gd       0.00000000       0.00000000       0.00000000       0.00000000       0.00000000       3.58603621
Gd       0.00000000       0.00000000       1.70909091       0.00000000       0.00000000      -3.58603621
2
Properties=species:S:1:pos:R:3:forces:R:3 energy=-22.26350581244934 pbc="F F F"
Gd       0.00000000       0.00000000       0.00000000       0.00000000       0.00000000       5.37686777
Gd       0.00000000       0.00000000       1.76868687       0.00000000       0.00000000      -5.37686777
2
Properties=species:S:1:pos:R:3:forces:R:3 energy=-21.91242228094162 pbc="F F F"
Gd       0.00000000       0.00000000       0.00000000       0.00000000       0.00000000       6.23861122
Gd       0.00000000       0.00000000       1.82828283       0.00000000       0.00000000      -6.23861122
2
Properties=species:S:1:pos:R:3:forces:R:3 energy=-21.539849977177063 pbc="F F F"
Gd       0.00000000       0.00000000       0.00000000       0.00000000       0.00000000       6.10217619
Gd       0.00000000       0.00000000       1.88787879       0.00000000       0.00000000      -6.10217619
2
Properties=species:S:1:pos:R:3:forces:R:3 energy=-21.20259698636105 pbc="F F F"
Gd       0.00000000       0.00000000       0.00000000       0.00000000       0.00000000       5.09495544
Gd       0.00000000       0.00000000       1.94747475       0.00000000       0.00000000      -5.09495544
2
Properties=species:S:1:pos:R:3:forces:R:3 energy=-20.941981790109324 pbc="F F F"
Gd       0.00000000       0.00000000       0.00000000       0.00000000       0.00000000       3.62010455
Gd       0.00000000       0.00000000       2.00707071       0.00000000       0.00000000      -3.62010455
2
Properties=species:S:1:pos:R:3:forces:R:3 energy=-20.769680688907343 pbc="F F F"
Gd       0.00000000       0.00000000       0.00000000       0.00000000       0.00000000       2.20562291
Gd       0.00000000       0.00000000       2.06666667       0.00000000       0.00000000      -2.20562291
2
Properties=species:S:1:pos:R:3:forces:R:3 energy=-20.672591579137848 pbc="F F F"
Gd       0.00000000       0.00000000       0.00000000       0.00000000       0.00000000       1.10779619
Gd       0.00000000       0.00000000       2.12626263       0.00000000       0.00000000      -1.10779619
2
Properties=species:S:1:pos:R:3:forces:R:3 energy=-20.63190551938904 pbc="F F F"
Gd       0.00000000       0.00000000       0.00000000       0.00000000       0.00000000       0.29763272
Gd       0.00000000       0.00000000       2.18585859       0.00000000       0.00000000      -0.29763272
2
Properties=species:S:1:pos:R:3:forces:R:3 energy=-20.633156525058308 pbc="F F F"
Gd       0.00000000       0.00000000       0.00000000       0.00000000       0.00000000      -0.31190118
Gd       0.00000000       0.00000000       2.24545455       0.00000000       0.00000000       0.31190118
2
Properties=species:S:1:pos:R:3:forces:R:3 energy=-20.666244469207108 pbc="F F F"
Gd       0.00000000       0.00000000       0.00000000       0.00000000       0.00000000      -0.77794623
Gd       0.00000000       0.00000000       2.30505051       0.00000000       0.00000000       0.77794623
2
Properties=species:S:1:pos:R:3:forces:R:3 energy=-20.723735622257827 pbc="F F F"
Gd       0.00000000       0.00000000       0.00000000       0.00000000       0.00000000      -1.13557553
Gd       0.00000000       0.00000000       2.36464646       0.00000000       0.00000000       1.13557553
2
Properties=species:S:1:pos:R:3:forces:R:3 energy=-20.799901360954152 pbc="F F F"
Gd       0.00000000       0.00000000       0.00000000       0.00000000       0.00000000      -1.40752685
Gd       0.00000000       0.00000000       2.42424242       0.00000000       0.00000000       1.40752685
2
Properties=species:S:1:pos:R:3:forces:R:3 energy=-20.890044886964965 pbc="F F F"
Gd       0.00000000       0.00000000       0.00000000       0.00000000       0.00000000      -1.60587931
Gd       0.00000000       0.00000000       2.48383838       0.00000000       0.00000000       1.60587931
2
Properties=species:S:1:pos:R:3:forces:R:3 energy=-20.98993461762751 pbc="F F F"
Gd       0.00000000       0.00000000       0.00000000       0.00000000       0.00000000      -1.73489475
Gd       0.00000000       0.00000000       2.54343434       0.00000000       0.00000000       1.73489475
2
Properties=species:S:1:pos:R:3:forces:R:3 energy=-21.095491539162733 pbc="F F F"
Gd       0.00000000       0.00000000       0.00000000       0.00000000       0.00000000      -1.79665041
Gd       0.00000000       0.00000000       2.60303030       0.00000000       0.00000000       1.79665041
2
Properties=species:S:1:pos:R:3:forces:R:3 energy=-21.202846357442155 pbc="F F F"
Gd       0.00000000       0.00000000       0.00000000       0.00000000       0.00000000      -1.79649866
Gd       0.00000000       0.00000000       2.66262626       0.00000000       0.00000000       1.79649866
2
Properties=species:S:1:pos:R:3:forces:R:3 energy=-21.308598827709872 pbc="F F F"
Gd       0.00000000       0.00000000       0.00000000       0.00000000       0.00000000      -1.74500740
Gd       0.00000000       0.00000000       2.72222222       0.00000000       0.00000000       1.74500740
2
Properties=species:S:1:pos:R:3:forces:R:3 energy=-21.41007534168264 pbc="F F F"
Gd       0.00000000       0.00000000       0.00000000       0.00000000       0.00000000      -1.65514505
Gd       0.00000000       0.00000000       2.78181818       0.00000000       0.00000000       1.65514505
2
Properties=species:S:1:pos:R:3:forces:R:3 energy=-21.50531935279283 pbc="F F F"
Gd       0.00000000       0.00000000       0.00000000       0.00000000       0.00000000      -1.53693724
Gd       0.00000000       0.00000000       2.84141414       0.00000000       0.00000000       1.53693724
2
Properties=species:S:1:pos:R:3:forces:R:3 energy=-21.592774768986704 pbc="F F F"
Gd       0.00000000       0.00000000       0.00000000       0.00000000       0.00000000      -1.39373040
Gd       0.00000000       0.00000000       2.90101010       0.00000000       0.00000000       1.39373040
2
Properties=species:S:1:pos:R:3:forces:R:3 energy=-21.670890985837563 pbc="F F F"
Gd       0.00000000       0.00000000       0.00000000       0.00000000       0.00000000      -1.22282541
Gd       0.00000000       0.00000000       2.96060606       0.00000000       0.00000000       1.22282541
2
Properties=species:S:1:pos:R:3:forces:R:3 energy=-21.737896159148608 pbc="F F F"
Gd       0.00000000       0.00000000       0.00000000       0.00000000       0.00000000      -1.02041066
Gd       0.00000000       0.00000000       3.02020202       0.00000000       0.00000000       1.02041066
2
Properties=species:S:1:pos:R:3:forces:R:3 energy=-21.791909611809356 pbc="F F F"
Gd       0.00000000       0.00000000       0.00000000       0.00000000       0.00000000      -0.78770030
Gd       0.00000000       0.00000000       3.07979798       0.00000000       0.00000000       0.78770030
2
Properties=species:S:1:pos:R:3:forces:R:3 energy=-21.831372881915396 pbc="F F F"
Gd       0.00000000       0.00000000       0.00000000       0.00000000       0.00000000      -0.53461063
Gd       0.00000000       0.00000000       3.13939394       0.00000000       0.00000000       0.53461063
2
Properties=species:S:1:pos:R:3:forces:R:3 energy=-21.8555721842383 pbc="F F F"
Gd       0.00000000       0.00000000       0.00000000       0.00000000       0.00000000      -0.27873179
Gd       0.00000000       0.00000000       3.19898990       0.00000000       0.00000000       0.27873179
2
Properties=species:S:1:pos:R:3:forces:R:3 energy=-21.86494391546038 pbc="F F F"
Gd       0.00000000       0.00000000       0.00000000       0.00000000       0.00000000      -0.04029316
Gd       0.00000000       0.00000000       3.25858586       0.00000000       0.00000000       0.04029316
2
Properties=species:S:1:pos:R:3:forces:R:3 energy=-21.86106298199969 pbc="F F F"
Gd       0.00000000       0.00000000       0.00000000       0.00000000       0.00000000       0.16377178
Gd       0.00000000       0.00000000       3.31818182       0.00000000       0.00000000      -0.16377178
2
Properties=species:S:1:pos:R:3:forces:R:3 energy=-21.846309185061706 pbc="F F F"
Gd       0.00000000       0.00000000       0.00000000       0.00000000       0.00000000       0.32360351
Gd       0.00000000       0.00000000       3.37777778       0.00000000       0.00000000      -0.32360351
2
Properties=species:S:1:pos:R:3:forces:R:3 energy=-21.82342057794134 pbc="F F F"
Gd       0.00000000       0.00000000       0.00000000       0.00000000       0.00000000       0.43693346
Gd       0.00000000       0.00000000       3.43737374       0.00000000       0.00000000      -0.43693346
2
Properties=species:S:1:pos:R:3:forces:R:3 energy=-21.795083753534318 pbc="F F F"
Gd       0.00000000       0.00000000       0.00000000       0.00000000       0.00000000       0.50737631
Gd       0.00000000       0.00000000       3.49696970       0.00000000       0.00000000      -0.50737631
2
Properties=species:S:1:pos:R:3:forces:R:3 energy=-21.763657323134865 pbc="F F F"
Gd       0.00000000       0.00000000       0.00000000       0.00000000       0.00000000       0.54197633
Gd       0.00000000       0.00000000       3.55656566       0.00000000       0.00000000      -0.54197633
2
Properties=species:S:1:pos:R:3:forces:R:3 energy=-21.731030430512142 pbc="F F F"
Gd       0.00000000       0.00000000       0.00000000       0.00000000       0.00000000       0.54910612
Gd       0.00000000       0.00000000       3.61616162       0.00000000       0.00000000      -0.54910612
2
Properties=species:S:1:pos:R:3:forces:R:3 energy=-21.698586860746627 pbc="F F F"
Gd       0.00000000       0.00000000       0.00000000       0.00000000       0.00000000       0.53712785
Gd       0.00000000       0.00000000       3.67575758       0.00000000       0.00000000      -0.53712785
2
Properties=species:S:1:pos:R:3:forces:R:3 energy=-21.667233707480406 pbc="F F F"
Gd       0.00000000       0.00000000       0.00000000       0.00000000       0.00000000       0.51383042
Gd       0.00000000       0.00000000       3.73535354       0.00000000       0.00000000      -0.51383042
2
Properties=species:S:1:pos:R:3:forces:R:3 energy=-21.63742597838009 pbc="F F F"
Gd       0.00000000       0.00000000       0.00000000       0.00000000       0.00000000       0.48634860
Gd       0.00000000       0.00000000       3.79494949       0.00000000       0.00000000      -0.48634860
2
Properties=species:S:1:pos:R:3:forces:R:3 energy=-21.609219988227228 pbc="F F F"
Gd       0.00000000       0.00000000       0.00000000       0.00000000       0.00000000       0.46106464
Gd       0.00000000       0.00000000       3.85454545       0.00000000       0.00000000      -0.46106464
2
Properties=species:S:1:pos:R:3:forces:R:3 energy=-21.582323311114493 pbc="F F F"
Gd       0.00000000       0.00000000       0.00000000       0.00000000       0.00000000       0.44315091
Gd       0.00000000       0.00000000       3.91414141       0.00000000       0.00000000      -0.44315091
2
Properties=species:S:1:pos:R:3:forces:R:3 energy=-21.556187917410824 pbc="F F F"
Gd       0.00000000       0.00000000       0.00000000       0.00000000       0.00000000       0.43583229
Gd       0.00000000       0.00000000       3.97373737       0.00000000       0.00000000      -0.43583229
2
Properties=species:S:1:pos:R:3:forces:R:3 energy=-21.530149758672067 pbc="F F F"
Gd       0.00000000       0.00000000       0.00000000       0.00000000       0.00000000       0.43982154
Gd       0.00000000       0.00000000       4.03333333       0.00000000       0.00000000      -0.43982154
2
Properties=species:S:1:pos:R:3:forces:R:3 energy=-21.50357356774595 pbc="F F F"
Gd       0.00000000       0.00000000       0.00000000       0.00000000       0.00000000       0.45336589
Gd       0.00000000       0.00000000       4.09292929       0.00000000       0.00000000      -0.45336589
2
Properties=species:S:1:pos:R:3:forces:R:3 energy=-21.475990333593476 pbc="F F F"
Gd       0.00000000       0.00000000       0.00000000       0.00000000       0.00000000       0.47297391
Gd       0.00000000       0.00000000       4.15252525       0.00000000       0.00000000      -0.47297391
2
Properties=species:S:1:pos:R:3:forces:R:3 energy=-21.447162227170164 pbc="F F F"
Gd       0.00000000       0.00000000       0.00000000       0.00000000       0.00000000       0.49449641
Gd       0.00000000       0.00000000       4.21212121       0.00000000       0.00000000      -0.49449641
2
Properties=species:S:1:pos:R:3:forces:R:3 energy=-21.417088285458078 pbc="F F F"
Gd       0.00000000       0.00000000       0.00000000       0.00000000       0.00000000       0.51413637
Gd       0.00000000       0.00000000       4.27171717       0.00000000       0.00000000      -0.51413637
2
Properties=species:S:1:pos:R:3:forces:R:3 energy=-21.385974045943176 pbc="F F F"
Gd       0.00000000       0.00000000       0.00000000       0.00000000       0.00000000       0.52910137
Gd       0.00000000       0.00000000       4.33131313       0.00000000       0.00000000      -0.52910137
2
Properties=species:S:1:pos:R:3:forces:R:3 energy=-21.354147597932876 pbc="F F F"
Gd       0.00000000       0.00000000       0.00000000       0.00000000       0.00000000       0.53787273
Gd       0.00000000       0.00000000       4.39090909       0.00000000       0.00000000      -0.53787273
2
Properties=species:S:1:pos:R:3:forces:R:3 energy=-21.32199293305987 pbc="F F F"
Gd       0.00000000       0.00000000       0.00000000       0.00000000       0.00000000       0.54016095
Gd       0.00000000       0.00000000       4.45050505       0.00000000       0.00000000      -0.54016095
2
Properties=species:S:1:pos:R:3:forces:R:3 energy=-21.289879367047067 pbc="F F F"
Gd       0.00000000       0.00000000       0.00000000       0.00000000       0.00000000       0.53668898
Gd       0.00000000       0.00000000       4.51010101       0.00000000       0.00000000      -0.53668898
2
Properties=species:S:1:pos:R:3:forces:R:3 energy=-21.258110047630137 pbc="F F F"
Gd       0.00000000       0.00000000       0.00000000       0.00000000       0.00000000       0.52889305
Gd       0.00000000       0.00000000       4.56969697       0.00000000       0.00000000      -0.52889305
2
Properties=species:S:1:pos:R:3:forces:R:3 energy=-21.226889637336726 pbc="F F F"
Gd       0.00000000       0.00000000       0.00000000       0.00000000       0.00000000       0.51854599
Gd       0.00000000       0.00000000       4.62929293       0.00000000       0.00000000      -0.51854599
2
Properties=species:S:1:pos:R:3:forces:R:3 energy=-21.196320416425802 pbc="F F F"
Gd       0.00000000       0.00000000       0.00000000       0.00000000       0.00000000       0.50740653
Gd       0.00000000       0.00000000       4.68888889       0.00000000       0.00000000      -0.50740653
2
Properties=species:S:1:pos:R:3:forces:R:3 energy=-21.166398537882472 pbc="F F F"
Gd       0.00000000       0.00000000       0.00000000       0.00000000       0.00000000       0.49686918
Gd       0.00000000       0.00000000       4.74848485       0.00000000       0.00000000      -0.49686918
2
Properties=species:S:1:pos:R:3:forces:R:3 energy=-21.137069207479822 pbc="F F F"
Gd       0.00000000       0.00000000       0.00000000       0.00000000       0.00000000       0.48769146
Gd       0.00000000       0.00000000       4.80808081       0.00000000       0.00000000      -0.48769146
2
Properties=species:S:1:pos:R:3:forces:R:3 energy=-21.108242043938276 pbc="F F F"
Gd       0.00000000       0.00000000       0.00000000       0.00000000       0.00000000       0.47986200
Gd       0.00000000       0.00000000       4.86767677       0.00000000       0.00000000      -0.47986200
2
Properties=species:S:1:pos:R:3:forces:R:3 energy=-21.079861517776468 pbc="F F F"
Gd       0.00000000       0.00000000       0.00000000       0.00000000       0.00000000       0.47257790
Gd       0.00000000       0.00000000       4.92727273       0.00000000       0.00000000      -0.47257790
2
Properties=species:S:1:pos:R:3:forces:R:3 energy=-21.051931683487055 pbc="F F F"
Gd       0.00000000       0.00000000       0.00000000       0.00000000       0.00000000       0.46444139
Gd       0.00000000       0.00000000       4.98686869       0.00000000       0.00000000      -0.46444139
2
Properties=species:S:1:pos:R:3:forces:R:3 energy=-21.024556214851046 pbc="F F F"
Gd       0.00000000       0.00000000       0.00000000       0.00000000       0.00000000       0.45375854
Gd       0.00000000       0.00000000       5.04646465       0.00000000       0.00000000      -0.45375854
2
Properties=species:S:1:pos:R:3:forces:R:3 energy=-20.9979324801513 pbc="F F F"
Gd       0.00000000       0.00000000       0.00000000       0.00000000       0.00000000       0.43895233
Gd       0.00000000       0.00000000       5.10606061       0.00000000       0.00000000      -0.43895233
2
Properties=species:S:1:pos:R:3:forces:R:3 energy=-20.972338241417248 pbc="F F F"
Gd       0.00000000       0.00000000       0.00000000       0.00000000       0.00000000       0.41891849
Gd       0.00000000       0.00000000       5.16565657       0.00000000       0.00000000      -0.41891849
2
Properties=species:S:1:pos:R:3:forces:R:3 energy=-20.948110477184958 pbc="F F F"
Gd       0.00000000       0.00000000       0.00000000       0.00000000       0.00000000       0.39325261
Gd       0.00000000       0.00000000       5.22525253       0.00000000       0.00000000      -0.39325261
2
Properties=species:S:1:pos:R:3:forces:R:3 energy=-20.925572808214426 pbc="F F F"
Gd       0.00000000       0.00000000       0.00000000       0.00000000       0.00000000       0.36230052
Gd       0.00000000       0.00000000       5.28484848       0.00000000       0.00000000      -0.36230052
2
Properties=species:S:1:pos:R:3:forces:R:3 energy=-20.905012552285175 pbc="F F F"
Gd       0.00000000       0.00000000       0.00000000       0.00000000       0.00000000       0.32706773
Gd       0.00000000       0.00000000       5.34444444       0.00000000       0.00000000      -0.32706773
2
Properties=species:S:1:pos:R:3:forces:R:3 energy=-20.88664435785936 pbc="F F F"
Gd       0.00000000       0.00000000       0.00000000       0.00000000       0.00000000       0.28897145
Gd       0.00000000       0.00000000       5.40404040       0.00000000       0.00000000      -0.28897145
2
Properties=species:S:1:pos:R:3:forces:R:3 energy=-20.870591054567697 pbc="F F F"
Gd       0.00000000       0.00000000       0.00000000       0.00000000       0.00000000       0.24960575
Gd       0.00000000       0.00000000       5.46363636       0.00000000       0.00000000      -0.24960575
2
Properties=species:S:1:pos:R:3:forces:R:3 energy=-20.85689118756933 pbc="F F F"
Gd       0.00000000       0.00000000       0.00000000       0.00000000       0.00000000       0.21052766
Gd       0.00000000       0.00000000       5.52323232       0.00000000       0.00000000      -0.21052766
2
Properties=species:S:1:pos:R:3:forces:R:3 energy=-20.845468480966787 pbc="F F F"
Gd       0.00000000       0.00000000       0.00000000       0.00000000       0.00000000       0.17310463
Gd       0.00000000       0.00000000       5.58282828       0.00000000       0.00000000      -0.17310463
2
Properties=species:S:1:pos:R:3:forces:R:3 energy=-20.836204171334188 pbc="F F F"
Gd       0.00000000       0.00000000       0.00000000       0.00000000       0.00000000       0.13843399
Gd       0.00000000       0.00000000       5.64242424       0.00000000       0.00000000      -0.13843399
2
Properties=species:S:1:pos:R:3:forces:R:3 energy=-20.828895099900308 pbc="F F F"
Gd       0.00000000       0.00000000       0.00000000       0.00000000       0.00000000       0.10736568
Gd       0.00000000       0.00000000       5.70202020       0.00000000       0.00000000      -0.10736568
2
Properties=species:S:1:pos:R:3:forces:R:3 energy=-20.8233204222334 pbc="F F F"
Gd       0.00000000       0.00000000       0.00000000       0.00000000       0.00000000       0.08059746
Gd       0.00000000       0.00000000       5.76161616       0.00000000       0.00000000      -0.08059746
2
Properties=species:S:1:pos:R:3:forces:R:3 energy=-20.819193842161994 pbc="F F F"
Gd       0.00000000       0.00000000       0.00000000       0.00000000       0.00000000       0.05867077
Gd       0.00000000       0.00000000       5.82121212       0.00000000       0.00000000      -0.05867077
2
Properties=species:S:1:pos:R:3:forces:R:3 energy=-20.816224735630165 pbc="F F F"
Gd       0.00000000       0.00000000       0.00000000       0.00000000       0.00000000       0.04210797
Gd       0.00000000       0.00000000       5.88080808       0.00000000       0.00000000      -0.04210797
2
Properties=species:S:1:pos:R:3:forces:R:3 energy=-20.81405895953347 pbc="F F F"
Gd       0.00000000       0.00000000       0.00000000       0.00000000       0.00000000       0.03140444
Gd       0.00000000       0.00000000       5.94040404       0.00000000       0.00000000      -0.03140444
2
Properties=species:S:1:pos:R:3:forces:R:3 energy=-20.812349493310457 pbc="F F F"
Gd       0.00000000       0.00000000       0.00000000       0.00000000       0.00000000       0.02710294
Gd       0.00000000       0.00000000       6.00000000       0.00000000       0.00000000      -0.02710294
