2
Properties=species:S:1:pos:R:3:forces:R:3 energy=13590.837951629559 pbc="F F F"
Ho       0.00000000       0.00000000       0.00000000       0.00000000       0.00000000 -235750.18750000
Ho       0.00000000       0.00000000       0.18000000       0.00000000       0.00000000  235750.18750000
2
Properties=species:S:1:pos:R:3:forces:R:3 energy=5320.21978756706 pbc="F F F"
Ho       0.00000000       0.00000000       0.00000000       0.00000000       0.00000000  -78700.68750000
Ho       0.00000000       0.00000000       0.23878788       0.00000000       0.00000000   78700.68750000
2
Properties=species:S:1:pos:R:3:forces:R:3 energy=2344.019836395185 pbc="F F F"
Ho       0.00000000       0.00000000       0.00000000       0.00000000       0.00000000  -30925.19335938
Ho       0.00000000       0.00000000       0.29757576       0.00000000       0.00000000   30925.19335938
2
Properties=species:S:1:pos:R:3:forces:R:3 energy=1118.7055053404972 pbc="F F F"
Ho       0.00000000       0.00000000       0.00000000       0.00000000       0.00000000  -13445.43652344
Ho       0.00000000       0.00000000       0.35636364       0.00000000       0.00000000   13445.43652344
2
Properties=species:S:1:pos:R:3:forces:R:3 energy=568.1837768375435 pbc="F F F"
Ho       0.00000000       0.00000000       0.00000000       0.00000000       0.00000000   -6281.71728516
Ho       0.00000000       0.00000000       0.41515152       0.00000000       0.00000000    6281.71728516
2
Properties=species:S:1:pos:R:3:forces:R:3 energy=304.14208982582477 pbc="F F F"
Ho       0.00000000       0.00000000       0.00000000       0.00000000       0.00000000   -3109.52978516
Ho       0.00000000       0.00000000       0.47393939       0.00000000       0.00000000    3109.52978516
2
Properties=species:S:1:pos:R:3:forces:R:3 energy=170.44256591271483 pbc="F F F"
Ho       0.00000000       0.00000000       0.00000000       0.00000000       0.00000000   -1617.89721680
Ho       0.00000000       0.00000000       0.53272727       0.00000000       0.00000000    1617.89721680
2
Properties=species:S:1:pos:R:3:forces:R:3 energy=99.47047426325273 pbc="F F F"
Ho       0.00000000       0.00000000       0.00000000       0.00000000       0.00000000    -879.35150146
Ho       0.00000000       0.00000000       0.59151515       0.00000000       0.00000000     879.35150146
2
Properties=species:S:1:pos:R:3:forces:R:3 energy=60.21953208371326 pbc="F F F"
Ho       0.00000000       0.00000000       0.00000000       0.00000000       0.00000000    -496.11419678
Ho       0.00000000       0.00000000       0.65030303       0.00000000       0.00000000     496.11419678
2
Properties=species:S:1:pos:R:3:forces:R:3 energy=37.75643552841736 pbc="F F F"
Ho       0.00000000       0.00000000       0.00000000       0.00000000       0.00000000    -288.42803955
Ho       0.00000000       0.00000000       0.70909091       0.00000000       0.00000000     288.42803955
2
Properties=species:S:1:pos:R:3:forces:R:3 energy=24.558948752346268 pbc="F F F"
Ho       0.00000000       0.00000000       0.00000000       0.00000000       0.00000000    -171.30273438
Ho       0.00000000       0.00000000       0.76787879       0.00000000       0.00000000     171.30273438
2
Properties=species:S:1:pos:R:3:forces:R:3 energy=16.67370264021755 pbc="F F F"
Ho       0.00000000       0.00000000       0.00000000       0.00000000       0.00000000    -102.87111664
Ho       0.00000000       0.00000000       0.82666667       0.00000000       0.00000000     102.87111664
2
Properties=species:S:1:pos:R:3:forces:R:3 energy=11.93515458949215 pbc="F F F"
Ho       0.00000000       0.00000000       0.00000000       0.00000000       0.00000000     -61.73402786
Ho       0.00000000       0.00000000       0.88545455       0.00000000       0.00000000      61.73402786
2
Properties=species:S:1:pos:R:3:forces:R:3 energy=9.104601851464794 pbc="F F F"
Ho       0.00000000       0.00000000       0.00000000       0.00000000       0.00000000     -36.61490250
Ho       0.00000000       0.00000000       0.94424242       0.00000000       0.00000000      36.61490250
2
Properties=species:S:1:pos:R:3:forces:R:3 energy=7.437042181733187 pbc="F F F"
Ho       0.00000000       0.00000000       0.00000000       0.00000000       0.00000000     -21.43587875
Ho       0.00000000       0.00000000       1.00303030       0.00000000       0.00000000      21.43587875
2
Properties=species:S:1:pos:R:3:forces:R:3 energy=6.456111959406163 pbc="F F F"
Ho       0.00000000       0.00000000       0.00000000       0.00000000       0.00000000     -12.84060192
Ho       0.00000000       0.00000000       1.06181818       0.00000000       0.00000000      12.84060192
2
Properties=species:S:1:pos:R:3:forces:R:3 energy=5.837270143249933 pbc="F F F"
Ho       0.00000000       0.00000000       0.00000000       0.00000000       0.00000000      -8.86001778
Ho       0.00000000       0.00000000       1.12060606       0.00000000       0.00000000       8.86001778
2
Properties=species:S:1:pos:R:3:forces:R:3 energy=5.349702778504534 pbc="F F F"
Ho       0.00000000       0.00000000       0.00000000       0.00000000       0.00000000      -8.19096756
Ho       0.00000000       0.00000000       1.17939394       0.00000000       0.00000000       8.19096756
2
Properties=species:S:1:pos:R:3:forces:R:3 energy=4.828647456920744 pbc="F F F"
Ho       0.00000000       0.00000000       0.00000000       0.00000000       0.00000000      -9.85173225
Ho       0.00000000       0.00000000       1.23818182       0.00000000       0.00000000       9.85173225
2
Properties=species:S:1:pos:R:3:forces:R:3 energy=4.1628342656457304 pbc="F F F"
Ho       0.00000000       0.00000000       0.00000000       0.00000000       0.00000000     -12.96164513
Ho       0.00000000       0.00000000       1.29696970       0.00000000       0.00000000      12.96164513
2
Properties=species:S:1:pos:R:3:forces:R:3 energy=3.297170243375461 pbc="F F F"
Ho       0.00000000       0.00000000       0.00000000       0.00000000       0.00000000     -16.44162178
Ho       0.00000000       0.00000000       1.35575758       0.00000000       0.00000000      16.44162178
2
Properties=species:S:1:pos:R:3:forces:R:3 energy=2.2488919753276804 pbc="F F F"
Ho       0.00000000       0.00000000       0.00000000       0.00000000       0.00000000     -18.95712852
Ho       0.00000000       0.00000000       1.41454545       0.00000000       0.00000000      18.95712852
2
Properties=species:S:1:pos:R:3:forces:R:3 energy=1.10518444353598 pbc="F F F"
Ho       0.00000000       0.00000000       0.00000000       0.00000000       0.00000000     -19.62857056
Ho       0.00000000       0.00000000       1.47333333       0.00000000       0.00000000      19.62857056
2
Properties=species:S:1:pos:R:3:forces:R:3 energy=-0.023190748973345554 pbc="F F F"
Ho       0.00000000       0.00000000       0.00000000       0.00000000       0.00000000     -18.45852661
Ho       0.00000000       0.00000000       1.53212121       0.00000000       0.00000000      18.45852661
2
Properties=species:S:1:pos:R:3:forces:R:3 energy=-1.0220791239794518 pbc="F F F"
Ho       0.00000000       0.00000000       0.00000000       0.00000000       0.00000000     -15.05437469
Ho       0.00000000       0.00000000       1.59090909       0.00000000       0.00000000      15.05437469
2
Properties=species:S:1:pos:R:3:forces:R:3 energy=-1.7301977516406208 pbc="F F F"
Ho       0.00000000       0.00000000       0.00000000       0.00000000       0.00000000      -8.54017544
Ho       0.00000000       0.00000000       1.64969697       0.00000000       0.00000000       8.54017544
2
Properties=species:S:1:pos:R:3:forces:R:3 energy=-1.9963908382051878 pbc="F F F"
Ho       0.00000000       0.00000000       0.00000000       0.00000000       0.00000000      -0.59592134
Ho       0.00000000       0.00000000       1.70848485       0.00000000       0.00000000       0.59592134
2
Properties=species:S:1:pos:R:3:forces:R:3 energy=-1.846800611988376 pbc="F F F"
Ho       0.00000000       0.00000000       0.00000000       0.00000000       0.00000000       5.07313347
Ho       0.00000000       0.00000000       1.76727273       0.00000000       0.00000000      -5.07313347
2
Properties=species:S:1:pos:R:3:forces:R:3 energy=-1.475808891059469 pbc="F F F"
Ho       0.00000000       0.00000000       0.00000000       0.00000000       0.00000000       6.96716452
Ho       0.00000000       0.00000000       1.82606061       0.00000000       0.00000000      -6.96716452
2
Properties=species:S:1:pos:R:3:forces:R:3 energy=-1.0793170669729446 pbc="F F F"
Ho       0.00000000       0.00000000       0.00000000       0.00000000       0.00000000       6.23289299
Ho       0.00000000       0.00000000       1.88484848       0.00000000       0.00000000      -6.23289299
2
Properties=species:S:1:pos:R:3:forces:R:3 energy=-0.7618310898140428 pbc="F F F"
Ho       0.00000000       0.00000000       0.00000000       0.00000000       0.00000000       4.51010847
Ho       0.00000000       0.00000000       1.94363636       0.00000000       0.00000000      -4.51010847
2
Properties=species:S:1:pos:R:3:forces:R:3 energy=-0.5484868498340706 pbc="F F F"
Ho       0.00000000       0.00000000       0.00000000       0.00000000       0.00000000       2.79312825
Ho       0.00000000       0.00000000       2.00242424       0.00000000       0.00000000      -2.79312825
2
Properties=species:S:1:pos:R:3:forces:R:3 energy=-0.4263790203989498 pbc="F F F"
Ho       0.00000000       0.00000000       0.00000000       0.00000000       0.00000000       1.42429876
Ho       0.00000000       0.00000000       2.06121212       0.00000000       0.00000000      -1.42429876
2
Properties=species:S:1:pos:R:3:forces:R:3 energy=-0.3742794786278484 pbc="F F F"
Ho       0.00000000       0.00000000       0.00000000       0.00000000       0.00000000       0.39775014
Ho       0.00000000       0.00000000       2.12000000       0.00000000       0.00000000      -0.39775014
2
Properties=species:S:1:pos:R:3:forces:R:3 energy=-0.37466792402567883 pbc="F F F"
Ho       0.00000000       0.00000000       0.00000000       0.00000000       0.00000000      -0.37533373
Ho       0.00000000       0.00000000       2.17878788       0.00000000       0.00000000       0.37533373
2
Properties=species:S:1:pos:R:3:forces:R:3 energy=-0.41482624510375143 pbc="F F F"
Ho       0.00000000       0.00000000       0.00000000       0.00000000       0.00000000      -0.96502364
Ho       0.00000000       0.00000000       2.23757576       0.00000000       0.00000000       0.96502364
2
Properties=species:S:1:pos:R:3:forces:R:3 energy=-0.48555744496116027 pbc="F F F"
Ho       0.00000000       0.00000000       0.00000000       0.00000000       0.00000000      -1.42298651
Ho       0.00000000       0.00000000       2.29636364       0.00000000       0.00000000       1.42298651
2
Properties=species:S:1:pos:R:3:forces:R:3 energy=-0.5803236060658682 pbc="F F F"
Ho       0.00000000       0.00000000       0.00000000       0.00000000       0.00000000      -1.78793454
Ho       0.00000000       0.00000000       2.35515152       0.00000000       0.00000000       1.78793454
2
Properties=species:S:1:pos:R:3:forces:R:3 energy=-0.6944085672487528 pbc="F F F"
Ho       0.00000000       0.00000000       0.00000000       0.00000000       0.00000000      -2.08257961
Ho       0.00000000       0.00000000       2.41393939       0.00000000       0.00000000       2.08257961
2
Properties=species:S:1:pos:R:3:forces:R:3 energy=-0.8239301897924568 pbc="F F F"
Ho       0.00000000       0.00000000       0.00000000       0.00000000       0.00000000      -2.31282902
Ho       0.00000000       0.00000000       2.47272727       0.00000000       0.00000000       2.31282902
2
Properties=species:S:1:pos:R:3:forces:R:3 energy=-0.9649720510534824 pbc="F F F"
Ho       0.00000000       0.00000000       0.00000000       0.00000000       0.00000000      -2.47303581
Ho       0.00000000       0.00000000       2.53151515       0.00000000       0.00000000       2.47303581
2
Properties=species:S:1:pos:R:3:forces:R:3 energy=-1.113161411651018 pbc="F F F"
Ho       0.00000000       0.00000000       0.00000000       0.00000000       0.00000000      -2.55492091
Ho       0.00000000       0.00000000       2.59030303       0.00000000       0.00000000       2.55492091
2
Properties=species:S:1:pos:R:3:forces:R:3 energy=-1.2637710051930227 pbc="F F F"
Ho       0.00000000       0.00000000       0.00000000       0.00000000       0.00000000      -2.55563021
Ho       0.00000000       0.00000000       2.64909091       0.00000000       0.00000000       2.55563021
2
Properties=species:S:1:pos:R:3:forces:R:3 energy=-1.4121548280090623 pbc="F F F"
Ho       0.00000000       0.00000000       0.00000000       0.00000000       0.00000000      -2.48071527
Ho       0.00000000       0.00000000       2.70787879       0.00000000       0.00000000       2.48071527
2
Properties=species:S:1:pos:R:3:forces:R:3 energy=-1.5541785278671478 pbc="F F F"
Ho       0.00000000       0.00000000       0.00000000       0.00000000       0.00000000      -2.34126115
Ho       0.00000000       0.00000000       2.76666667       0.00000000       0.00000000       2.34126115
2
Properties=species:S:1:pos:R:3:forces:R:3 energy=-1.6863943600292366 pbc="F F F"
Ho       0.00000000       0.00000000       0.00000000       0.00000000       0.00000000      -2.14888167
Ho       0.00000000       0.00000000       2.82545455       0.00000000       0.00000000       2.14888167
2
Properties=species:S:1:pos:R:3:forces:R:3 energy=-1.8059754142336701 pbc="F F F"
Ho       0.00000000       0.00000000       0.00000000       0.00000000       0.00000000      -1.91261494
Ho       0.00000000       0.00000000       2.88424242       0.00000000       0.00000000       1.91261494
2
Properties=species:S:1:pos:R:3:forces:R:3 energy=-1.910546601265168 pbc="F F F"
Ho       0.00000000       0.00000000       0.00000000       0.00000000       0.00000000      -1.63935757
Ho       0.00000000       0.00000000       2.94303030       0.00000000       0.00000000       1.63935757
2
Properties=species:S:1:pos:R:3:forces:R:3 energy=-1.9981416564151664 pbc="F F F"
Ho       0.00000000       0.00000000       0.00000000       0.00000000       0.00000000      -1.33641827
Ho       0.00000000       0.00000000       3.00181818       0.00000000       0.00000000       1.33641827
2
Properties=species:S:1:pos:R:3:forces:R:3 energy=-2.067289396322298 pbc="F F F"
Ho       0.00000000       0.00000000       0.00000000       0.00000000       0.00000000      -1.01376557
Ho       0.00000000       0.00000000       3.06060606       0.00000000       0.00000000       1.01376557
2
Properties=species:S:1:pos:R:3:forces:R:3 energy=-2.117201090632988 pbc="F F F"
Ho       0.00000000       0.00000000       0.00000000       0.00000000       0.00000000      -0.68425906
Ho       0.00000000       0.00000000       3.11939394       0.00000000       0.00000000       0.68425906
2
Properties=species:S:1:pos:R:3:forces:R:3 energy=-2.147882833179944 pbc="F F F"
Ho       0.00000000       0.00000000       0.00000000       0.00000000       0.00000000      -0.36187783
Ho       0.00000000       0.00000000       3.17818182       0.00000000       0.00000000       0.36187783
2
Properties=species:S:1:pos:R:3:forces:R:3 energy=-2.1601388164858206 pbc="F F F"
Ho       0.00000000       0.00000000       0.00000000       0.00000000       0.00000000      -0.05929185
Ho       0.00000000       0.00000000       3.23696970       0.00000000       0.00000000       0.05929185
2
Properties=species:S:1:pos:R:3:forces:R:3 energy=-2.1554339899903656 pbc="F F F"
Ho       0.00000000       0.00000000       0.00000000       0.00000000       0.00000000       0.21384214
Ho       0.00000000       0.00000000       3.29575758       0.00000000       0.00000000      -0.21384214
2
Properties=species:S:1:pos:R:3:forces:R:3 energy=-2.135700276430768 pbc="F F F"
Ho       0.00000000       0.00000000       0.00000000       0.00000000       0.00000000       0.45115250
Ho       0.00000000       0.00000000       3.35454545       0.00000000       0.00000000      -0.45115250
2
Properties=species:S:1:pos:R:3:forces:R:3 energy=-2.1031643829423894 pbc="F F F"
Ho       0.00000000       0.00000000       0.00000000       0.00000000       0.00000000       0.64893776
Ho       0.00000000       0.00000000       3.41333333       0.00000000       0.00000000      -0.64893776
2
Properties=species:S:1:pos:R:3:forces:R:3 energy=-2.0602101091616443 pbc="F F F"
Ho       0.00000000       0.00000000       0.00000000       0.00000000       0.00000000       0.80544603
Ho       0.00000000       0.00000000       3.47212121       0.00000000       0.00000000      -0.80544603
2
Properties=species:S:1:pos:R:3:forces:R:3 energy=-2.00927759520144 pbc="F F F"
Ho       0.00000000       0.00000000       0.00000000       0.00000000       0.00000000       0.92049444
Ho       0.00000000       0.00000000       3.53090909       0.00000000       0.00000000      -0.92049444
2
Properties=species:S:1:pos:R:3:forces:R:3 energy=-1.9527676421091351 pbc="F F F"
Ho       0.00000000       0.00000000       0.00000000       0.00000000       0.00000000       0.99553639
Ho       0.00000000       0.00000000       3.58969697       0.00000000       0.00000000      -0.99553639
2
Properties=species:S:1:pos:R:3:forces:R:3 energy=-1.892944825224398 pbc="F F F"
Ho       0.00000000       0.00000000       0.00000000       0.00000000       0.00000000       1.03395319
Ho       0.00000000       0.00000000       3.64848485       0.00000000       0.00000000      -1.03395319
2
Properties=species:S:1:pos:R:3:forces:R:3 energy=-1.8318104677617055 pbc="F F F"
Ho       0.00000000       0.00000000       0.00000000       0.00000000       0.00000000       1.04130876
Ho       0.00000000       0.00000000       3.70727273       0.00000000       0.00000000      -1.04130876
2
Properties=species:S:1:pos:R:3:forces:R:3 energy=-1.7709709957408095 pbc="F F F"
Ho       0.00000000       0.00000000       0.00000000       0.00000000       0.00000000       1.02528322
Ho       0.00000000       0.00000000       3.76606061       0.00000000       0.00000000      -1.02528322
2
Properties=species:S:1:pos:R:3:forces:R:3 energy=-1.711542621240252 pbc="F F F"
Ho       0.00000000       0.00000000       0.00000000       0.00000000       0.00000000       0.99492854
Ho       0.00000000       0.00000000       3.82484848       0.00000000       0.00000000      -0.99492854
2
Properties=species:S:1:pos:R:3:forces:R:3 energy=-1.654095841553589 pbc="F F F"
Ho       0.00000000       0.00000000       0.00000000       0.00000000       0.00000000       0.95920557
Ho       0.00000000       0.00000000       3.88363636       0.00000000       0.00000000      -0.95920557
2
Properties=species:S:1:pos:R:3:forces:R:3 energy=-1.5987257219850703 pbc="F F F"
Ho       0.00000000       0.00000000       0.00000000       0.00000000       0.00000000       0.92527962
Ho       0.00000000       0.00000000       3.94242424       0.00000000       0.00000000      -0.92527962
2
Properties=species:S:1:pos:R:3:forces:R:3 energy=-1.5451893073145795 pbc="F F F"
Ho       0.00000000       0.00000000       0.00000000       0.00000000       0.00000000       0.89721280
Ho       0.00000000       0.00000000       4.00121212       0.00000000       0.00000000      -0.89721280
2
Properties=species:S:1:pos:R:3:forces:R:3 energy=-1.4931064019194566 pbc="F F F"
Ho       0.00000000       0.00000000       0.00000000       0.00000000       0.00000000       0.87564284
Ho       0.00000000       0.00000000       4.06000000       0.00000000       0.00000000      -0.87564284
2
Properties=species:S:1:pos:R:3:forces:R:3 energy=-1.4421474562861203 pbc="F F F"
Ho       0.00000000       0.00000000       0.00000000       0.00000000       0.00000000       0.85846424
Ho       0.00000000       0.00000000       4.11878788       0.00000000       0.00000000      -0.85846424
2
Properties=species:S:1:pos:R:3:forces:R:3 energy=-1.3921557070146549 pbc="F F F"
Ho       0.00000000       0.00000000       0.00000000       0.00000000       0.00000000       0.84207678
Ho       0.00000000       0.00000000       4.17757576       0.00000000       0.00000000      -0.84207678
2
Properties=species:S:1:pos:R:3:forces:R:3 energy=-1.3431977278932241 pbc="F F F"
Ho       0.00000000       0.00000000       0.00000000       0.00000000       0.00000000       0.82271838
Ho       0.00000000       0.00000000       4.23636364       0.00000000       0.00000000      -0.82271838
2
Properties=species:S:1:pos:R:3:forces:R:3 energy=-1.2955393876354473 pbc="F F F"
Ho       0.00000000       0.00000000       0.00000000       0.00000000       0.00000000       0.79747748
Ho       0.00000000       0.00000000       4.29515152       0.00000000       0.00000000      -0.79747748
2
Properties=species:S:1:pos:R:3:forces:R:3 energy=-1.2495799283112303 pbc="F F F"
Ho       0.00000000       0.00000000       0.00000000       0.00000000       0.00000000       0.76488739
Ho       0.00000000       0.00000000       4.35393939       0.00000000       0.00000000      -0.76488739
2
Properties=species:S:1:pos:R:3:forces:R:3 energy=-1.2057503483469136 pbc="F F F"
Ho       0.00000000       0.00000000       0.00000000       0.00000000       0.00000000       0.72509760
Ho       0.00000000       0.00000000       4.41272727       0.00000000       0.00000000      -0.72509760
2
Properties=species:S:1:pos:R:3:forces:R:3 energy=-1.1644349069599016 pbc="F F F"
Ho       0.00000000       0.00000000       0.00000000       0.00000000       0.00000000       0.67974603
Ho       0.00000000       0.00000000       4.47151515       0.00000000       0.00000000      -0.67974603
2
Properties=species:S:1:pos:R:3:forces:R:3 energy=-1.1258838704623075 pbc="F F F"
Ho       0.00000000       0.00000000       0.00000000       0.00000000       0.00000000       0.63155526
Ho       0.00000000       0.00000000       4.53030303       0.00000000       0.00000000      -0.63155526
2
Properties=species:S:1:pos:R:3:forces:R:3 energy=-1.0901708911881405 pbc="F F F"
Ho       0.00000000       0.00000000       0.00000000       0.00000000       0.00000000       0.58379817
Ho       0.00000000       0.00000000       4.58909091       0.00000000       0.00000000      -0.58379817
2
Properties=species:S:1:pos:R:3:forces:R:3 energy=-1.0571725325898793 pbc="F F F"
Ho       0.00000000       0.00000000       0.00000000       0.00000000       0.00000000       0.53969240
Ho       0.00000000       0.00000000       4.64787879       0.00000000       0.00000000      -0.53969240
2
Properties=species:S:1:pos:R:3:forces:R:3 energy=-1.0265919170273126 pbc="F F F"
Ho       0.00000000       0.00000000       0.00000000       0.00000000       0.00000000       0.50186270
Ho       0.00000000       0.00000000       4.70666667       0.00000000       0.00000000      -0.50186270
2
Properties=species:S:1:pos:R:3:forces:R:3 energy=-0.9980090853567295 pbc="F F F"
Ho       0.00000000       0.00000000       0.00000000       0.00000000       0.00000000       0.47195700
Ho       0.00000000       0.00000000       4.76545455       0.00000000       0.00000000      -0.47195700
2
Properties=species:S:1:pos:R:3:forces:R:3 energy=-0.9709362351814927 pbc="F F F"
Ho       0.00000000       0.00000000       0.00000000       0.00000000       0.00000000       0.45041841
Ho       0.00000000       0.00000000       4.82424242       0.00000000       0.00000000      -0.45041841
2
Properties=species:S:1:pos:R:3:forces:R:3 energy=-0.9449036238164481 pbc="F F F"
Ho       0.00000000       0.00000000       0.00000000       0.00000000       0.00000000       0.43643209
Ho       0.00000000       0.00000000       4.88303030       0.00000000       0.00000000      -0.43643209
2
Properties=species:S:1:pos:R:3:forces:R:3 energy=-0.9195117439428816 pbc="F F F"
Ho       0.00000000       0.00000000       0.00000000       0.00000000       0.00000000       0.42809141
Ho       0.00000000       0.00000000       4.94181818       0.00000000       0.00000000      -0.42809141
2
Properties=species:S:1:pos:R:3:forces:R:3 energy=-0.8945102274869137 pbc="F F F"
Ho       0.00000000       0.00000000       0.00000000       0.00000000       0.00000000       0.42269656
Ho       0.00000000       0.00000000       5.00060606       0.00000000       0.00000000      -0.42269656
2
Properties=species:S:1:pos:R:3:forces:R:3 energy=-0.8698132400409384 pbc="F F F"
Ho       0.00000000       0.00000000       0.00000000       0.00000000       0.00000000       0.41724879
Ho       0.00000000       0.00000000       5.05939394       0.00000000       0.00000000      -0.41724879
2
Properties=species:S:1:pos:R:3:forces:R:3 energy=-0.8455069265244695 pbc="F F F"
Ho       0.00000000       0.00000000       0.00000000       0.00000000       0.00000000       0.40898570
Ho       0.00000000       0.00000000       5.11818182       0.00000000       0.00000000      -0.40898570
2
Properties=species:S:1:pos:R:3:forces:R:3 energy=-0.8218243023735559 pbc="F F F"
Ho       0.00000000       0.00000000       0.00000000       0.00000000       0.00000000       0.39582190
Ho       0.00000000       0.00000000       5.17696970       0.00000000       0.00000000      -0.39582190
2
Properties=species:S:1:pos:R:3:forces:R:3 energy=-0.7990890641997385 pbc="F F F"
Ho       0.00000000       0.00000000       0.00000000       0.00000000       0.00000000       0.37664297
Ho       0.00000000       0.00000000       5.23575758       0.00000000       0.00000000      -0.37664297
2
Properties=species:S:1:pos:R:3:forces:R:3 energy=-0.7776618010578866 pbc="F F F"
Ho       0.00000000       0.00000000       0.00000000       0.00000000       0.00000000       0.35137045
Ho       0.00000000       0.00000000       5.29454545       0.00000000       0.00000000      -0.35137045
2
Properties=species:S:1:pos:R:3:forces:R:3 energy=-0.7578795985179531 pbc="F F F"
Ho       0.00000000       0.00000000       0.00000000       0.00000000       0.00000000       0.32079992
Ho       0.00000000       0.00000000       5.35333333       0.00000000       0.00000000      -0.32079992
2
Properties=species:S:1:pos:R:3:forces:R:3 energy=-0.7400176736965656 pbc="F F F"
Ho       0.00000000       0.00000000       0.00000000       0.00000000       0.00000000       0.28633478
Ho       0.00000000       0.00000000       5.41212121       0.00000000       0.00000000      -0.28633478
2
Properties=species:S:1:pos:R:3:forces:R:3 energy=-0.7242565863667567 pbc="F F F"
Ho       0.00000000       0.00000000       0.00000000       0.00000000       0.00000000       0.24966988
Ho       0.00000000       0.00000000       5.47090909       0.00000000       0.00000000      -0.24966988
2
Properties=species:S:1:pos:R:3:forces:R:3 energy=-0.7106715406321731 pbc="F F F"
Ho       0.00000000       0.00000000       0.00000000       0.00000000       0.00000000       0.21252446
Ho       0.00000000       0.00000000       5.52969697       0.00000000       0.00000000      -0.21252446
2
Properties=species:S:1:pos:R:3:forces:R:3 energy=-0.6992477643413217 pbc="F F F"
Ho       0.00000000       0.00000000       0.00000000       0.00000000       0.00000000       0.17642641
Ho       0.00000000       0.00000000       5.58848485       0.00000000       0.00000000      -0.17642641
2
Properties=species:S:1:pos:R:3:forces:R:3 energy=-0.6898832267266048 pbc="F F F"
Ho       0.00000000       0.00000000       0.00000000       0.00000000       0.00000000       0.14264375
Ho       0.00000000       0.00000000       5.64727273       0.00000000       0.00000000      -0.14264375
2
Properties=species:S:1:pos:R:3:forces:R:3 energy=-0.6824137106169327 pbc="F F F"
Ho       0.00000000       0.00000000       0.00000000       0.00000000       0.00000000       0.11217478
Ho       0.00000000       0.00000000       5.70606061       0.00000000       0.00000000      -0.11217478
2
Properties=species:S:1:pos:R:3:forces:R:3 energy=-0.6766098981457742 pbc="F F F"
Ho       0.00000000       0.00000000       0.00000000       0.00000000       0.00000000       0.08577476
Ho       0.00000000       0.00000000       5.76484848       0.00000000       0.00000000      -0.08577476
2
Properties=species:S:1:pos:R:3:forces:R:3 energy=-0.6722319000816362 pbc="F F F"
Ho       0.00000000       0.00000000       0.00000000       0.00000000       0.00000000       0.06412929
Ho       0.00000000       0.00000000       5.82363636       0.00000000       0.00000000      -0.06412929
2
Properties=species:S:1:pos:R:3:forces:R:3 energy=-0.6689733849330717 pbc="F F F"
Ho       0.00000000       0.00000000       0.00000000       0.00000000       0.00000000       0.04776449
Ho       0.00000000       0.00000000       5.88242424       0.00000000       0.00000000      -0.04776449
2
Properties=species:S:1:pos:R:3:forces:R:3 energy=-0.6665025881122371 pbc="F F F"
Ho       0.00000000       0.00000000       0.00000000       0.00000000       0.00000000       0.03723751
Ho       0.00000000       0.00000000       5.94121212       0.00000000       0.00000000      -0.03723751
2
Properties=species:S:1:pos:R:3:forces:R:3 energy=-0.6644688583583755 pbc="F F F"
Ho       0.00000000       0.00000000       0.00000000       0.00000000       0.00000000       0.03309826
Ho       0.00000000       0.00000000       6.00000000       0.00000000       0.00000000      -0.03309826
