2
Properties=species:S:1:pos:R:3:forces:R:3 energy=54581.11257838125 pbc="F F F"
La       0.00000000       0.00000000       0.00000000       0.00000000       0.00000000 -1337005.00000000
La       0.00000000       0.00000000       0.10000000       0.00000000       0.00000000 1337005.00000000
2
Properties=species:S:1:pos:R:3:forces:R:3 energy=15614.090117443757 pbc="F F F"
La       0.00000000       0.00000000       0.00000000       0.00000000       0.00000000 -285545.68750000
La       0.00000000       0.00000000       0.15959596       0.00000000       0.00000000  285545.68750000
2
Properties=species:S:1:pos:R:3:forces:R:3 energy=5821.358183850006 pbc="F F F"
La       0.00000000       0.00000000       0.00000000       0.00000000       0.00000000  -88095.84375000
La       0.00000000       0.00000000       0.21919192       0.00000000       0.00000000   88095.84375000
2
Properties=species:S:1:pos:R:3:forces:R:3 energy=2508.305449475006 pbc="F F F"
La       0.00000000       0.00000000       0.00000000       0.00000000       0.00000000  -33250.57031250
La       0.00000000       0.00000000       0.27878788       0.00000000       0.00000000   33250.57031250
2
Properties=species:S:1:pos:R:3:forces:R:3 energy=1186.2191457640686 pbc="F F F"
La       0.00000000       0.00000000       0.00000000       0.00000000       0.00000000  -14153.88281250
La       0.00000000       0.00000000       0.33838384       0.00000000       0.00000000   14153.88281250
2
Properties=species:S:1:pos:R:3:forces:R:3 energy=602.2300710633729 pbc="F F F"
La       0.00000000       0.00000000       0.00000000       0.00000000       0.00000000   -6529.06103516
La       0.00000000       0.00000000       0.39797980       0.00000000       0.00000000    6529.06103516
2
Properties=species:S:1:pos:R:3:forces:R:3 energy=325.2024221375916 pbc="F F F"
La       0.00000000       0.00000000       0.00000000       0.00000000       0.00000000   -3202.34838867
La       0.00000000       0.00000000       0.45757576       0.00000000       0.00000000    3202.34838867
2
Properties=species:S:1:pos:R:3:forces:R:3 energy=186.07446193884914 pbc="F F F"
La       0.00000000       0.00000000       0.00000000       0.00000000       0.00000000   -1654.87133789
La       0.00000000       0.00000000       0.51717172       0.00000000       0.00000000    1654.87133789
2
Properties=species:S:1:pos:R:3:forces:R:3 energy=112.60563565757512 pbc="F F F"
La       0.00000000       0.00000000       0.00000000       0.00000000       0.00000000    -897.09149170
La       0.00000000       0.00000000       0.57676768       0.00000000       0.00000000     897.09149170
2
Properties=species:S:1:pos:R:3:forces:R:3 energy=71.93434813996096 pbc="F F F"
La       0.00000000       0.00000000       0.00000000       0.00000000       0.00000000    -509.48129272
La       0.00000000       0.00000000       0.63636364       0.00000000       0.00000000     509.48129272
2
Properties=species:S:1:pos:R:3:forces:R:3 energy=48.32665545946896 pbc="F F F"
La       0.00000000       0.00000000       0.00000000       0.00000000       0.00000000    -303.77688599
La       0.00000000       0.00000000       0.69595960       0.00000000       0.00000000     303.77688599
2
Properties=species:S:1:pos:R:3:forces:R:3 energy=33.903792503562315 pbc="F F F"
La       0.00000000       0.00000000       0.00000000       0.00000000       0.00000000    -191.20083618
La       0.00000000       0.00000000       0.75555556       0.00000000       0.00000000     191.20083618
2
Properties=species:S:1:pos:R:3:forces:R:3 energy=24.583646006249815 pbc="F F F"
La       0.00000000       0.00000000       0.00000000       0.00000000       0.00000000    -127.21830750
La       0.00000000       0.00000000       0.81515152       0.00000000       0.00000000     127.21830750
2
Properties=species:S:1:pos:R:3:forces:R:3 energy=18.27859050200528 pbc="F F F"
La       0.00000000       0.00000000       0.00000000       0.00000000       0.00000000     -86.76398468
La       0.00000000       0.00000000       0.87474747       0.00000000       0.00000000      86.76398468
2
Properties=species:S:1:pos:R:3:forces:R:3 energy=14.077633355781934 pbc="F F F"
La       0.00000000       0.00000000       0.00000000       0.00000000       0.00000000     -55.05167007
La       0.00000000       0.00000000       0.93434343       0.00000000       0.00000000      55.05167007
2
Properties=species:S:1:pos:R:3:forces:R:3 energy=11.582139682338859 pbc="F F F"
La       0.00000000       0.00000000       0.00000000       0.00000000       0.00000000     -30.48431969
La       0.00000000       0.00000000       0.99393939       0.00000000       0.00000000      30.48431969
2
Properties=species:S:1:pos:R:3:forces:R:3 energy=10.17788218675418 pbc="F F F"
La       0.00000000       0.00000000       0.00000000       0.00000000       0.00000000     -18.83016586
La       0.00000000       0.00000000       1.05353535       0.00000000       0.00000000      18.83016586
2
Properties=species:S:1:pos:R:3:forces:R:3 energy=9.144823446714616 pbc="F F F"
La       0.00000000       0.00000000       0.00000000       0.00000000       0.00000000     -16.84133530
La       0.00000000       0.00000000       1.11313131       0.00000000       0.00000000      16.84133530
2
Properties=species:S:1:pos:R:3:forces:R:3 energy=8.103364863673386 pbc="F F F"
La       0.00000000       0.00000000       0.00000000       0.00000000       0.00000000     -18.36964417
La       0.00000000       0.00000000       1.17272727       0.00000000       0.00000000      18.36964417
2
Properties=species:S:1:pos:R:3:forces:R:3 energy=6.946896647989134 pbc="F F F"
La       0.00000000       0.00000000       0.00000000       0.00000000       0.00000000     -20.34066772
La       0.00000000       0.00000000       1.23232323       0.00000000       0.00000000      20.34066772
2
Properties=species:S:1:pos:R:3:forces:R:3 energy=5.71075008057714 pbc="F F F"
La       0.00000000       0.00000000       0.00000000       0.00000000       0.00000000     -20.72216988
La       0.00000000       0.00000000       1.29191919       0.00000000       0.00000000      20.72216988
2
Properties=species:S:1:pos:R:3:forces:R:3 energy=4.5363555837471194 pbc="F F F"
La       0.00000000       0.00000000       0.00000000       0.00000000       0.00000000     -18.20553207
La       0.00000000       0.00000000       1.35151515       0.00000000       0.00000000      18.20553207
2
Properties=species:S:1:pos:R:3:forces:R:3 energy=3.5798580529195556 pbc="F F F"
La       0.00000000       0.00000000       0.00000000       0.00000000       0.00000000     -13.79128456
La       0.00000000       0.00000000       1.41111111       0.00000000       0.00000000      13.79128456
2
Properties=species:S:1:pos:R:3:forces:R:3 energy=2.8760809691144646 pbc="F F F"
La       0.00000000       0.00000000       0.00000000       0.00000000       0.00000000     -10.16174793
La       0.00000000       0.00000000       1.47070707       0.00000000       0.00000000      10.16174793
2
Properties=species:S:1:pos:R:3:forces:R:3 energy=2.317377930386776 pbc="F F F"
La       0.00000000       0.00000000       0.00000000       0.00000000       0.00000000      -9.04341030
La       0.00000000       0.00000000       1.53030303       0.00000000       0.00000000       9.04341030
2
Properties=species:S:1:pos:R:3:forces:R:3 energy=1.751226204075672 pbc="F F F"
La       0.00000000       0.00000000       0.00000000       0.00000000       0.00000000     -10.24692631
La       0.00000000       0.00000000       1.58989899       0.00000000       0.00000000      10.24692631
2
Properties=species:S:1:pos:R:3:forces:R:3 energy=1.0779704890944057 pbc="F F F"
La       0.00000000       0.00000000       0.00000000       0.00000000       0.00000000     -12.35243797
La       0.00000000       0.00000000       1.64949495       0.00000000       0.00000000      12.35243797
2
Properties=species:S:1:pos:R:3:forces:R:3 energy=0.293930346931762 pbc="F F F"
La       0.00000000       0.00000000       0.00000000       0.00000000       0.00000000     -13.72453690
La       0.00000000       0.00000000       1.70909091       0.00000000       0.00000000      13.72453690
2
Properties=species:S:1:pos:R:3:forces:R:3 energy=-0.5223481505669357 pbc="F F F"
La       0.00000000       0.00000000       0.00000000       0.00000000       0.00000000     -13.34347725
La       0.00000000       0.00000000       1.76868687       0.00000000       0.00000000      13.34347725
2
Properties=species:S:1:pos:R:3:forces:R:3 energy=-1.2605988956633096 pbc="F F F"
La       0.00000000       0.00000000       0.00000000       0.00000000       0.00000000     -11.18588829
La       0.00000000       0.00000000       1.82828283       0.00000000       0.00000000      11.18588829
2
Properties=species:S:1:pos:R:3:forces:R:3 energy=-1.8368060327254225 pbc="F F F"
La       0.00000000       0.00000000       0.00000000       0.00000000       0.00000000      -8.09128284
La       0.00000000       0.00000000       1.88787879       0.00000000       0.00000000       8.09128284
2
Properties=species:S:1:pos:R:3:forces:R:3 energy=-2.229121065270135 pbc="F F F"
La       0.00000000       0.00000000       0.00000000       0.00000000       0.00000000      -5.19143152
La       0.00000000       0.00000000       1.94747475       0.00000000       0.00000000       5.19143152
2
Properties=species:S:1:pos:R:3:forces:R:3 energy=-2.476214970808744 pbc="F F F"
La       0.00000000       0.00000000       0.00000000       0.00000000       0.00000000      -3.30970430
La       0.00000000       0.00000000       2.00707071       0.00000000       0.00000000       3.30970430
2
Properties=species:S:1:pos:R:3:forces:R:3 energy=-2.648756720794969 pbc="F F F"
La       0.00000000       0.00000000       0.00000000       0.00000000       0.00000000      -2.67035031
La       0.00000000       0.00000000       2.06666667       0.00000000       0.00000000       2.67035031
2
Properties=species:S:1:pos:R:3:forces:R:3 energy=-2.811086967680012 pbc="F F F"
La       0.00000000       0.00000000       0.00000000       0.00000000       0.00000000      -2.85603094
La       0.00000000       0.00000000       2.12626263       0.00000000       0.00000000       2.85603094
2
Properties=species:S:1:pos:R:3:forces:R:3 energy=-2.991941270765032 pbc="F F F"
La       0.00000000       0.00000000       0.00000000       0.00000000       0.00000000      -3.19460773
La       0.00000000       0.00000000       2.18585859       0.00000000       0.00000000       3.19460773
2
Properties=species:S:1:pos:R:3:forces:R:3 energy=-3.187399154962755 pbc="F F F"
La       0.00000000       0.00000000       0.00000000       0.00000000       0.00000000      -3.32094336
La       0.00000000       0.00000000       2.24545455       0.00000000       0.00000000       3.32094336
2
Properties=species:S:1:pos:R:3:forces:R:3 energy=-3.3830188006463384 pbc="F F F"
La       0.00000000       0.00000000       0.00000000       0.00000000       0.00000000      -3.21071529
La       0.00000000       0.00000000       2.30505051       0.00000000       0.00000000       3.21071529
2
Properties=species:S:1:pos:R:3:forces:R:3 energy=-3.5669511228804844 pbc="F F F"
La       0.00000000       0.00000000       0.00000000       0.00000000       0.00000000      -2.94177794
La       0.00000000       0.00000000       2.36464646       0.00000000       0.00000000       2.94177794
2
Properties=species:S:1:pos:R:3:forces:R:3 energy=-3.731826029177437 pbc="F F F"
La       0.00000000       0.00000000       0.00000000       0.00000000       0.00000000      -2.57989955
La       0.00000000       0.00000000       2.42424242       0.00000000       0.00000000       2.57989955
2
Properties=species:S:1:pos:R:3:forces:R:3 energy=-3.8734373999852263 pbc="F F F"
La       0.00000000       0.00000000       0.00000000       0.00000000       0.00000000      -2.16621566
La       0.00000000       0.00000000       2.48383838       0.00000000       0.00000000       2.16621566
2
Properties=species:S:1:pos:R:3:forces:R:3 energy=-3.98948920103066 pbc="F F F"
La       0.00000000       0.00000000       0.00000000       0.00000000       0.00000000      -1.72527587
La       0.00000000       0.00000000       2.54343434       0.00000000       0.00000000       1.72527587
2
Properties=species:S:1:pos:R:3:forces:R:3 energy=-4.078817247063274 pbc="F F F"
La       0.00000000       0.00000000       0.00000000       0.00000000       0.00000000      -1.27111542
La       0.00000000       0.00000000       2.60303030       0.00000000       0.00000000       1.27111542
2
Properties=species:S:1:pos:R:3:forces:R:3 energy=-4.140886318387372 pbc="F F F"
La       0.00000000       0.00000000       0.00000000       0.00000000       0.00000000      -0.81150627
La       0.00000000       0.00000000       2.66262626       0.00000000       0.00000000       0.81150627
2
Properties=species:S:1:pos:R:3:forces:R:3 energy=-4.17555123776728 pbc="F F F"
La       0.00000000       0.00000000       0.00000000       0.00000000       0.00000000      -0.35243225
La       0.00000000       0.00000000       2.72222222       0.00000000       0.00000000       0.35243225
2
Properties=species:S:1:pos:R:3:forces:R:3 energy=-4.183065165064536 pbc="F F F"
La       0.00000000       0.00000000       0.00000000       0.00000000       0.00000000       0.09792472
La       0.00000000       0.00000000       2.78181818       0.00000000       0.00000000      -0.09792472
2
Properties=species:S:1:pos:R:3:forces:R:3 energy=-4.16429200518519 pbc="F F F"
La       0.00000000       0.00000000       0.00000000       0.00000000       0.00000000       0.52741802
La       0.00000000       0.00000000       2.84141414       0.00000000       0.00000000      -0.52741802
2
Properties=species:S:1:pos:R:3:forces:R:3 energy=-4.12090670102909 pbc="F F F"
La       0.00000000       0.00000000       0.00000000       0.00000000       0.00000000       0.92146707
La       0.00000000       0.00000000       2.90101010       0.00000000       0.00000000      -0.92146707
2
Properties=species:S:1:pos:R:3:forces:R:3 energy=-4.055432995332369 pbc="F F F"
La       0.00000000       0.00000000       0.00000000       0.00000000       0.00000000       1.26673257
La       0.00000000       0.00000000       2.96060606       0.00000000       0.00000000      -1.26673257
2
Properties=species:S:1:pos:R:3:forces:R:3 energy=-3.9710707569315473 pbc="F F F"
La       0.00000000       0.00000000       0.00000000       0.00000000       0.00000000       1.55428088
La       0.00000000       0.00000000       3.02020202       0.00000000       0.00000000      -1.55428088
2
Properties=species:S:1:pos:R:3:forces:R:3 energy=-3.871394112508297 pbc="F F F"
La       0.00000000       0.00000000       0.00000000       0.00000000       0.00000000       1.78061569
La       0.00000000       0.00000000       3.07979798       0.00000000       0.00000000      -1.78061569
2
Properties=species:S:1:pos:R:3:forces:R:3 energy=-3.7600393326709614 pbc="F F F"
La       0.00000000       0.00000000       0.00000000       0.00000000       0.00000000       1.94647622
La       0.00000000       0.00000000       3.13939394       0.00000000       0.00000000      -1.94647622
2
Properties=species:S:1:pos:R:3:forces:R:3 energy=-3.6405325603722134 pbc="F F F"
La       0.00000000       0.00000000       0.00000000       0.00000000       0.00000000       2.05484128
La       0.00000000       0.00000000       3.19898990       0.00000000       0.00000000      -2.05484128
2
Properties=species:S:1:pos:R:3:forces:R:3 energy=-3.516182883360485 pbc="F F F"
La       0.00000000       0.00000000       0.00000000       0.00000000       0.00000000       2.10969567
La       0.00000000       0.00000000       3.25858586       0.00000000       0.00000000      -2.10969567
2
Properties=species:S:1:pos:R:3:forces:R:3 energy=-3.390035818238899 pbc="F F F"
La       0.00000000       0.00000000       0.00000000       0.00000000       0.00000000       2.11616588
La       0.00000000       0.00000000       3.31818182       0.00000000       0.00000000      -2.11616588
2
Properties=species:S:1:pos:R:3:forces:R:3 energy=-3.2647738909422253 pbc="F F F"
La       0.00000000       0.00000000       0.00000000       0.00000000       0.00000000       2.08143330
La       0.00000000       0.00000000       3.37777778       0.00000000       0.00000000      -2.08143330
2
Properties=species:S:1:pos:R:3:forces:R:3 energy=-3.142577188907184 pbc="F F F"
La       0.00000000       0.00000000       0.00000000       0.00000000       0.00000000       2.01501131
La       0.00000000       0.00000000       3.43737374       0.00000000       0.00000000      -2.01501131
2
Properties=species:S:1:pos:R:3:forces:R:3 energy=-3.025015478857792 pbc="F F F"
La       0.00000000       0.00000000       0.00000000       0.00000000       0.00000000       1.92768061
La       0.00000000       0.00000000       3.49696970       0.00000000       0.00000000      -1.92768061
2
Properties=species:S:1:pos:R:3:forces:R:3 energy=-2.913026712111146 pbc="F F F"
La       0.00000000       0.00000000       0.00000000       0.00000000       0.00000000       1.82944083
La       0.00000000       0.00000000       3.55656566       0.00000000       0.00000000      -1.82944083
2
Properties=species:S:1:pos:R:3:forces:R:3 energy=-2.8070287791168727 pbc="F F F"
La       0.00000000       0.00000000       0.00000000       0.00000000       0.00000000       1.72764134
La       0.00000000       0.00000000       3.61616162       0.00000000       0.00000000      -1.72764134
2
Properties=species:S:1:pos:R:3:forces:R:3 energy=-2.707095191338288 pbc="F F F"
La       0.00000000       0.00000000       0.00000000       0.00000000       0.00000000       1.62635922
La       0.00000000       0.00000000       3.67575758       0.00000000       0.00000000      -1.62635922
2
Properties=species:S:1:pos:R:3:forces:R:3 energy=-2.6131299201988463 pbc="F F F"
La       0.00000000       0.00000000       0.00000000       0.00000000       0.00000000       1.52761388
La       0.00000000       0.00000000       3.73535354       0.00000000       0.00000000      -1.52761388
2
Properties=species:S:1:pos:R:3:forces:R:3 energy=-2.524920684305506 pbc="F F F"
La       0.00000000       0.00000000       0.00000000       0.00000000       0.00000000       1.43371189
La       0.00000000       0.00000000       3.79494949       0.00000000       0.00000000      -1.43371189
2
Properties=species:S:1:pos:R:3:forces:R:3 energy=-2.442074403790171 pbc="F F F"
La       0.00000000       0.00000000       0.00000000       0.00000000       0.00000000       1.34825659
La       0.00000000       0.00000000       3.85454545       0.00000000       0.00000000      -1.34825659
2
Properties=species:S:1:pos:R:3:forces:R:3 energy=-2.36399430148499 pbc="F F F"
La       0.00000000       0.00000000       0.00000000       0.00000000       0.00000000       1.27401364
La       0.00000000       0.00000000       3.91414141       0.00000000       0.00000000      -1.27401364
2
Properties=species:S:1:pos:R:3:forces:R:3 energy=-2.2900109747268242 pbc="F F F"
La       0.00000000       0.00000000       0.00000000       0.00000000       0.00000000       1.21035099
La       0.00000000       0.00000000       3.97373737       0.00000000       0.00000000      -1.21035099
2
Properties=species:S:1:pos:R:3:forces:R:3 energy=-2.219571804546963 pbc="F F F"
La       0.00000000       0.00000000       0.00000000       0.00000000       0.00000000       1.15472543
La       0.00000000       0.00000000       4.03333333       0.00000000       0.00000000      -1.15472543
2
Properties=species:S:1:pos:R:3:forces:R:3 energy=-2.152238700501453 pbc="F F F"
La       0.00000000       0.00000000       0.00000000       0.00000000       0.00000000       1.10611999
La       0.00000000       0.00000000       4.09292929       0.00000000       0.00000000      -1.10611999
2
Properties=species:S:1:pos:R:3:forces:R:3 energy=-2.0875735653229324 pbc="F F F"
La       0.00000000       0.00000000       0.00000000       0.00000000       0.00000000       1.06539333
La       0.00000000       0.00000000       4.15252525       0.00000000       0.00000000      -1.06539333
2
Properties=species:S:1:pos:R:3:forces:R:3 energy=-2.025084129858257 pbc="F F F"
La       0.00000000       0.00000000       0.00000000       0.00000000       0.00000000       1.03311706
La       0.00000000       0.00000000       4.21212121       0.00000000       0.00000000      -1.03311706
2
Properties=species:S:1:pos:R:3:forces:R:3 energy=-1.964288648856206 pbc="F F F"
La       0.00000000       0.00000000       0.00000000       0.00000000       0.00000000       1.00813198
La       0.00000000       0.00000000       4.27171717       0.00000000       0.00000000      -1.00813198
2
Properties=species:S:1:pos:R:3:forces:R:3 energy=-1.9048313650628237 pbc="F F F"
La       0.00000000       0.00000000       0.00000000       0.00000000       0.00000000       0.98773330
La       0.00000000       0.00000000       4.33131313       0.00000000       0.00000000      -0.98773330
2
Properties=species:S:1:pos:R:3:forces:R:3 energy=-1.846534194989886 pbc="F F F"
La       0.00000000       0.00000000       0.00000000       0.00000000       0.00000000       0.96859986
La       0.00000000       0.00000000       4.39090909       0.00000000       0.00000000      -0.96859986
2
Properties=species:S:1:pos:R:3:forces:R:3 energy=-1.7894160967251458 pbc="F F F"
La       0.00000000       0.00000000       0.00000000       0.00000000       0.00000000       0.94772702
La       0.00000000       0.00000000       4.45050505       0.00000000       0.00000000      -0.94772702
2
Properties=species:S:1:pos:R:3:forces:R:3 energy=-1.7336489692812207 pbc="F F F"
La       0.00000000       0.00000000       0.00000000       0.00000000       0.00000000       0.92306405
La       0.00000000       0.00000000       4.51010101       0.00000000       0.00000000      -0.92306405
2
Properties=species:S:1:pos:R:3:forces:R:3 energy=-1.6794855855494608 pbc="F F F"
La       0.00000000       0.00000000       0.00000000       0.00000000       0.00000000       0.89381886
La       0.00000000       0.00000000       4.56969697       0.00000000       0.00000000      -0.89381886
2
Properties=species:S:1:pos:R:3:forces:R:3 energy=-1.6271947751490916 pbc="F F F"
La       0.00000000       0.00000000       0.00000000       0.00000000       0.00000000       0.86042863
La       0.00000000       0.00000000       4.62929293       0.00000000       0.00000000      -0.86042863
2
Properties=species:S:1:pos:R:3:forces:R:3 energy=-1.576985626502177 pbc="F F F"
La       0.00000000       0.00000000       0.00000000       0.00000000       0.00000000       0.82428467
La       0.00000000       0.00000000       4.68888889       0.00000000       0.00000000      -0.82428467
2
Properties=species:S:1:pos:R:3:forces:R:3 energy=-1.5289637670387393 pbc="F F F"
La       0.00000000       0.00000000       0.00000000       0.00000000       0.00000000       0.78727108
La       0.00000000       0.00000000       4.74848485       0.00000000       0.00000000      -0.78727108
2
Properties=species:S:1:pos:R:3:forces:R:3 energy=-1.4831275508353976 pbc="F F F"
La       0.00000000       0.00000000       0.00000000       0.00000000       0.00000000       0.75131714
La       0.00000000       0.00000000       4.80808081       0.00000000       0.00000000      -0.75131714
2
Properties=species:S:1:pos:R:3:forces:R:3 energy=-1.4393590822406905 pbc="F F F"
La       0.00000000       0.00000000       0.00000000       0.00000000       0.00000000       0.71804333
La       0.00000000       0.00000000       4.86767677       0.00000000       0.00000000      -0.71804333
2
Properties=species:S:1:pos:R:3:forces:R:3 energy=-1.3974662840829986 pbc="F F F"
La       0.00000000       0.00000000       0.00000000       0.00000000       0.00000000       0.68851513
La       0.00000000       0.00000000       4.92727273       0.00000000       0.00000000      -0.68851513
2
Properties=species:S:1:pos:R:3:forces:R:3 energy=-1.3572112009573216 pbc="F F F"
La       0.00000000       0.00000000       0.00000000       0.00000000       0.00000000       0.66309190
La       0.00000000       0.00000000       4.98686869       0.00000000       0.00000000      -0.66309190
2
Properties=species:S:1:pos:R:3:forces:R:3 energy=-1.3183614734637406 pbc="F F F"
La       0.00000000       0.00000000       0.00000000       0.00000000       0.00000000       0.64135039
La       0.00000000       0.00000000       5.04646465       0.00000000       0.00000000      -0.64135039
2
Properties=species:S:1:pos:R:3:forces:R:3 energy=-1.2807209801625237 pbc="F F F"
La       0.00000000       0.00000000       0.00000000       0.00000000       0.00000000       0.62206614
La       0.00000000       0.00000000       5.10606061       0.00000000       0.00000000      -0.62206614
2
Properties=species:S:1:pos:R:3:forces:R:3 energy=-1.244198779725305 pbc="F F F"
La       0.00000000       0.00000000       0.00000000       0.00000000       0.00000000       0.60330886
La       0.00000000       0.00000000       5.16565657       0.00000000       0.00000000      -0.60330886
2
Properties=species:S:1:pos:R:3:forces:R:3 energy=-1.2088441141167015 pbc="F F F"
La       0.00000000       0.00000000       0.00000000       0.00000000       0.00000000       0.58271557
La       0.00000000       0.00000000       5.22525253       0.00000000       0.00000000      -0.58271557
2
Properties=species:S:1:pos:R:3:forces:R:3 energy=-1.174832849245575 pbc="F F F"
La       0.00000000       0.00000000       0.00000000       0.00000000       0.00000000       0.55782235
La       0.00000000       0.00000000       5.28484848       0.00000000       0.00000000      -0.55782235
2
Properties=species:S:1:pos:R:3:forces:R:3 energy=-1.1424831167245395 pbc="F F F"
La       0.00000000       0.00000000       0.00000000       0.00000000       0.00000000       0.52656633
La       0.00000000       0.00000000       5.34444444       0.00000000       0.00000000      -0.52656633
2
Properties=species:S:1:pos:R:3:forces:R:3 energy=-1.1122221673518213 pbc="F F F"
La       0.00000000       0.00000000       0.00000000       0.00000000       0.00000000       0.48762360
La       0.00000000       0.00000000       5.40404040       0.00000000       0.00000000      -0.48762360
2
Properties=species:S:1:pos:R:3:forces:R:3 energy=-1.0845147631741547 pbc="F F F"
La       0.00000000       0.00000000       0.00000000       0.00000000       0.00000000       0.44076580
La       0.00000000       0.00000000       5.46363636       0.00000000       0.00000000      -0.44076580
2
Properties=species:S:1:pos:R:3:forces:R:3 energy=-1.0598343440938434 pbc="F F F"
La       0.00000000       0.00000000       0.00000000       0.00000000       0.00000000       0.38688332
La       0.00000000       0.00000000       5.52323232       0.00000000       0.00000000      -0.38688332
2
Properties=species:S:1:pos:R:3:forces:R:3 energy=-1.0385092352139518 pbc="F F F"
La       0.00000000       0.00000000       0.00000000       0.00000000       0.00000000       0.32805783
La       0.00000000       0.00000000       5.58282828       0.00000000       0.00000000      -0.32805783
2
Properties=species:S:1:pos:R:3:forces:R:3 energy=-1.0207735658759727 pbc="F F F"
La       0.00000000       0.00000000       0.00000000       0.00000000       0.00000000       0.26716197
La       0.00000000       0.00000000       5.64242424       0.00000000       0.00000000      -0.26716197
2
Properties=species:S:1:pos:R:3:forces:R:3 energy=-1.0066339441569072 pbc="F F F"
La       0.00000000       0.00000000       0.00000000       0.00000000       0.00000000       0.20754646
La       0.00000000       0.00000000       5.70202020       0.00000000       0.00000000      -0.20754646
2
Properties=species:S:1:pos:R:3:forces:R:3 energy=-0.9959411790959088 pbc="F F F"
La       0.00000000       0.00000000       0.00000000       0.00000000       0.00000000       0.15273879
La       0.00000000       0.00000000       5.76161616       0.00000000       0.00000000      -0.15273879
2
Properties=species:S:1:pos:R:3:forces:R:3 energy=-0.9882750104789823 pbc="F F F"
La       0.00000000       0.00000000       0.00000000       0.00000000       0.00000000       0.10595134
La       0.00000000       0.00000000       5.82121212       0.00000000       0.00000000      -0.10595134
2
Properties=species:S:1:pos:R:3:forces:R:3 energy=-0.9831021918602625 pbc="F F F"
La       0.00000000       0.00000000       0.00000000       0.00000000       0.00000000       0.06999330
La       0.00000000       0.00000000       5.88080808       0.00000000       0.00000000      -0.06999330
2
Properties=species:S:1:pos:R:3:forces:R:3 energy=-0.9796698388455797 pbc="F F F"
La       0.00000000       0.00000000       0.00000000       0.00000000       0.00000000       0.04707248
La       0.00000000       0.00000000       5.94040404       0.00000000       0.00000000      -0.04707248
2
Properties=species:S:1:pos:R:3:forces:R:3 energy=-0.9771897102310176 pbc="F F F"
La       0.00000000       0.00000000       0.00000000       0.00000000       0.00000000       0.03887901
La       0.00000000       0.00000000       6.00000000       0.00000000       0.00000000      -0.03887901
