2
Properties=species:S:1:pos:R:3:forces:R:3 energy=36155.32542562582 pbc="F F F"
Mo       0.00000000       0.00000000       0.00000000       0.00000000       0.00000000 -797599.18750000
Mo       0.00000000       0.00000000       0.10000000       0.00000000       0.00000000  797599.18750000
2
Properties=species:S:1:pos:R:3:forces:R:3 energy=12502.71507406332 pbc="F F F"
Mo       0.00000000       0.00000000       0.00000000       0.00000000       0.00000000 -177730.01562500
Mo       0.00000000       0.00000000       0.15959596       0.00000000       0.00000000  177730.01562500
2
Properties=species:S:1:pos:R:3:forces:R:3 energy=6326.8776717195715 pbc="F F F"
Mo       0.00000000       0.00000000       0.00000000       0.00000000       0.00000000  -56589.94921875
Mo       0.00000000       0.00000000       0.21919192       0.00000000       0.00000000   56589.94921875
2
Properties=species:S:1:pos:R:3:forces:R:3 energy=4170.5241560945715 pbc="F F F"
Mo       0.00000000       0.00000000       0.00000000       0.00000000       0.00000000  -22055.67382812
Mo       0.00000000       0.00000000       0.27878788       0.00000000       0.00000000   22055.67382812
2
Properties=species:S:1:pos:R:3:forces:R:3 energy=3279.078599460282 pbc="F F F"
Mo       0.00000000       0.00000000       0.00000000       0.00000000       0.00000000   -9775.98339844
Mo       0.00000000       0.00000000       0.33838384       0.00000000       0.00000000    9775.98339844
2
Properties=species:S:1:pos:R:3:forces:R:3 energy=2865.4494490759926 pbc="F F F"
Mo       0.00000000       0.00000000       0.00000000       0.00000000       0.00000000   -4811.09423828
Mo       0.00000000       0.00000000       0.39797980       0.00000000       0.00000000    4811.09423828
2
Properties=species:S:1:pos:R:3:forces:R:3 energy=2650.3803572917886 pbc="F F F"
Mo       0.00000000       0.00000000       0.00000000       0.00000000       0.00000000   -2709.08398438
Mo       0.00000000       0.00000000       0.45757576       0.00000000       0.00000000    2709.08398438
2
Properties=species:S:1:pos:R:3:forces:R:3 energy=2517.0092635671313 pbc="F F F"
Mo       0.00000000       0.00000000       0.00000000       0.00000000       0.00000000   -1921.52246094
Mo       0.00000000       0.00000000       0.51717172       0.00000000       0.00000000    1921.52246094
2
Properties=species:S:1:pos:R:3:forces:R:3 energy=2406.741685486481 pbc="F F F"
Mo       0.00000000       0.00000000       0.00000000       0.00000000       0.00000000   -1880.86791992
Mo       0.00000000       0.00000000       0.57676768       0.00000000       0.00000000    1880.86791992
2
Properties=species:S:1:pos:R:3:forces:R:3 energy=2281.947984390634 pbc="F F F"
Mo       0.00000000       0.00000000       0.00000000       0.00000000       0.00000000   -2391.04663086
Mo       0.00000000       0.00000000       0.63636364       0.00000000       0.00000000    2391.04663086
2
Properties=species:S:1:pos:R:3:forces:R:3 energy=2112.5158556110964 pbc="F F F"
Mo       0.00000000       0.00000000       0.00000000       0.00000000       0.00000000   -3362.71118164
Mo       0.00000000       0.00000000       0.69595960       0.00000000       0.00000000    3362.71118164
2
Properties=species:S:1:pos:R:3:forces:R:3 energy=1875.0973987762516 pbc="F F F"
Mo       0.00000000       0.00000000       0.00000000       0.00000000       0.00000000   -4631.22753906
Mo       0.00000000       0.00000000       0.75555556       0.00000000       0.00000000    4631.22753906
2
Properties=species:S:1:pos:R:3:forces:R:3 energy=1561.803087537918 pbc="F F F"
Mo       0.00000000       0.00000000       0.00000000       0.00000000       0.00000000   -5828.25439453
Mo       0.00000000       0.00000000       0.81515152       0.00000000       0.00000000    5828.25439453
2
Properties=species:S:1:pos:R:3:forces:R:3 energy=1192.5119502607579 pbc="F F F"
Mo       0.00000000       0.00000000       0.00000000       0.00000000       0.00000000   -6420.27099609
Mo       0.00000000       0.00000000       0.87474747       0.00000000       0.00000000    6420.27099609
2
Properties=species:S:1:pos:R:3:forces:R:3 energy=816.8291505570041 pbc="F F F"
Mo       0.00000000       0.00000000       0.00000000       0.00000000       0.00000000   -6010.17675781
Mo       0.00000000       0.00000000       0.93434343       0.00000000       0.00000000    6010.17675781
2
Properties=species:S:1:pos:R:3:forces:R:3 energy=494.43043921609916 pbc="F F F"
Mo       0.00000000       0.00000000       0.00000000       0.00000000       0.00000000   -4697.66210938
Mo       0.00000000       0.00000000       0.99393939       0.00000000       0.00000000    4697.66210938
2
Properties=species:S:1:pos:R:3:forces:R:3 energy=263.45165003529814 pbc="F F F"
Mo       0.00000000       0.00000000       0.00000000       0.00000000       0.00000000   -3055.68920898
Mo       0.00000000       0.00000000       1.05353535       0.00000000       0.00000000    3055.68920898
2
Properties=species:S:1:pos:R:3:forces:R:3 energy=124.59445089528032 pbc="F F F"
Mo       0.00000000       0.00000000       0.00000000       0.00000000       0.00000000   -1684.82690430
Mo       0.00000000       0.00000000       1.11313131       0.00000000       0.00000000    1684.82690430
2
Properties=species:S:1:pos:R:3:forces:R:3 energy=52.624997127664614 pbc="F F F"
Mo       0.00000000       0.00000000       0.00000000       0.00000000       0.00000000    -806.97509766
Mo       0.00000000       0.00000000       1.17272727       0.00000000       0.00000000     806.97509766
2
Properties=species:S:1:pos:R:3:forces:R:3 energy=19.692676206111784 pbc="F F F"
Mo       0.00000000       0.00000000       0.00000000       0.00000000       0.00000000    -359.21142578
Mo       0.00000000       0.00000000       1.23232323       0.00000000       0.00000000     359.21142578
2
Properties=species:S:1:pos:R:3:forces:R:3 energy=4.881197033128559 pbc="F F F"
Mo       0.00000000       0.00000000       0.00000000       0.00000000       0.00000000    -169.55911255
Mo       0.00000000       0.00000000       1.29191919       0.00000000       0.00000000     169.55911255
2
Properties=species:S:1:pos:R:3:forces:R:3 energy=-2.1951209020649056 pbc="F F F"
Mo       0.00000000       0.00000000       0.00000000       0.00000000       0.00000000     -71.19739532
Mo       0.00000000       0.00000000       1.35151515       0.00000000       0.00000000      71.19739532
2
Properties=species:S:1:pos:R:3:forces:R:3 energy=-5.089584014331701 pbc="F F F"
Mo       0.00000000       0.00000000       0.00000000       0.00000000       0.00000000     -35.25520325
Mo       0.00000000       0.00000000       1.41111111       0.00000000       0.00000000      35.25520325
2
Properties=species:S:1:pos:R:3:forces:R:3 energy=-6.884335846486677 pbc="F F F"
Mo       0.00000000       0.00000000       0.00000000       0.00000000       0.00000000     -26.93869781
Mo       0.00000000       0.00000000       1.47070707       0.00000000       0.00000000      26.93869781
2
Properties=species:S:1:pos:R:3:forces:R:3 energy=-8.444412168517543 pbc="F F F"
Mo       0.00000000       0.00000000       0.00000000       0.00000000       0.00000000     -25.84596252
Mo       0.00000000       0.00000000       1.53030303       0.00000000       0.00000000      25.84596252
2
Properties=species:S:1:pos:R:3:forces:R:3 energy=-9.924991242225818 pbc="F F F"
Mo       0.00000000       0.00000000       0.00000000       0.00000000       0.00000000     -22.92933464
Mo       0.00000000       0.00000000       1.58989899       0.00000000       0.00000000      22.92933464
2
Properties=species:S:1:pos:R:3:forces:R:3 energy=-11.060657565514543 pbc="F F F"
Mo       0.00000000       0.00000000       0.00000000       0.00000000       0.00000000     -14.50501537
Mo       0.00000000       0.00000000       1.64949495       0.00000000       0.00000000      14.50501537
2
Properties=species:S:1:pos:R:3:forces:R:3 energy=-11.644267947356974 pbc="F F F"
Mo       0.00000000       0.00000000       0.00000000       0.00000000       0.00000000      -5.54842663
Mo       0.00000000       0.00000000       1.70909091       0.00000000       0.00000000       5.54842663
2
Properties=species:S:1:pos:R:3:forces:R:3 energy=-11.807442370369436 pbc="F F F"
Mo       0.00000000       0.00000000       0.00000000       0.00000000       0.00000000      -0.68003178
Mo       0.00000000       0.00000000       1.76868687       0.00000000       0.00000000       0.68003178
2
Properties=species:S:1:pos:R:3:forces:R:3 energy=-11.796806354681825 pbc="F F F"
Mo       0.00000000       0.00000000       0.00000000       0.00000000       0.00000000       0.62687892
Mo       0.00000000       0.00000000       1.82828283       0.00000000       0.00000000      -0.62687892
2
Properties=species:S:1:pos:R:3:forces:R:3 energy=-11.761185140259684 pbc="F F F"
Mo       0.00000000       0.00000000       0.00000000       0.00000000       0.00000000       0.46725792
Mo       0.00000000       0.00000000       1.88787879       0.00000000       0.00000000      -0.46725792
2
Properties=species:S:1:pos:R:3:forces:R:3 energy=-11.74309231469267 pbc="F F F"
Mo       0.00000000       0.00000000       0.00000000       0.00000000       0.00000000       0.17758292
Mo       0.00000000       0.00000000       1.94747475       0.00000000       0.00000000      -0.17758292
2
Properties=species:S:1:pos:R:3:forces:R:3 energy=-11.733105556727756 pbc="F F F"
Mo       0.00000000       0.00000000       0.00000000       0.00000000       0.00000000       0.22086324
Mo       0.00000000       0.00000000       2.00707071       0.00000000       0.00000000      -0.22086324
2
Properties=species:S:1:pos:R:3:forces:R:3 energy=-11.710143220694816 pbc="F F F"
Mo       0.00000000       0.00000000       0.00000000       0.00000000       0.00000000       0.59375417
Mo       0.00000000       0.00000000       2.06666667       0.00000000       0.00000000      -0.59375417
2
Properties=species:S:1:pos:R:3:forces:R:3 energy=-11.658662775423778 pbc="F F F"
Mo       0.00000000       0.00000000       0.00000000       0.00000000       0.00000000       1.15175927
Mo       0.00000000       0.00000000       2.12626263       0.00000000       0.00000000      -1.15175927
2
Properties=species:S:1:pos:R:3:forces:R:3 energy=-11.572173357814346 pbc="F F F"
Mo       0.00000000       0.00000000       0.00000000       0.00000000       0.00000000       1.74498975
Mo       0.00000000       0.00000000       2.18585859       0.00000000       0.00000000      -1.74498975
2
Properties=species:S:1:pos:R:3:forces:R:3 energy=-11.452628399346018 pbc="F F F"
Mo       0.00000000       0.00000000       0.00000000       0.00000000       0.00000000       2.24060488
Mo       0.00000000       0.00000000       2.24545455       0.00000000       0.00000000      -2.24060488
2
Properties=species:S:1:pos:R:3:forces:R:3 energy=-11.309181502255674 pbc="F F F"
Mo       0.00000000       0.00000000       0.00000000       0.00000000       0.00000000       2.53314781
Mo       0.00000000       0.00000000       2.30505051       0.00000000       0.00000000      -2.53314781
2
Properties=species:S:1:pos:R:3:forces:R:3 energy=-11.155854692842974 pbc="F F F"
Mo       0.00000000       0.00000000       0.00000000       0.00000000       0.00000000       2.56855869
Mo       0.00000000       0.00000000       2.36464646       0.00000000       0.00000000      -2.56855869
2
Properties=species:S:1:pos:R:3:forces:R:3 energy=-11.00791622972074 pbc="F F F"
Mo       0.00000000       0.00000000       0.00000000       0.00000000       0.00000000       2.36000443
Mo       0.00000000       0.00000000       2.42424242       0.00000000       0.00000000      -2.36000443
2
Properties=species:S:1:pos:R:3:forces:R:3 energy=-10.87798467886629 pbc="F F F"
Mo       0.00000000       0.00000000       0.00000000       0.00000000       0.00000000       1.98016083
Mo       0.00000000       0.00000000       2.48383838       0.00000000       0.00000000      -1.98016083
2
Properties=species:S:1:pos:R:3:forces:R:3 energy=-10.773213178235702 pbc="F F F"
Mo       0.00000000       0.00000000       0.00000000       0.00000000       0.00000000       1.53400218
Mo       0.00000000       0.00000000       2.54343434       0.00000000       0.00000000      -1.53400218
2
Properties=species:S:1:pos:R:3:forces:R:3 energy=-10.694397361516886 pbc="F F F"
Mo       0.00000000       0.00000000       0.00000000       0.00000000       0.00000000       1.12426853
Mo       0.00000000       0.00000000       2.60303030       0.00000000       0.00000000      -1.12426853
2
Properties=species:S:1:pos:R:3:forces:R:3 energy=-10.637089701610778 pbc="F F F"
Mo       0.00000000       0.00000000       0.00000000       0.00000000       0.00000000       0.81936926
Mo       0.00000000       0.00000000       2.66262626       0.00000000       0.00000000      -0.81936926
2
Properties=species:S:1:pos:R:3:forces:R:3 energy=-10.594304827593838 pbc="F F F"
Mo       0.00000000       0.00000000       0.00000000       0.00000000       0.00000000       0.63520998
Mo       0.00000000       0.00000000       2.72222222       0.00000000       0.00000000      -0.63520998
2
Properties=species:S:1:pos:R:3:forces:R:3 energy=-10.5595254013347 pbc="F F F"
Mo       0.00000000       0.00000000       0.00000000       0.00000000       0.00000000       0.54402065
Mo       0.00000000       0.00000000       2.78181818       0.00000000       0.00000000      -0.54402065
2
Properties=species:S:1:pos:R:3:forces:R:3 energy=-10.528384300103289 pbc="F F F"
Mo       0.00000000       0.00000000       0.00000000       0.00000000       0.00000000       0.50794113
Mo       0.00000000       0.00000000       2.84141414       0.00000000       0.00000000      -0.50794113
2
Properties=species:S:1:pos:R:3:forces:R:3 energy=-10.498237388307922 pbc="F F F"
Mo       0.00000000       0.00000000       0.00000000       0.00000000       0.00000000       0.51026458
Mo       0.00000000       0.00000000       2.90101010       0.00000000       0.00000000      -0.51026458
2
Properties=species:S:1:pos:R:3:forces:R:3 energy=-10.466709344991237 pbc="F F F"
Mo       0.00000000       0.00000000       0.00000000       0.00000000       0.00000000       0.55541170
Mo       0.00000000       0.00000000       2.96060606       0.00000000       0.00000000      -0.55541170
2
Properties=species:S:1:pos:R:3:forces:R:3 energy=-10.431194688738316 pbc="F F F"
Mo       0.00000000       0.00000000       0.00000000       0.00000000       0.00000000       0.64201421
Mo       0.00000000       0.00000000       3.02020202       0.00000000       0.00000000      -0.64201421
2
Properties=species:S:1:pos:R:3:forces:R:3 energy=-10.389798760052228 pbc="F F F"
Mo       0.00000000       0.00000000       0.00000000       0.00000000       0.00000000       0.74795789
Mo       0.00000000       0.00000000       3.07979798       0.00000000       0.00000000      -0.74795789
2
Properties=species:S:1:pos:R:3:forces:R:3 energy=-10.342199666350023 pbc="F F F"
Mo       0.00000000       0.00000000       0.00000000       0.00000000       0.00000000       0.84666455
Mo       0.00000000       0.00000000       3.13939394       0.00000000       0.00000000      -0.84666455
2
Properties=species:S:1:pos:R:3:forces:R:3 energy=-10.289290005317186 pbc="F F F"
Mo       0.00000000       0.00000000       0.00000000       0.00000000       0.00000000       0.92541647
Mo       0.00000000       0.00000000       3.19898990       0.00000000       0.00000000      -0.92541647
2
Properties=species:S:1:pos:R:3:forces:R:3 energy=-10.232272845406614 pbc="F F F"
Mo       0.00000000       0.00000000       0.00000000       0.00000000       0.00000000       0.98543650
Mo       0.00000000       0.00000000       3.25858586       0.00000000       0.00000000      -0.98543650
2
Properties=species:S:1:pos:R:3:forces:R:3 energy=-10.172068968985748 pbc="F F F"
Mo       0.00000000       0.00000000       0.00000000       0.00000000       0.00000000       1.03357208
Mo       0.00000000       0.00000000       3.31818182       0.00000000       0.00000000      -1.03357208
2
Properties=species:S:1:pos:R:3:forces:R:3 energy=-10.109200817950509 pbc="F F F"
Mo       0.00000000       0.00000000       0.00000000       0.00000000       0.00000000       1.07545292
Mo       0.00000000       0.00000000       3.37777778       0.00000000       0.00000000      -1.07545292
2
Properties=species:S:1:pos:R:3:forces:R:3 energy=-10.04398460682338 pbc="F F F"
Mo       0.00000000       0.00000000       0.00000000       0.00000000       0.00000000       1.11209309
Mo       0.00000000       0.00000000       3.43737374       0.00000000       0.00000000      -1.11209309
2
Properties=species:S:1:pos:R:3:forces:R:3 energy=-9.976827338486162 pbc="F F F"
Mo       0.00000000       0.00000000       0.00000000       0.00000000       0.00000000       1.13958418
Mo       0.00000000       0.00000000       3.49696970       0.00000000       0.00000000      -1.13958418
2
Properties=species:S:1:pos:R:3:forces:R:3 energy=-9.90846951103116 pbc="F F F"
Mo       0.00000000       0.00000000       0.00000000       0.00000000       0.00000000       1.15127087
Mo       0.00000000       0.00000000       3.55656566       0.00000000       0.00000000      -1.15127087
2
Properties=species:S:1:pos:R:3:forces:R:3 energy=-9.840039593927088 pbc="F F F"
Mo       0.00000000       0.00000000       0.00000000       0.00000000       0.00000000       1.14122915
Mo       0.00000000       0.00000000       3.61616162       0.00000000       0.00000000      -1.14122915
2
Properties=species:S:1:pos:R:3:forces:R:3 energy=-9.772924616424001 pbc="F F F"
Mo       0.00000000       0.00000000       0.00000000       0.00000000       0.00000000       1.10715818
Mo       0.00000000       0.00000000       3.67575758       0.00000000       0.00000000      -1.10715818
2
Properties=species:S:1:pos:R:3:forces:R:3 energy=-9.708511962568036 pbc="F F F"
Mo       0.00000000       0.00000000       0.00000000       0.00000000       0.00000000       1.05124462
Mo       0.00000000       0.00000000       3.73535354       0.00000000       0.00000000      -1.05124462
2
Properties=species:S:1:pos:R:3:forces:R:3 energy=-9.64795133909661 pbc="F F F"
Mo       0.00000000       0.00000000       0.00000000       0.00000000       0.00000000       0.97893876
Mo       0.00000000       0.00000000       3.79494949       0.00000000       0.00000000      -0.97893876
2
Properties=species:S:1:pos:R:3:forces:R:3 energy=-9.592025744301717 pbc="F F F"
Mo       0.00000000       0.00000000       0.00000000       0.00000000       0.00000000       0.89673072
Mo       0.00000000       0.00000000       3.85454545       0.00000000       0.00000000      -0.89673072
2
Properties=species:S:1:pos:R:3:forces:R:3 energy=-9.541152063580482 pbc="F F F"
Mo       0.00000000       0.00000000       0.00000000       0.00000000       0.00000000       0.81024098
Mo       0.00000000       0.00000000       3.91414141       0.00000000       0.00000000      -0.81024098
2
Properties=species:S:1:pos:R:3:forces:R:3 energy=-9.495459730223176 pbc="F F F"
Mo       0.00000000       0.00000000       0.00000000       0.00000000       0.00000000       0.72326738
Mo       0.00000000       0.00000000       3.97373737       0.00000000       0.00000000      -0.72326738
2
Properties=species:S:1:pos:R:3:forces:R:3 energy=-9.454912393252455 pbc="F F F"
Mo       0.00000000       0.00000000       0.00000000       0.00000000       0.00000000       0.63784975
Mo       0.00000000       0.00000000       4.03333333       0.00000000       0.00000000      -0.63784975
2
Properties=species:S:1:pos:R:3:forces:R:3 energy=-9.419384829253827 pbc="F F F"
Mo       0.00000000       0.00000000       0.00000000       0.00000000       0.00000000       0.55487043
Mo       0.00000000       0.00000000       4.09292929       0.00000000       0.00000000      -0.55487043
2
Properties=species:S:1:pos:R:3:forces:R:3 energy=-9.38871836952762 pbc="F F F"
Mo       0.00000000       0.00000000       0.00000000       0.00000000       0.00000000       0.47479761
Mo       0.00000000       0.00000000       4.15252525       0.00000000       0.00000000      -0.47479761
2
Properties=species:S:1:pos:R:3:forces:R:3 energy=-9.362723805461428 pbc="F F F"
Mo       0.00000000       0.00000000       0.00000000       0.00000000       0.00000000       0.39820355
Mo       0.00000000       0.00000000       4.21212121       0.00000000       0.00000000      -0.39820355
2
Properties=species:S:1:pos:R:3:forces:R:3 energy=-9.341168807030316 pbc="F F F"
Mo       0.00000000       0.00000000       0.00000000       0.00000000       0.00000000       0.32597858
Mo       0.00000000       0.00000000       4.27171717       0.00000000       0.00000000      -0.32597858
2
Properties=species:S:1:pos:R:3:forces:R:3 energy=-9.32375984099868 pbc="F F F"
Mo       0.00000000       0.00000000       0.00000000       0.00000000       0.00000000       0.25929439
Mo       0.00000000       0.00000000       4.33131313       0.00000000       0.00000000      -0.25929439
2
Properties=species:S:1:pos:R:3:forces:R:3 energy=-9.310129608427372 pbc="F F F"
Mo       0.00000000       0.00000000       0.00000000       0.00000000       0.00000000       0.19937201
Mo       0.00000000       0.00000000       4.39090909       0.00000000       0.00000000      -0.19937201
2
Properties=species:S:1:pos:R:3:forces:R:3 energy=-9.299841686332405 pbc="F F F"
Mo       0.00000000       0.00000000       0.00000000       0.00000000       0.00000000       0.14723915
Mo       0.00000000       0.00000000       4.45050505       0.00000000       0.00000000      -0.14723915
2
Properties=species:S:1:pos:R:3:forces:R:3 energy=-9.292411426156534 pbc="F F F"
Mo       0.00000000       0.00000000       0.00000000       0.00000000       0.00000000       0.10353169
Mo       0.00000000       0.00000000       4.51010101       0.00000000       0.00000000      -0.10353169
2
Properties=species:S:1:pos:R:3:forces:R:3 energy=-9.287330476868776 pbc="F F F"
Mo       0.00000000       0.00000000       0.00000000       0.00000000       0.00000000       0.06842081
Mo       0.00000000       0.00000000       4.56969697       0.00000000       0.00000000      -0.06842081
2
Properties=species:S:1:pos:R:3:forces:R:3 energy=-9.284089685819296 pbc="F F F"
Mo       0.00000000       0.00000000       0.00000000       0.00000000       0.00000000       0.04167221
Mo       0.00000000       0.00000000       4.62929293       0.00000000       0.00000000      -0.04167221
2
Properties=species:S:1:pos:R:3:forces:R:3 energy=-9.28220741119362 pbc="F F F"
Mo       0.00000000       0.00000000       0.00000000       0.00000000       0.00000000       0.02275969
Mo       0.00000000       0.00000000       4.68888889       0.00000000       0.00000000      -0.02275969
2
Properties=species:S:1:pos:R:3:forces:R:3 energy=-9.281235161695145 pbc="F F F"
Mo       0.00000000       0.00000000       0.00000000       0.00000000       0.00000000       0.01099513
Mo       0.00000000       0.00000000       4.74848485       0.00000000       0.00000000      -0.01099513
2
Properties=species:S:1:pos:R:3:forces:R:3 energy=-9.280769766228074 pbc="F F F"
Mo       0.00000000       0.00000000       0.00000000       0.00000000       0.00000000       0.00562348
Mo       0.00000000       0.00000000       4.80808081       0.00000000       0.00000000      -0.00562348
2
Properties=species:S:1:pos:R:3:forces:R:3 energy=-9.28045342458256 pbc="F F F"
Mo       0.00000000       0.00000000       0.00000000       0.00000000       0.00000000       0.00585795
Mo       0.00000000       0.00000000       4.86767677       0.00000000       0.00000000      -0.00585795
2
Properties=species:S:1:pos:R:3:forces:R:3 energy=-9.279976318199708 pbc="F F F"
Mo       0.00000000       0.00000000       0.00000000       0.00000000       0.00000000       0.01088147
Mo       0.00000000       0.00000000       4.92727273       0.00000000       0.00000000      -0.01088147
2
Properties=species:S:1:pos:R:3:forces:R:3 energy=-9.279079455355411 pbc="F F F"
Mo       0.00000000       0.00000000       0.00000000       0.00000000       0.00000000       0.01981250
Mo       0.00000000       0.00000000       4.98686869       0.00000000       0.00000000      -0.01981250
2
Properties=species:S:1:pos:R:3:forces:R:3 energy=-9.277556546830768 pbc="F F F"
Mo       0.00000000       0.00000000       0.00000000       0.00000000       0.00000000       0.03166160
Mo       0.00000000       0.00000000       5.04646465       0.00000000       0.00000000      -0.03166160
2
Properties=species:S:1:pos:R:3:forces:R:3 energy=-9.27526913165261 pbc="F F F"
Mo       0.00000000       0.00000000       0.00000000       0.00000000       0.00000000       0.04529851
Mo       0.00000000       0.00000000       5.10606061       0.00000000       0.00000000      -0.04529851
2
Properties=species:S:1:pos:R:3:forces:R:3 energy=-9.272147660648528 pbc="F F F"
Mo       0.00000000       0.00000000       0.00000000       0.00000000       0.00000000       0.05944090
Mo       0.00000000       0.00000000       5.16565657       0.00000000       0.00000000      -0.05944090
2
Properties=species:S:1:pos:R:3:forces:R:3 energy=-9.268201939347017 pbc="F F F"
Mo       0.00000000       0.00000000       0.00000000       0.00000000       0.00000000       0.07270586
Mo       0.00000000       0.00000000       5.22525253       0.00000000       0.00000000      -0.07270586
2
Properties=species:S:1:pos:R:3:forces:R:3 energy=-9.2635258583352 pbc="F F F"
Mo       0.00000000       0.00000000       0.00000000       0.00000000       0.00000000       0.08374877
Mo       0.00000000       0.00000000       5.28484848       0.00000000       0.00000000      -0.08374877
2
Properties=species:S:1:pos:R:3:forces:R:3 energy=-9.25828707073591 pbc="F F F"
Mo       0.00000000       0.00000000       0.00000000       0.00000000       0.00000000       0.09141862
Mo       0.00000000       0.00000000       5.34444444       0.00000000       0.00000000      -0.09141862
2
Properties=species:S:1:pos:R:3:forces:R:3 energy=-9.25271263323998 pbc="F F F"
Mo       0.00000000       0.00000000       0.00000000       0.00000000       0.00000000       0.09492123
Mo       0.00000000       0.00000000       5.40404040       0.00000000       0.00000000      -0.09492123
2
Properties=species:S:1:pos:R:3:forces:R:3 energy=-9.247061463592658 pbc="F F F"
Mo       0.00000000       0.00000000       0.00000000       0.00000000       0.00000000       0.09396255
Mo       0.00000000       0.00000000       5.46363636       0.00000000       0.00000000      -0.09396255
2
Properties=species:S:1:pos:R:3:forces:R:3 energy=-9.24159958307524 pbc="F F F"
Mo       0.00000000       0.00000000       0.00000000       0.00000000       0.00000000       0.08874432
Mo       0.00000000       0.00000000       5.52323232       0.00000000       0.00000000      -0.08874432
2
Properties=species:S:1:pos:R:3:forces:R:3 energy=-9.236555388846881 pbc="F F F"
Mo       0.00000000       0.00000000       0.00000000       0.00000000       0.00000000       0.07997888
Mo       0.00000000       0.00000000       5.58282828       0.00000000       0.00000000      -0.07997888
2
Properties=species:S:1:pos:R:3:forces:R:3 energy=-9.232115839247307 pbc="F F F"
Mo       0.00000000       0.00000000       0.00000000       0.00000000       0.00000000       0.06871082
Mo       0.00000000       0.00000000       5.64242424       0.00000000       0.00000000      -0.06871082
2
Properties=species:S:1:pos:R:3:forces:R:3 energy=-9.22838938721138 pbc="F F F"
Mo       0.00000000       0.00000000       0.00000000       0.00000000       0.00000000       0.05618684
Mo       0.00000000       0.00000000       5.70202020       0.00000000       0.00000000      -0.05618684
2
Properties=species:S:1:pos:R:3:forces:R:3 energy=-9.225419376059026 pbc="F F F"
Mo       0.00000000       0.00000000       0.00000000       0.00000000       0.00000000       0.04368136
Mo       0.00000000       0.00000000       5.76161616       0.00000000       0.00000000      -0.04368136
2
Properties=species:S:1:pos:R:3:forces:R:3 energy=-9.223160203972979 pbc="F F F"
Mo       0.00000000       0.00000000       0.00000000       0.00000000       0.00000000       0.03237826
Mo       0.00000000       0.00000000       5.82121212       0.00000000       0.00000000      -0.03237826
2
Properties=species:S:1:pos:R:3:forces:R:3 energy=-9.221517489193833 pbc="F F F"
Mo       0.00000000       0.00000000       0.00000000       0.00000000       0.00000000       0.02325752
Mo       0.00000000       0.00000000       5.88080808       0.00000000       0.00000000      -0.02325752
2
Properties=species:S:1:pos:R:3:forces:R:3 energy=-9.22032804602723 pbc="F F F"
Mo       0.00000000       0.00000000       0.00000000       0.00000000       0.00000000       0.01707814
Mo       0.00000000       0.00000000       5.94040404       0.00000000       0.00000000      -0.01707814
2
Properties=species:S:1:pos:R:3:forces:R:3 energy=-9.219410488187338 pbc="F F F"
Mo       0.00000000       0.00000000       0.00000000       0.00000000       0.00000000       0.01437535
Mo       0.00000000       0.00000000       6.00000000       0.00000000       0.00000000      -0.01437535
