2
Properties=species:S:1:pos:R:3:forces:R:3 energy=11710.426903500878 pbc="F F F"
Nd       0.00000000       0.00000000       0.00000000       0.00000000       0.00000000 -199983.78125000
Nd       0.00000000       0.00000000       0.18000000       0.00000000       0.00000000  199983.78125000
2
Properties=species:S:1:pos:R:3:forces:R:3 energy=4661.451805844628 pbc="F F F"
Nd       0.00000000       0.00000000       0.00000000       0.00000000       0.00000000  -67531.46875000
Nd       0.00000000       0.00000000       0.23878788       0.00000000       0.00000000   67531.46875000
2
Properties=species:S:1:pos:R:3:forces:R:3 energy=2094.7389152196283 pbc="F F F"
Nd       0.00000000       0.00000000       0.00000000       0.00000000       0.00000000  -26857.14062500
Nd       0.00000000       0.00000000       0.29757576       0.00000000       0.00000000   26857.14062500
2
Properties=species:S:1:pos:R:3:forces:R:3 energy=1024.9623038915033 pbc="F F F"
Nd       0.00000000       0.00000000       0.00000000       0.00000000       0.00000000  -11820.03417969
Nd       0.00000000       0.00000000       0.35636364       0.00000000       0.00000000   11820.03417969
2
Properties=species:S:1:pos:R:3:forces:R:3 energy=538.5291984354247 pbc="F F F"
Nd       0.00000000       0.00000000       0.00000000       0.00000000       0.00000000   -5585.45898438
Nd       0.00000000       0.00000000       0.41515152       0.00000000       0.00000000    5585.45898438
2
Properties=species:S:1:pos:R:3:forces:R:3 energy=302.6950004500491 pbc="F F F"
Nd       0.00000000       0.00000000       0.00000000       0.00000000       0.00000000   -2792.27441406
Nd       0.00000000       0.00000000       0.47393939       0.00000000       0.00000000    2792.27441406
2
Properties=species:S:1:pos:R:3:forces:R:3 energy=182.18026047248603 pbc="F F F"
Nd       0.00000000       0.00000000       0.00000000       0.00000000       0.00000000   -1464.80029297
Nd       0.00000000       0.00000000       0.53272727       0.00000000       0.00000000    1464.80029297
2
Properties=species:S:1:pos:R:3:forces:R:3 energy=117.71727070337097 pbc="F F F"
Nd       0.00000000       0.00000000       0.00000000       0.00000000       0.00000000    -801.74322510
Nd       0.00000000       0.00000000       0.59151515       0.00000000       0.00000000     801.74322510
2
Properties=species:S:1:pos:R:3:forces:R:3 energy=81.81617059536472 pbc="F F F"
Nd       0.00000000       0.00000000       0.00000000       0.00000000       0.00000000    -455.66641235
Nd       0.00000000       0.00000000       0.65030303       0.00000000       0.00000000     455.66641235
2
Properties=species:S:1:pos:R:3:forces:R:3 energy=61.08562944214441 pbc="F F F"
Nd       0.00000000       0.00000000       0.00000000       0.00000000       0.00000000    -268.11877441
Nd       0.00000000       0.00000000       0.70909091       0.00000000       0.00000000     268.11877441
2
Properties=species:S:1:pos:R:3:forces:R:3 energy=48.68251903936433 pbc="F F F"
Nd       0.00000000       0.00000000       0.00000000       0.00000000       0.00000000    -163.88442993
Nd       0.00000000       0.00000000       0.76787879       0.00000000       0.00000000     163.88442993
2
Properties=species:S:1:pos:R:3:forces:R:3 energy=40.91599394820768 pbc="F F F"
Nd       0.00000000       0.00000000       0.00000000       0.00000000       0.00000000    -106.20204163
Nd       0.00000000       0.00000000       0.82666667       0.00000000       0.00000000     106.20204163
2
Properties=species:S:1:pos:R:3:forces:R:3 energy=35.64707711789322 pbc="F F F"
Nd       0.00000000       0.00000000       0.00000000       0.00000000       0.00000000     -76.80464172
Nd       0.00000000       0.00000000       0.88545455       0.00000000       0.00000000      76.80464172
2
Properties=species:S:1:pos:R:3:forces:R:3 energy=31.516921909334805 pbc="F F F"
Nd       0.00000000       0.00000000       0.00000000       0.00000000       0.00000000     -66.33174896
Nd       0.00000000       0.00000000       0.94424242       0.00000000       0.00000000      66.33174896
2
Properties=species:S:1:pos:R:3:forces:R:3 energy=27.5909675594469 pbc="F F F"
Nd       0.00000000       0.00000000       0.00000000       0.00000000       0.00000000     -68.98251343
Nd       0.00000000       0.00000000       1.00303030       0.00000000       0.00000000      68.98251343
2
Properties=species:S:1:pos:R:3:forces:R:3 energy=23.257790639154297 pbc="F F F"
Nd       0.00000000       0.00000000       0.00000000       0.00000000       0.00000000     -79.15501404
Nd       0.00000000       0.00000000       1.06181818       0.00000000       0.00000000      79.15501404
2
Properties=species:S:1:pos:R:3:forces:R:3 energy=18.274990050752702 pbc="F F F"
Nd       0.00000000       0.00000000       0.00000000       0.00000000       0.00000000     -89.74156189
Nd       0.00000000       0.00000000       1.12060606       0.00000000       0.00000000      89.74156189
2
Properties=species:S:1:pos:R:3:forces:R:3 energy=12.866936826690747 pbc="F F F"
Nd       0.00000000       0.00000000       0.00000000       0.00000000       0.00000000     -92.15442657
Nd       0.00000000       0.00000000       1.17939394       0.00000000       0.00000000      92.15442657
2
Properties=species:S:1:pos:R:3:forces:R:3 energy=7.742407968489765 pbc="F F F"
Nd       0.00000000       0.00000000       0.00000000       0.00000000       0.00000000     -79.50903320
Nd       0.00000000       0.00000000       1.23818182       0.00000000       0.00000000      79.50903320
2
Properties=species:S:1:pos:R:3:forces:R:3 energy=3.75312290625996 pbc="F F F"
Nd       0.00000000       0.00000000       0.00000000       0.00000000       0.00000000     -55.28840256
Nd       0.00000000       0.00000000       1.29696970       0.00000000       0.00000000      55.28840256
2
Properties=species:S:1:pos:R:3:forces:R:3 energy=1.233557892704904 pbc="F F F"
Nd       0.00000000       0.00000000       0.00000000       0.00000000       0.00000000     -31.14015388
Nd       0.00000000       0.00000000       1.35575758       0.00000000       0.00000000      31.14015388
2
Properties=species:S:1:pos:R:3:forces:R:3 energy=-0.03428491741118417 pbc="F F F"
Nd       0.00000000       0.00000000       0.00000000       0.00000000       0.00000000     -13.42414474
Nd       0.00000000       0.00000000       1.41454545       0.00000000       0.00000000      13.42414474
2
Properties=species:S:1:pos:R:3:forces:R:3 energy=-0.5405427188826908 pbc="F F F"
Nd       0.00000000       0.00000000       0.00000000       0.00000000       0.00000000      -5.44906330
Nd       0.00000000       0.00000000       1.47333333       0.00000000       0.00000000       5.44906330
2
Properties=species:S:1:pos:R:3:forces:R:3 energy=-0.8216144432333979 pbc="F F F"
Nd       0.00000000       0.00000000       0.00000000       0.00000000       0.00000000      -4.83876848
Nd       0.00000000       0.00000000       1.53212121       0.00000000       0.00000000       4.83876848
2
Properties=species:S:1:pos:R:3:forces:R:3 energy=-1.1402292680289758 pbc="F F F"
Nd       0.00000000       0.00000000       0.00000000       0.00000000       0.00000000      -5.90754032
Nd       0.00000000       0.00000000       1.59090909       0.00000000       0.00000000       5.90754032
2
Properties=species:S:1:pos:R:3:forces:R:3 energy=-1.4809010563766112 pbc="F F F"
Nd       0.00000000       0.00000000       0.00000000       0.00000000       0.00000000      -5.25871038
Nd       0.00000000       0.00000000       1.64969697       0.00000000       0.00000000       5.25871038
2
Properties=species:S:1:pos:R:3:forces:R:3 energy=-1.7087065050641899 pbc="F F F"
Nd       0.00000000       0.00000000       0.00000000       0.00000000       0.00000000      -2.14656615
Nd       0.00000000       0.00000000       1.70848485       0.00000000       0.00000000       2.14656615
2
Properties=species:S:1:pos:R:3:forces:R:3 energy=-1.7124041392380225 pbc="F F F"
Nd       0.00000000       0.00000000       0.00000000       0.00000000       0.00000000       2.00655460
Nd       0.00000000       0.00000000       1.76727273       0.00000000       0.00000000      -2.00655460
2
Properties=species:S:1:pos:R:3:forces:R:3 energy=-1.4946155945867174 pbc="F F F"
Nd       0.00000000       0.00000000       0.00000000       0.00000000       0.00000000       5.08699131
Nd       0.00000000       0.00000000       1.82606061       0.00000000       0.00000000      -5.08699131
2
Properties=species:S:1:pos:R:3:forces:R:3 energy=-1.1578892169276669 pbc="F F F"
Nd       0.00000000       0.00000000       0.00000000       0.00000000       0.00000000       5.98952675
Nd       0.00000000       0.00000000       1.88484848       0.00000000       0.00000000      -5.98952675
2
Properties=species:S:1:pos:R:3:forces:R:3 energy=-0.82965008366999 pbc="F F F"
Nd       0.00000000       0.00000000       0.00000000       0.00000000       0.00000000       4.91414261
Nd       0.00000000       0.00000000       1.94363636       0.00000000       0.00000000      -4.91414261
2
Properties=species:S:1:pos:R:3:forces:R:3 energy=-0.6000296592658063 pbc="F F F"
Nd       0.00000000       0.00000000       0.00000000       0.00000000       0.00000000       2.82602429
Nd       0.00000000       0.00000000       2.00242424       0.00000000       0.00000000      -2.82602429
2
Properties=species:S:1:pos:R:3:forces:R:3 energy=-0.4958699237643522 pbc="F F F"
Nd       0.00000000       0.00000000       0.00000000       0.00000000       0.00000000       0.79477310
Nd       0.00000000       0.00000000       2.06121212       0.00000000       0.00000000      -0.79477310
2
Properties=species:S:1:pos:R:3:forces:R:3 energy=-0.49409944263125105 pbc="F F F"
Nd       0.00000000       0.00000000       0.00000000       0.00000000       0.00000000      -0.62000680
Nd       0.00000000       0.00000000       2.12000000       0.00000000       0.00000000       0.62000680
2
Properties=species:S:1:pos:R:3:forces:R:3 energy=-0.556629578814391 pbc="F F F"
Nd       0.00000000       0.00000000       0.00000000       0.00000000       0.00000000      -1.42109835
Nd       0.00000000       0.00000000       2.17878788       0.00000000       0.00000000       1.42109835
2
Properties=species:S:1:pos:R:3:forces:R:3 energy=-0.6532016429994928 pbc="F F F"
Nd       0.00000000       0.00000000       0.00000000       0.00000000       0.00000000      -1.81287575
Nd       0.00000000       0.00000000       2.23757576       0.00000000       0.00000000       1.81287575
2
Properties=species:S:1:pos:R:3:forces:R:3 energy=-0.7651932797795864 pbc="F F F"
Nd       0.00000000       0.00000000       0.00000000       0.00000000       0.00000000      -1.96831620
Nd       0.00000000       0.00000000       2.29636364       0.00000000       0.00000000       1.96831620
2
Properties=species:S:1:pos:R:3:forces:R:3 energy=-0.8821261554898897 pbc="F F F"
Nd       0.00000000       0.00000000       0.00000000       0.00000000       0.00000000      -1.99475002
Nd       0.00000000       0.00000000       2.35515152       0.00000000       0.00000000       1.99475002
2
Properties=species:S:1:pos:R:3:forces:R:3 energy=-0.9985126296208658 pbc="F F F"
Nd       0.00000000       0.00000000       0.00000000       0.00000000       0.00000000      -1.95837045
Nd       0.00000000       0.00000000       2.41393939       0.00000000       0.00000000       1.95837045
2
Properties=species:S:1:pos:R:3:forces:R:3 energy=-1.111972235372032 pbc="F F F"
Nd       0.00000000       0.00000000       0.00000000       0.00000000       0.00000000      -1.90040004
Nd       0.00000000       0.00000000       2.47272727       0.00000000       0.00000000       1.90040004
2
Properties=species:S:1:pos:R:3:forces:R:3 energy=-1.2219806757766354 pbc="F F F"
Nd       0.00000000       0.00000000       0.00000000       0.00000000       0.00000000      -1.84331644
Nd       0.00000000       0.00000000       2.53151515       0.00000000       0.00000000       1.84331644
2
Properties=species:S:1:pos:R:3:forces:R:3 energy=-1.3288816434636133 pbc="F F F"
Nd       0.00000000       0.00000000       0.00000000       0.00000000       0.00000000      -1.79510534
Nd       0.00000000       0.00000000       2.59030303       0.00000000       0.00000000       1.79510534
2
Properties=species:S:1:pos:R:3:forces:R:3 energy=-1.4331864393230112 pbc="F F F"
Nd       0.00000000       0.00000000       0.00000000       0.00000000       0.00000000      -1.75416028
Nd       0.00000000       0.00000000       2.64909091       0.00000000       0.00000000       1.75416028
2
Properties=species:S:1:pos:R:3:forces:R:3 energy=-1.535152952053761 pbc="F F F"
Nd       0.00000000       0.00000000       0.00000000       0.00000000       0.00000000      -1.71446216
Nd       0.00000000       0.00000000       2.70787879       0.00000000       0.00000000       1.71446216
2
Properties=species:S:1:pos:R:3:forces:R:3 energy=-1.6346686490782951 pbc="F F F"
Nd       0.00000000       0.00000000       0.00000000       0.00000000       0.00000000      -1.66987288
Nd       0.00000000       0.00000000       2.76666667       0.00000000       0.00000000       1.66987288
2
Properties=species:S:1:pos:R:3:forces:R:3 energy=-1.7313097095178545 pbc="F F F"
Nd       0.00000000       0.00000000       0.00000000       0.00000000       0.00000000      -1.61614752
Nd       0.00000000       0.00000000       2.82545455       0.00000000       0.00000000       1.61614752
2
Properties=species:S:1:pos:R:3:forces:R:3 energy=-1.8244487335373973 pbc="F F F"
Nd       0.00000000       0.00000000       0.00000000       0.00000000       0.00000000      -1.55019164
Nd       0.00000000       0.00000000       2.88424242       0.00000000       0.00000000       1.55019164
2
Properties=species:S:1:pos:R:3:forces:R:3 energy=-1.9132591404180228 pbc="F F F"
Nd       0.00000000       0.00000000       0.00000000       0.00000000       0.00000000      -1.46807683
Nd       0.00000000       0.00000000       2.94303030       0.00000000       0.00000000       1.46807683
2
Properties=species:S:1:pos:R:3:forces:R:3 energy=-1.9966276004143066 pbc="F F F"
Nd       0.00000000       0.00000000       0.00000000       0.00000000       0.00000000      -1.36386335
Nd       0.00000000       0.00000000       3.00181818       0.00000000       0.00000000       1.36386335
2
Properties=species:S:1:pos:R:3:forces:R:3 energy=-2.073045947606639 pbc="F F F"
Nd       0.00000000       0.00000000       0.00000000       0.00000000       0.00000000      -1.23055947
Nd       0.00000000       0.00000000       3.06060606       0.00000000       0.00000000       1.23055947
2
Properties=species:S:1:pos:R:3:forces:R:3 energy=-2.1406330102084064 pbc="F F F"
Nd       0.00000000       0.00000000       0.00000000       0.00000000       0.00000000      -1.06286752
Nd       0.00000000       0.00000000       3.11939394       0.00000000       0.00000000       1.06286752
2
Properties=species:S:1:pos:R:3:forces:R:3 energy=-2.1973224262175712 pbc="F F F"
Nd       0.00000000       0.00000000       0.00000000       0.00000000       0.00000000      -0.86012614
Nd       0.00000000       0.00000000       3.17818182       0.00000000       0.00000000       0.86012614
2
Properties=species:S:1:pos:R:3:forces:R:3 energy=-2.2411761713517895 pbc="F F F"
Nd       0.00000000       0.00000000       0.00000000       0.00000000       0.00000000      -0.62755972
Nd       0.00000000       0.00000000       3.23696970       0.00000000       0.00000000       0.62755972
2
Properties=species:S:1:pos:R:3:forces:R:3 energy=-2.270715626252162 pbc="F F F"
Nd       0.00000000       0.00000000       0.00000000       0.00000000       0.00000000      -0.37505299
Nd       0.00000000       0.00000000       3.29575758       0.00000000       0.00000000       0.37505299
2
Properties=species:S:1:pos:R:3:forces:R:3 energy=-2.285118035728323 pbc="F F F"
Nd       0.00000000       0.00000000       0.00000000       0.00000000       0.00000000      -0.11464065
Nd       0.00000000       0.00000000       3.35454545       0.00000000       0.00000000       0.11464065
2
Properties=species:S:1:pos:R:3:forces:R:3 energy=-2.28427982673017 pbc="F F F"
Nd       0.00000000       0.00000000       0.00000000       0.00000000       0.00000000       0.14142467
Nd       0.00000000       0.00000000       3.41333333       0.00000000       0.00000000      -0.14142467
2
Properties=species:S:1:pos:R:3:forces:R:3 energy=-2.2688082003411507 pbc="F F F"
Nd       0.00000000       0.00000000       0.00000000       0.00000000       0.00000000       0.38124189
Nd       0.00000000       0.00000000       3.47212121       0.00000000       0.00000000      -0.38124189
2
Properties=species:S:1:pos:R:3:forces:R:3 energy=-2.24000075449335 pbc="F F F"
Nd       0.00000000       0.00000000       0.00000000       0.00000000       0.00000000       0.59329599
Nd       0.00000000       0.00000000       3.53090909       0.00000000       0.00000000      -0.59329599
2
Properties=species:S:1:pos:R:3:forces:R:3 energy=-2.199798388794518 pbc="F F F"
Nd       0.00000000       0.00000000       0.00000000       0.00000000       0.00000000       0.76730251
Nd       0.00000000       0.00000000       3.58969697       0.00000000       0.00000000      -0.76730251
2
Properties=species:S:1:pos:R:3:forces:R:3 energy=-2.1506695598115133 pbc="F F F"
Nd       0.00000000       0.00000000       0.00000000       0.00000000       0.00000000       0.89630002
Nd       0.00000000       0.00000000       3.64848485       0.00000000       0.00000000      -0.89630002
2
Properties=species:S:1:pos:R:3:forces:R:3 energy=-2.095326456423173 pbc="F F F"
Nd       0.00000000       0.00000000       0.00000000       0.00000000       0.00000000       0.97908443
Nd       0.00000000       0.00000000       3.70727273       0.00000000       0.00000000      -0.97908443
2
Properties=species:S:1:pos:R:3:forces:R:3 energy=-2.0363494272017815 pbc="F F F"
Nd       0.00000000       0.00000000       0.00000000       0.00000000       0.00000000       1.02138889
Nd       0.00000000       0.00000000       3.76606061       0.00000000       0.00000000      -1.02138889
2
Properties=species:S:1:pos:R:3:forces:R:3 energy=-1.975806063551401 pbc="F F F"
Nd       0.00000000       0.00000000       0.00000000       0.00000000       0.00000000       1.03464866
Nd       0.00000000       0.00000000       3.82484848       0.00000000       0.00000000      -1.03464866
2
Properties=species:S:1:pos:R:3:forces:R:3 energy=-1.9150002514820756 pbc="F F F"
Nd       0.00000000       0.00000000       0.00000000       0.00000000       0.00000000       1.03252947
Nd       0.00000000       0.00000000       3.88363636       0.00000000       0.00000000      -1.03252947
2
Properties=species:S:1:pos:R:3:forces:R:3 energy=-1.8544721410995644 pbc="F F F"
Nd       0.00000000       0.00000000       0.00000000       0.00000000       0.00000000       1.02683020
Nd       0.00000000       0.00000000       3.94242424       0.00000000       0.00000000      -1.02683020
2
Properties=species:S:1:pos:R:3:forces:R:3 energy=-1.794199100621349 pbc="F F F"
Nd       0.00000000       0.00000000       0.00000000       0.00000000       0.00000000       1.02459145
Nd       0.00000000       0.00000000       4.00121212       0.00000000       0.00000000      -1.02459145
2
Properties=species:S:1:pos:R:3:forces:R:3 energy=-1.733904113144606 pbc="F F F"
Nd       0.00000000       0.00000000       0.00000000       0.00000000       0.00000000       1.02739906
Nd       0.00000000       0.00000000       4.06000000       0.00000000       0.00000000      -1.02739906
2
Properties=species:S:1:pos:R:3:forces:R:3 energy=-1.6733520422410106 pbc="F F F"
Nd       0.00000000       0.00000000       0.00000000       0.00000000       0.00000000       1.03268325
Nd       0.00000000       0.00000000       4.11878788       0.00000000       0.00000000      -1.03268325
2
Properties=species:S:1:pos:R:3:forces:R:3 energy=-1.6125248822836638 pbc="F F F"
Nd       0.00000000       0.00000000       0.00000000       0.00000000       0.00000000       1.03593826
Nd       0.00000000       0.00000000       4.17757576       0.00000000       0.00000000      -1.03593826
2
Properties=species:S:1:pos:R:3:forces:R:3 energy=-1.551676652909037 pbc="F F F"
Nd       0.00000000       0.00000000       0.00000000       0.00000000       0.00000000       1.03276122
Nd       0.00000000       0.00000000       4.23636364       0.00000000       0.00000000      -1.03276122
2
Properties=species:S:1:pos:R:3:forces:R:3 energy=-1.4912827275653169 pbc="F F F"
Nd       0.00000000       0.00000000       0.00000000       0.00000000       0.00000000       1.02010906
Nd       0.00000000       0.00000000       4.29515152       0.00000000       0.00000000      -1.02010906
2
Properties=species:S:1:pos:R:3:forces:R:3 energy=-1.4319493686688287 pbc="F F F"
Nd       0.00000000       0.00000000       0.00000000       0.00000000       0.00000000       0.99671173
Nd       0.00000000       0.00000000       4.35393939       0.00000000       0.00000000      -0.99671173
2
Properties=species:S:1:pos:R:3:forces:R:3 energy=-1.3743000756336325 pbc="F F F"
Nd       0.00000000       0.00000000       0.00000000       0.00000000       0.00000000       0.96291304
Nd       0.00000000       0.00000000       4.41272727       0.00000000       0.00000000      -0.96291304
2
Properties=species:S:1:pos:R:3:forces:R:3 energy=-1.3189063697917558 pbc="F F F"
Nd       0.00000000       0.00000000       0.00000000       0.00000000       0.00000000       0.92030209
Nd       0.00000000       0.00000000       4.47151515       0.00000000       0.00000000      -0.92030209
2
Properties=species:S:1:pos:R:3:forces:R:3 energy=-1.2662197080498798 pbc="F F F"
Nd       0.00000000       0.00000000       0.00000000       0.00000000       0.00000000       0.87126553
Nd       0.00000000       0.00000000       4.53030303       0.00000000       0.00000000      -0.87126553
2
Properties=species:S:1:pos:R:3:forces:R:3 energy=-1.2165392203534289 pbc="F F F"
Nd       0.00000000       0.00000000       0.00000000       0.00000000       0.00000000       0.81855720
Nd       0.00000000       0.00000000       4.58909091       0.00000000       0.00000000      -0.81855720
2
Properties=species:S:1:pos:R:3:forces:R:3 energy=-1.1699967221622605 pbc="F F F"
Nd       0.00000000       0.00000000       0.00000000       0.00000000       0.00000000       0.76491183
Nd       0.00000000       0.00000000       4.64787879       0.00000000       0.00000000      -0.76491183
2
Properties=species:S:1:pos:R:3:forces:R:3 energy=-1.1265750473386795 pbc="F F F"
Nd       0.00000000       0.00000000       0.00000000       0.00000000       0.00000000       0.71267629
Nd       0.00000000       0.00000000       4.70666667       0.00000000       0.00000000      -0.71267629
2
Properties=species:S:1:pos:R:3:forces:R:3 energy=-1.0861394203654744 pbc="F F F"
Nd       0.00000000       0.00000000       0.00000000       0.00000000       0.00000000       0.66363412
Nd       0.00000000       0.00000000       4.76545455       0.00000000       0.00000000      -0.66363412
2
Properties=species:S:1:pos:R:3:forces:R:3 energy=-1.048463154867306 pbc="F F F"
Nd       0.00000000       0.00000000       0.00000000       0.00000000       0.00000000       0.61888433
Nd       0.00000000       0.00000000       4.82424242       0.00000000       0.00000000      -0.61888433
2
Properties=species:S:1:pos:R:3:forces:R:3 energy=-1.013281326885381 pbc="F F F"
Nd       0.00000000       0.00000000       0.00000000       0.00000000       0.00000000       0.57893902
Nd       0.00000000       0.00000000       4.88303030       0.00000000       0.00000000      -0.57893902
2
Properties=species:S:1:pos:R:3:forces:R:3 energy=-0.9802998094408802 pbc="F F F"
Nd       0.00000000       0.00000000       0.00000000       0.00000000       0.00000000       0.54382759
Nd       0.00000000       0.00000000       4.94181818       0.00000000       0.00000000      -0.54382759
2
Properties=species:S:1:pos:R:3:forces:R:3 energy=-0.9492491551338357 pbc="F F F"
Nd       0.00000000       0.00000000       0.00000000       0.00000000       0.00000000       0.51319975
Nd       0.00000000       0.00000000       5.00060606       0.00000000       0.00000000      -0.51319975
2
Properties=species:S:1:pos:R:3:forces:R:3 energy=-0.9198830881880304 pbc="F F F"
Nd       0.00000000       0.00000000       0.00000000       0.00000000       0.00000000       0.48641518
Nd       0.00000000       0.00000000       5.05939394       0.00000000       0.00000000      -0.48641518
2
Properties=species:S:1:pos:R:3:forces:R:3 energy=-0.8920016488921525 pbc="F F F"
Nd       0.00000000       0.00000000       0.00000000       0.00000000       0.00000000       0.46251956
Nd       0.00000000       0.00000000       5.11818182       0.00000000       0.00000000      -0.46251956
2
Properties=species:S:1:pos:R:3:forces:R:3 energy=-0.8654710381947064 pbc="F F F"
Nd       0.00000000       0.00000000       0.00000000       0.00000000       0.00000000       0.44029284
Nd       0.00000000       0.00000000       5.17696970       0.00000000       0.00000000      -0.44029284
2
Properties=species:S:1:pos:R:3:forces:R:3 energy=-0.840231316790632 pbc="F F F"
Nd       0.00000000       0.00000000       0.00000000       0.00000000       0.00000000       0.41832900
Nd       0.00000000       0.00000000       5.23575758       0.00000000       0.00000000      -0.41832900
2
Properties=species:S:1:pos:R:3:forces:R:3 energy=-0.8163115055192597 pbc="F F F"
Nd       0.00000000       0.00000000       0.00000000       0.00000000       0.00000000       0.39512947
Nd       0.00000000       0.00000000       5.29454545       0.00000000       0.00000000      -0.39512947
2
Properties=species:S:1:pos:R:3:forces:R:3 energy=-0.7938227219106702 pbc="F F F"
Nd       0.00000000       0.00000000       0.00000000       0.00000000       0.00000000       0.36936864
Nd       0.00000000       0.00000000       5.35333333       0.00000000       0.00000000      -0.36936864
2
Properties=species:S:1:pos:R:3:forces:R:3 energy=-0.7729493563623645 pbc="F F F"
Nd       0.00000000       0.00000000       0.00000000       0.00000000       0.00000000       0.34008849
Nd       0.00000000       0.00000000       5.41212121       0.00000000       0.00000000      -0.34008849
2
Properties=species:S:1:pos:R:3:forces:R:3 energy=-0.7539119612042995 pbc="F F F"
Nd       0.00000000       0.00000000       0.00000000       0.00000000       0.00000000       0.30697343
Nd       0.00000000       0.00000000       5.47090909       0.00000000       0.00000000      -0.30697343
2
Properties=species:S:1:pos:R:3:forces:R:3 energy=-0.7369256163945068 pbc="F F F"
Nd       0.00000000       0.00000000       0.00000000       0.00000000       0.00000000       0.27037513
Nd       0.00000000       0.00000000       5.52969697       0.00000000       0.00000000      -0.27037513
2
Properties=species:S:1:pos:R:3:forces:R:3 energy=-0.722169521062816 pbc="F F F"
Nd       0.00000000       0.00000000       0.00000000       0.00000000       0.00000000       0.23138128
Nd       0.00000000       0.00000000       5.58848485       0.00000000       0.00000000      -0.23138128
2
Properties=species:S:1:pos:R:3:forces:R:3 energy=-0.7097367277883748 pbc="F F F"
Nd       0.00000000       0.00000000       0.00000000       0.00000000       0.00000000       0.19162108
Nd       0.00000000       0.00000000       5.64727273       0.00000000       0.00000000      -0.19162108
2
Properties=species:S:1:pos:R:3:forces:R:3 energy=-0.6996183919662367 pbc="F F F"
Nd       0.00000000       0.00000000       0.00000000       0.00000000       0.00000000       0.15308772
Nd       0.00000000       0.00000000       5.70606061       0.00000000       0.00000000      -0.15308772
2
Properties=species:S:1:pos:R:3:forces:R:3 energy=-0.691666506233087 pbc="F F F"
Nd       0.00000000       0.00000000       0.00000000       0.00000000       0.00000000       0.11782178
Nd       0.00000000       0.00000000       5.76484848       0.00000000       0.00000000      -0.11782178
2
Properties=species:S:1:pos:R:3:forces:R:3 energy=-0.6856573768300829 pbc="F F F"
Nd       0.00000000       0.00000000       0.00000000       0.00000000       0.00000000       0.08780804
Nd       0.00000000       0.00000000       5.82363636       0.00000000       0.00000000      -0.08780804
2
Properties=species:S:1:pos:R:3:forces:R:3 energy=-0.6812163610234246 pbc="F F F"
Nd       0.00000000       0.00000000       0.00000000       0.00000000       0.00000000       0.06468931
Nd       0.00000000       0.00000000       5.88242424       0.00000000       0.00000000      -0.06468931
2
Properties=species:S:1:pos:R:3:forces:R:3 energy=-0.6778904298837309 pbc="F F F"
Nd       0.00000000       0.00000000       0.00000000       0.00000000       0.00000000       0.04979283
Nd       0.00000000       0.00000000       5.94121212       0.00000000       0.00000000      -0.04979283
2
Properties=species:S:1:pos:R:3:forces:R:3 energy=-0.6751776080608068 pbc="F F F"
Nd       0.00000000       0.00000000       0.00000000       0.00000000       0.00000000       0.04415693
Nd       0.00000000       0.00000000       6.00000000       0.00000000       0.00000000      -0.04415693
