2
Properties=species:S:1:pos:R:3:forces:R:3 energy=16394.354088492524 pbc="F F F"
Os       0.00000000       0.00000000       0.00000000       0.00000000       0.00000000 -284075.90625000
Os       0.00000000       0.00000000       0.18000000       0.00000000       0.00000000  284075.90625000
2
Properties=species:S:1:pos:R:3:forces:R:3 energy=6483.584068961275 pbc="F F F"
Os       0.00000000       0.00000000       0.00000000       0.00000000       0.00000000  -93546.88281250
Os       0.00000000       0.00000000       0.23878788       0.00000000       0.00000000   93546.88281250
2
Properties=species:S:1:pos:R:3:forces:R:3 energy=2967.422936155111 pbc="F F F"
Os       0.00000000       0.00000000       0.00000000       0.00000000       0.00000000  -36225.35937500
Os       0.00000000       0.00000000       0.29757576       0.00000000       0.00000000   36225.35937500
2
Properties=species:S:1:pos:R:3:forces:R:3 energy=1541.568688108236 pbc="F F F"
Os       0.00000000       0.00000000       0.00000000       0.00000000       0.00000000  -15507.34277344
Os       0.00000000       0.00000000       0.35636364       0.00000000       0.00000000   15507.34277344
2
Properties=species:S:1:pos:R:3:forces:R:3 energy=911.1617667215174 pbc="F F F"
Os       0.00000000       0.00000000       0.00000000       0.00000000       0.00000000   -7124.05615234
Os       0.00000000       0.00000000       0.41515152       0.00000000       0.00000000    7124.05615234
2
Properties=species:S:1:pos:R:3:forces:R:3 energy=614.2737662395718 pbc="F F F"
Os       0.00000000       0.00000000       0.00000000       0.00000000       0.00000000   -3455.32958984
Os       0.00000000       0.00000000       0.47393939       0.00000000       0.00000000    3455.32958984
2
Properties=species:S:1:pos:R:3:forces:R:3 energy=467.3088614734225 pbc="F F F"
Os       0.00000000       0.00000000       0.00000000       0.00000000       0.00000000   -1753.88183594
Os       0.00000000       0.00000000       0.53272727       0.00000000       0.00000000    1753.88183594
2
Properties=species:S:1:pos:R:3:forces:R:3 energy=390.9764030026713 pbc="F F F"
Os       0.00000000       0.00000000       0.00000000       0.00000000       0.00000000    -943.24841309
Os       0.00000000       0.00000000       0.59151515       0.00000000       0.00000000     943.24841309
2
Properties=species:S:1:pos:R:3:forces:R:3 energy=347.73772506216955 pbc="F F F"
Os       0.00000000       0.00000000       0.00000000       0.00000000       0.00000000    -582.67926025
Os       0.00000000       0.00000000       0.65030303       0.00000000       0.00000000     582.67926025
2
Properties=species:S:1:pos:R:3:forces:R:3 energy=317.36354911280665 pbc="F F F"
Os       0.00000000       0.00000000       0.00000000       0.00000000       0.00000000    -485.22717285
Os       0.00000000       0.00000000       0.70909091       0.00000000       0.00000000     485.22717285
2
Properties=species:S:1:pos:R:3:forces:R:3 energy=287.4549493543257 pbc="F F F"
Os       0.00000000       0.00000000       0.00000000       0.00000000       0.00000000    -552.71160889
Os       0.00000000       0.00000000       0.76787879       0.00000000       0.00000000     552.71160889
2
Properties=species:S:1:pos:R:3:forces:R:3 energy=250.91228593216243 pbc="F F F"
Os       0.00000000       0.00000000       0.00000000       0.00000000       0.00000000    -694.37573242
Os       0.00000000       0.00000000       0.82666667       0.00000000       0.00000000     694.37573242
2
Properties=species:S:1:pos:R:3:forces:R:3 energy=206.4184812159337 pbc="F F F"
Os       0.00000000       0.00000000       0.00000000       0.00000000       0.00000000    -804.57995605
Os       0.00000000       0.00000000       0.88545455       0.00000000       0.00000000     804.57995605
2
Properties=species:S:1:pos:R:3:forces:R:3 energy=159.36892097316962 pbc="F F F"
Os       0.00000000       0.00000000       0.00000000       0.00000000       0.00000000    -765.48846436
Os       0.00000000       0.00000000       0.94424242       0.00000000       0.00000000     765.48846436
2
Properties=species:S:1:pos:R:3:forces:R:3 energy=118.19012653048232 pbc="F F F"
Os       0.00000000       0.00000000       0.00000000       0.00000000       0.00000000    -632.04730225
Os       0.00000000       0.00000000       1.00303030       0.00000000       0.00000000     632.04730225
2
Properties=species:S:1:pos:R:3:forces:R:3 energy=85.32665510315573 pbc="F F F"
Os       0.00000000       0.00000000       0.00000000       0.00000000       0.00000000    -485.69894409
Os       0.00000000       0.00000000       1.06181818       0.00000000       0.00000000     485.69894409
2
Properties=species:S:1:pos:R:3:forces:R:3 energy=60.71184109246098 pbc="F F F"
Os       0.00000000       0.00000000       0.00000000       0.00000000       0.00000000    -357.50222778
Os       0.00000000       0.00000000       1.12060606       0.00000000       0.00000000     357.50222778
2
Properties=species:S:1:pos:R:3:forces:R:3 energy=42.59103442044512 pbc="F F F"
Os       0.00000000       0.00000000       0.00000000       0.00000000       0.00000000    -263.77420044
Os       0.00000000       0.00000000       1.17939394       0.00000000       0.00000000     263.77420044
2
Properties=species:S:1:pos:R:3:forces:R:3 energy=29.297590103583598 pbc="F F F"
Os       0.00000000       0.00000000       0.00000000       0.00000000       0.00000000    -191.18360901
Os       0.00000000       0.00000000       1.23818182       0.00000000       0.00000000     191.18360901
2
Properties=species:S:1:pos:R:3:forces:R:3 energy=19.750642329408393 pbc="F F F"
Os       0.00000000       0.00000000       0.00000000       0.00000000       0.00000000    -137.64927673
Os       0.00000000       0.00000000       1.29696970       0.00000000       0.00000000     137.64927673
2
Properties=species:S:1:pos:R:3:forces:R:3 energy=12.588914563199431 pbc="F F F"
Os       0.00000000       0.00000000       0.00000000       0.00000000       0.00000000    -109.37831116
Os       0.00000000       0.00000000       1.35575758       0.00000000       0.00000000     109.37831116
2
Properties=species:S:1:pos:R:3:forces:R:3 energy=6.6919425592010935 pbc="F F F"
Os       0.00000000       0.00000000       0.00000000       0.00000000       0.00000000     -91.94850159
Os       0.00000000       0.00000000       1.41454545       0.00000000       0.00000000      91.94850159
2
Properties=species:S:1:pos:R:3:forces:R:3 energy=1.7615878098179185 pbc="F F F"
Os       0.00000000       0.00000000       0.00000000       0.00000000       0.00000000     -75.38847351
Os       0.00000000       0.00000000       1.47333333       0.00000000       0.00000000      75.38847351
2
Properties=species:S:1:pos:R:3:forces:R:3 energy=-2.114450650285205 pbc="F F F"
Os       0.00000000       0.00000000       0.00000000       0.00000000       0.00000000     -56.30503464
Os       0.00000000       0.00000000       1.53212121       0.00000000       0.00000000      56.30503464
2
Properties=species:S:1:pos:R:3:forces:R:3 energy=-4.9027416000520825 pbc="F F F"
Os       0.00000000       0.00000000       0.00000000       0.00000000       0.00000000     -39.33248520
Os       0.00000000       0.00000000       1.59090909       0.00000000       0.00000000      39.33248520
2
Properties=species:S:1:pos:R:3:forces:R:3 energy=-6.835531817043166 pbc="F F F"
Os       0.00000000       0.00000000       0.00000000       0.00000000       0.00000000     -27.11755562
Os       0.00000000       0.00000000       1.64969697       0.00000000       0.00000000      27.11755562
2
Properties=species:S:1:pos:R:3:forces:R:3 energy=-8.15244945150363 pbc="F F F"
Os       0.00000000       0.00000000       0.00000000       0.00000000       0.00000000     -18.08764458
Os       0.00000000       0.00000000       1.70848485       0.00000000       0.00000000      18.08764458
2
Properties=species:S:1:pos:R:3:forces:R:3 energy=-9.00563929196126 pbc="F F F"
Os       0.00000000       0.00000000       0.00000000       0.00000000       0.00000000     -11.30216980
Os       0.00000000       0.00000000       1.76727273       0.00000000       0.00000000      11.30216980
2
Properties=species:S:1:pos:R:3:forces:R:3 energy=-9.523104919836465 pbc="F F F"
Os       0.00000000       0.00000000       0.00000000       0.00000000       0.00000000      -6.63227892
Os       0.00000000       0.00000000       1.82606061       0.00000000       0.00000000       6.63227892
2
Properties=species:S:1:pos:R:3:forces:R:3 energy=-9.818556846277584 pbc="F F F"
Os       0.00000000       0.00000000       0.00000000       0.00000000       0.00000000      -3.64492822
Os       0.00000000       0.00000000       1.88484848       0.00000000       0.00000000       3.64492822
2
Properties=species:S:1:pos:R:3:forces:R:3 energy=-9.97164927371585 pbc="F F F"
Os       0.00000000       0.00000000       0.00000000       0.00000000       0.00000000      -1.68404639
Os       0.00000000       0.00000000       1.94363636       0.00000000       0.00000000       1.68404639
2
Properties=species:S:1:pos:R:3:forces:R:3 energy=-10.026496384537502 pbc="F F F"
Os       0.00000000       0.00000000       0.00000000       0.00000000       0.00000000      -0.23973426
Os       0.00000000       0.00000000       2.00242424       0.00000000       0.00000000       0.23973426
2
Properties=species:S:1:pos:R:3:forces:R:3 energy=-10.004973737290609 pbc="F F F"
Os       0.00000000       0.00000000       0.00000000       0.00000000       0.00000000       0.93594539
Os       0.00000000       0.00000000       2.06121212       0.00000000       0.00000000      -0.93594539
2
Properties=species:S:1:pos:R:3:forces:R:3 energy=-9.920540464103302 pbc="F F F"
Os       0.00000000       0.00000000       0.00000000       0.00000000       0.00000000       1.90107524
Os       0.00000000       0.00000000       2.12000000       0.00000000       0.00000000      -1.90107524
2
Properties=species:S:1:pos:R:3:forces:R:3 energy=-9.785750485467677 pbc="F F F"
Os       0.00000000       0.00000000       0.00000000       0.00000000       0.00000000       2.64781952
Os       0.00000000       0.00000000       2.17878788       0.00000000       0.00000000      -2.64781952
2
Properties=species:S:1:pos:R:3:forces:R:3 energy=-9.613324043873964 pbc="F F F"
Os       0.00000000       0.00000000       0.00000000       0.00000000       0.00000000       3.18637609
Os       0.00000000       0.00000000       2.23757576       0.00000000       0.00000000      -3.18637609
2
Properties=species:S:1:pos:R:3:forces:R:3 energy=-9.414373134167727 pbc="F F F"
Os       0.00000000       0.00000000       0.00000000       0.00000000       0.00000000       3.55837941
Os       0.00000000       0.00000000       2.29636364       0.00000000       0.00000000      -3.55837941
2
Properties=species:S:1:pos:R:3:forces:R:3 energy=-9.19735768269241 pbc="F F F"
Os       0.00000000       0.00000000       0.00000000       0.00000000       0.00000000       3.80627060
Os       0.00000000       0.00000000       2.35515152       0.00000000       0.00000000      -3.80627060
2
Properties=species:S:1:pos:R:3:forces:R:3 energy=-8.968955249949323 pbc="F F F"
Os       0.00000000       0.00000000       0.00000000       0.00000000       0.00000000       3.94582963
Os       0.00000000       0.00000000       2.41393939       0.00000000       0.00000000      -3.94582963
2
Properties=species:S:1:pos:R:3:forces:R:3 energy=-8.735653190253922 pbc="F F F"
Os       0.00000000       0.00000000       0.00000000       0.00000000       0.00000000       3.97182727
Os       0.00000000       0.00000000       2.47272727       0.00000000       0.00000000      -3.97182727
2
Properties=species:S:1:pos:R:3:forces:R:3 energy=-8.504178092011351 pbc="F F F"
Os       0.00000000       0.00000000       0.00000000       0.00000000       0.00000000       3.88570714
Os       0.00000000       0.00000000       2.53151515       0.00000000       0.00000000      -3.88570714
2
Properties=species:S:1:pos:R:3:forces:R:3 energy=-8.280553888657531 pbc="F F F"
Os       0.00000000       0.00000000       0.00000000       0.00000000       0.00000000       3.70982862
Os       0.00000000       0.00000000       2.59030303       0.00000000       0.00000000      -3.70982862
2
Properties=species:S:1:pos:R:3:forces:R:3 energy=-8.069115372651169 pbc="F F F"
Os       0.00000000       0.00000000       0.00000000       0.00000000       0.00000000       3.47640204
Os       0.00000000       0.00000000       2.64909091       0.00000000       0.00000000      -3.47640204
2
Properties=species:S:1:pos:R:3:forces:R:3 energy=-7.872388894143536 pbc="F F F"
Os       0.00000000       0.00000000       0.00000000       0.00000000       0.00000000       3.21349549
Os       0.00000000       0.00000000       2.70787879       0.00000000       0.00000000      -3.21349549
2
Properties=species:S:1:pos:R:3:forces:R:3 energy=-7.6913856711889625 pbc="F F F"
Os       0.00000000       0.00000000       0.00000000       0.00000000       0.00000000       2.94550157
Os       0.00000000       0.00000000       2.76666667       0.00000000       0.00000000      -2.94550157
2
Properties=species:S:1:pos:R:3:forces:R:3 energy=-7.525696900917778 pbc="F F F"
Os       0.00000000       0.00000000       0.00000000       0.00000000       0.00000000       2.69615579
Os       0.00000000       0.00000000       2.82545455       0.00000000       0.00000000      -2.69615579
2
Properties=species:S:1:pos:R:3:forces:R:3 energy=-7.373683406679032 pbc="F F F"
Os       0.00000000       0.00000000       0.00000000       0.00000000       0.00000000       2.48229671
Os       0.00000000       0.00000000       2.88424242       0.00000000       0.00000000      -2.48229671
2
Properties=species:S:1:pos:R:3:forces:R:3 energy=-7.232955214707799 pbc="F F F"
Os       0.00000000       0.00000000       0.00000000       0.00000000       0.00000000       2.31345844
Os       0.00000000       0.00000000       2.94303030       0.00000000       0.00000000      -2.31345844
2
Properties=species:S:1:pos:R:3:forces:R:3 energy=-7.100702033838553 pbc="F F F"
Os       0.00000000       0.00000000       0.00000000       0.00000000       0.00000000       2.19395232
Os       0.00000000       0.00000000       3.00181818       0.00000000       0.00000000      -2.19395232
2
Properties=species:S:1:pos:R:3:forces:R:3 energy=-6.974164982169464 pbc="F F F"
Os       0.00000000       0.00000000       0.00000000       0.00000000       0.00000000       2.11654878
Os       0.00000000       0.00000000       3.06060606       0.00000000       0.00000000      -2.11654878
2
Properties=species:S:1:pos:R:3:forces:R:3 energy=-6.851426975702643 pbc="F F F"
Os       0.00000000       0.00000000       0.00000000       0.00000000       0.00000000       2.06038737
Os       0.00000000       0.00000000       3.11939394       0.00000000       0.00000000      -2.06038737
2
Properties=species:S:1:pos:R:3:forces:R:3 energy=-6.7320406872431935 pbc="F F F"
Os       0.00000000       0.00000000       0.00000000       0.00000000       0.00000000       1.99788213
Os       0.00000000       0.00000000       3.17818182       0.00000000       0.00000000      -1.99788213
2
Properties=species:S:1:pos:R:3:forces:R:3 energy=-6.617136110272806 pbc="F F F"
Os       0.00000000       0.00000000       0.00000000       0.00000000       0.00000000       1.90450239
Os       0.00000000       0.00000000       3.23696970       0.00000000       0.00000000      -1.90450239
2
Properties=species:S:1:pos:R:3:forces:R:3 energy=-6.5090038304759155 pbc="F F F"
Os       0.00000000       0.00000000       0.00000000       0.00000000       0.00000000       1.76633990
Os       0.00000000       0.00000000       3.29575758       0.00000000       0.00000000      -1.76633990
2
Properties=species:S:1:pos:R:3:forces:R:3 energy=-6.410348214788077 pbc="F F F"
Os       0.00000000       0.00000000       0.00000000       0.00000000       0.00000000       1.58312333
Os       0.00000000       0.00000000       3.35454545       0.00000000       0.00000000      -1.58312333
2
Properties=species:S:1:pos:R:3:forces:R:3 energy=-6.323526223588642 pbc="F F F"
Os       0.00000000       0.00000000       0.00000000       0.00000000       0.00000000       1.36645257
Os       0.00000000       0.00000000       3.41333333       0.00000000       0.00000000      -1.36645257
2
Properties=species:S:1:pos:R:3:forces:R:3 energy=-6.249980956507362 pbc="F F F"
Os       0.00000000       0.00000000       0.00000000       0.00000000       0.00000000       1.13476098
Os       0.00000000       0.00000000       3.47212121       0.00000000       0.00000000      -1.13476098
2
Properties=species:S:1:pos:R:3:forces:R:3 energy=-6.1900176656729196 pbc="F F F"
Os       0.00000000       0.00000000       0.00000000       0.00000000       0.00000000       0.90746075
Os       0.00000000       0.00000000       3.53090909       0.00000000       0.00000000      -0.90746075
2
Properties=species:S:1:pos:R:3:forces:R:3 energy=-6.142886454449733 pbc="F F F"
Os       0.00000000       0.00000000       0.00000000       0.00000000       0.00000000       0.70033693
Os       0.00000000       0.00000000       3.58969697       0.00000000       0.00000000      -0.70033693
2
Properties=species:S:1:pos:R:3:forces:R:3 energy=-6.107079359658812 pbc="F F F"
Os       0.00000000       0.00000000       0.00000000       0.00000000       0.00000000       0.52336210
Os       0.00000000       0.00000000       3.64848485       0.00000000       0.00000000      -0.52336210
2
Properties=species:S:1:pos:R:3:forces:R:3 energy=-6.08067803872599 pbc="F F F"
Os       0.00000000       0.00000000       0.00000000       0.00000000       0.00000000       0.38062960
Os       0.00000000       0.00000000       3.70727273       0.00000000       0.00000000      -0.38062960
2
Properties=species:S:1:pos:R:3:forces:R:3 energy=-6.061662782335202 pbc="F F F"
Os       0.00000000       0.00000000       0.00000000       0.00000000       0.00000000       0.27172357
Os       0.00000000       0.00000000       3.76606061       0.00000000       0.00000000      -0.27172357
2
Properties=species:S:1:pos:R:3:forces:R:3 energy=-6.048128101844785 pbc="F F F"
Os       0.00000000       0.00000000       0.00000000       0.00000000       0.00000000       0.19349995
Os       0.00000000       0.00000000       3.82484848       0.00000000       0.00000000      -0.19349995
2
Properties=species:S:1:pos:R:3:forces:R:3 energy=-6.0383957777078425 pbc="F F F"
Os       0.00000000       0.00000000       0.00000000       0.00000000       0.00000000       0.14158641
Os       0.00000000       0.00000000       3.88363636       0.00000000       0.00000000      -0.14158641
2
Properties=species:S:1:pos:R:3:forces:R:3 energy=-6.031055450819308 pbc="F F F"
Os       0.00000000       0.00000000       0.00000000       0.00000000       0.00000000       0.11137691
Os       0.00000000       0.00000000       3.94242424       0.00000000       0.00000000      -0.11137691
2
Properties=species:S:1:pos:R:3:forces:R:3 energy=-6.024961783667756 pbc="F F F"
Os       0.00000000       0.00000000       0.00000000       0.00000000       0.00000000       0.09848486
Os       0.00000000       0.00000000       4.00121212       0.00000000       0.00000000      -0.09848486
2
Properties=species:S:1:pos:R:3:forces:R:3 energy=-6.019215847847117 pbc="F F F"
Os       0.00000000       0.00000000       0.00000000       0.00000000       0.00000000       0.09888499
Os       0.00000000       0.00000000       4.06000000       0.00000000       0.00000000      -0.09888499
2
Properties=species:S:1:pos:R:3:forces:R:3 energy=-6.013146208961459 pbc="F F F"
Os       0.00000000       0.00000000       0.00000000       0.00000000       0.00000000       0.10893054
Os       0.00000000       0.00000000       4.11878788       0.00000000       0.00000000      -0.10893054
2
Properties=species:S:1:pos:R:3:forces:R:3 energy=-6.006284045561562 pbc="F F F"
Os       0.00000000       0.00000000       0.00000000       0.00000000       0.00000000       0.12534477
Os       0.00000000       0.00000000       4.17757576       0.00000000       0.00000000      -0.12534477
2
Properties=species:S:1:pos:R:3:forces:R:3 energy=-5.99834079165146 pbc="F F F"
Os       0.00000000       0.00000000       0.00000000       0.00000000       0.00000000       0.14523411
Os       0.00000000       0.00000000       4.23636364       0.00000000       0.00000000      -0.14523411
2
Properties=species:S:1:pos:R:3:forces:R:3 energy=-5.989189050530823 pbc="F F F"
Os       0.00000000       0.00000000       0.00000000       0.00000000       0.00000000       0.16608395
Os       0.00000000       0.00000000       4.29515152       0.00000000       0.00000000      -0.16608395
2
Properties=species:S:1:pos:R:3:forces:R:3 energy=-5.978837347768151 pbc="F F F"
Os       0.00000000       0.00000000       0.00000000       0.00000000       0.00000000       0.18574573
Os       0.00000000       0.00000000       4.35393939       0.00000000       0.00000000      -0.18574573
2
Properties=species:S:1:pos:R:3:forces:R:3 energy=-5.967408613340031 pbc="F F F"
Os       0.00000000       0.00000000       0.00000000       0.00000000       0.00000000       0.20242855
Os       0.00000000       0.00000000       4.41272727       0.00000000       0.00000000      -0.20242855
2
Properties=species:S:1:pos:R:3:forces:R:3 energy=-5.9551229806474035 pbc="F F F"
Os       0.00000000       0.00000000       0.00000000       0.00000000       0.00000000       0.21470818
Os       0.00000000       0.00000000       4.47151515       0.00000000       0.00000000      -0.21470818
2
Properties=species:S:1:pos:R:3:forces:R:3 energy=-5.942270155302958 pbc="F F F"
Os       0.00000000       0.00000000       0.00000000       0.00000000       0.00000000       0.22158813
Os       0.00000000       0.00000000       4.53030303       0.00000000       0.00000000      -0.22158813
2
Properties=species:S:1:pos:R:3:forces:R:3 energy=-5.929185408546474 pbc="F F F"
Os       0.00000000       0.00000000       0.00000000       0.00000000       0.00000000       0.22257574
Os       0.00000000       0.00000000       4.58909091       0.00000000       0.00000000      -0.22257574
2
Properties=species:S:1:pos:R:3:forces:R:3 energy=-5.916215248137254 pbc="F F F"
Os       0.00000000       0.00000000       0.00000000       0.00000000       0.00000000       0.21774937
Os       0.00000000       0.00000000       4.64787879       0.00000000       0.00000000      -0.21774937
2
Properties=species:S:1:pos:R:3:forces:R:3 energy=-5.903684431059005 pbc="F F F"
Os       0.00000000       0.00000000       0.00000000       0.00000000       0.00000000       0.20776515
Os       0.00000000       0.00000000       4.70666667       0.00000000       0.00000000      -0.20776515
2
Properties=species:S:1:pos:R:3:forces:R:3 energy=-5.891864877237718 pbc="F F F"
Os       0.00000000       0.00000000       0.00000000       0.00000000       0.00000000       0.19381922
Os       0.00000000       0.00000000       4.76545455       0.00000000       0.00000000      -0.19381922
2
Properties=species:S:1:pos:R:3:forces:R:3 energy=-5.88094268224655 pbc="F F F"
Os       0.00000000       0.00000000       0.00000000       0.00000000       0.00000000       0.17749868
Os       0.00000000       0.00000000       4.82424242       0.00000000       0.00000000      -0.17749868
2
Properties=species:S:1:pos:R:3:forces:R:3 energy=-5.871007127876434 pbc="F F F"
Os       0.00000000       0.00000000       0.00000000       0.00000000       0.00000000       0.16058627
Os       0.00000000       0.00000000       4.88303030       0.00000000       0.00000000      -0.16058627
2
Properties=species:S:1:pos:R:3:forces:R:3 energy=-5.8620399921457995 pbc="F F F"
Os       0.00000000       0.00000000       0.00000000       0.00000000       0.00000000       0.14477679
Os       0.00000000       0.00000000       4.94181818       0.00000000       0.00000000      -0.14477679
2
Properties=species:S:1:pos:R:3:forces:R:3 energy=-5.853935627146375 pbc="F F F"
Os       0.00000000       0.00000000       0.00000000       0.00000000       0.00000000       0.13142553
Os       0.00000000       0.00000000       5.00060606       0.00000000       0.00000000      -0.13142553
2
Properties=species:S:1:pos:R:3:forces:R:3 energy=-5.846523272187132 pbc="F F F"
Os       0.00000000       0.00000000       0.00000000       0.00000000       0.00000000       0.12131623
Os       0.00000000       0.00000000       5.05939394       0.00000000       0.00000000      -0.12131623
2
Properties=species:S:1:pos:R:3:forces:R:3 energy=-5.839605584153353 pbc="F F F"
Os       0.00000000       0.00000000       0.00000000       0.00000000       0.00000000       0.11455636
Os       0.00000000       0.00000000       5.11818182       0.00000000       0.00000000      -0.11455636
2
Properties=species:S:1:pos:R:3:forces:R:3 energy=-5.832999178168538 pbc="F F F"
Os       0.00000000       0.00000000       0.00000000       0.00000000       0.00000000       0.11060304
Os       0.00000000       0.00000000       5.17696970       0.00000000       0.00000000      -0.11060304
2
Properties=species:S:1:pos:R:3:forces:R:3 energy=-5.826567003419925 pbc="F F F"
Os       0.00000000       0.00000000       0.00000000       0.00000000       0.00000000       0.10842697
Os       0.00000000       0.00000000       5.23575758       0.00000000       0.00000000      -0.10842697
2
Properties=species:S:1:pos:R:3:forces:R:3 energy=-5.82024169709186 pbc="F F F"
Os       0.00000000       0.00000000       0.00000000       0.00000000       0.00000000       0.10675634
Os       0.00000000       0.00000000       5.29454545       0.00000000       0.00000000      -0.10675634
2
Properties=species:S:1:pos:R:3:forces:R:3 energy=-5.814029402230887 pbc="F F F"
Os       0.00000000       0.00000000       0.00000000       0.00000000       0.00000000       0.10434888
Os       0.00000000       0.00000000       5.35333333       0.00000000       0.00000000      -0.10434888
2
Properties=species:S:1:pos:R:3:forces:R:3 energy=-5.808005918202441 pbc="F F F"
Os       0.00000000       0.00000000       0.00000000       0.00000000       0.00000000       0.10022356
Os       0.00000000       0.00000000       5.41212121       0.00000000       0.00000000      -0.10022356
2
Properties=species:S:1:pos:R:3:forces:R:3 energy=-5.80229053483576 pbc="F F F"
Os       0.00000000       0.00000000       0.00000000       0.00000000       0.00000000       0.09382533
Os       0.00000000       0.00000000       5.47090909       0.00000000       0.00000000      -0.09382533
2
Properties=species:S:1:pos:R:3:forces:R:3 energy=-5.79702074738322 pbc="F F F"
Os       0.00000000       0.00000000       0.00000000       0.00000000       0.00000000       0.08507276
Os       0.00000000       0.00000000       5.52969697       0.00000000       0.00000000      -0.08507276
2
Properties=species:S:1:pos:R:3:forces:R:3 energy=-5.792327475243305 pbc="F F F"
Os       0.00000000       0.00000000       0.00000000       0.00000000       0.00000000       0.07431599
Os       0.00000000       0.00000000       5.58848485       0.00000000       0.00000000      -0.07431599
2
Properties=species:S:1:pos:R:3:forces:R:3 energy=-5.78830893095157 pbc="F F F"
Os       0.00000000       0.00000000       0.00000000       0.00000000       0.00000000       0.06225177
Os       0.00000000       0.00000000       5.64727273       0.00000000       0.00000000      -0.06225177
2
Properties=species:S:1:pos:R:3:forces:R:3 energy=-5.785017210135498 pbc="F F F"
Os       0.00000000       0.00000000       0.00000000       0.00000000       0.00000000       0.04977661
Os       0.00000000       0.00000000       5.70606061       0.00000000       0.00000000      -0.04977661
2
Properties=species:S:1:pos:R:3:forces:R:3 energy=-5.782443580838604 pbc="F F F"
Os       0.00000000       0.00000000       0.00000000       0.00000000       0.00000000       0.03784267
Os       0.00000000       0.00000000       5.76484848       0.00000000       0.00000000      -0.03784267
2
Properties=species:S:1:pos:R:3:forces:R:3 energy=-5.780537640954036 pbc="F F F"
Os       0.00000000       0.00000000       0.00000000       0.00000000       0.00000000       0.02735776
Os       0.00000000       0.00000000       5.82363636       0.00000000       0.00000000      -0.02735776
2
Properties=species:S:1:pos:R:3:forces:R:3 energy=-5.779186749286433 pbc="F F F"
Os       0.00000000       0.00000000       0.00000000       0.00000000       0.00000000       0.01907174
Os       0.00000000       0.00000000       5.88242424       0.00000000       0.00000000      -0.01907174
2
Properties=species:S:1:pos:R:3:forces:R:3 energy=-5.778240920870538 pbc="F F F"
Os       0.00000000       0.00000000       0.00000000       0.00000000       0.00000000       0.01357089
Os       0.00000000       0.00000000       5.94121212       0.00000000       0.00000000      -0.01357089
2
Properties=species:S:1:pos:R:3:forces:R:3 energy=-5.77752714792506 pbc="F F F"
Os       0.00000000       0.00000000       0.00000000       0.00000000       0.00000000       0.01128462
Os       0.00000000       0.00000000       6.00000000       0.00000000       0.00000000      -0.01128462
