2
Properties=species:S:1:pos:R:3:forces:R:3 energy=11951.07845328789 pbc="F F F"
Pm       0.00000000       0.00000000       0.00000000       0.00000000       0.00000000 -204989.29687500
Pm       0.00000000       0.00000000       0.18000000       0.00000000       0.00000000  204989.29687500
2
Properties=species:S:1:pos:R:3:forces:R:3 energy=4730.70784781914 pbc="F F F"
Pm       0.00000000       0.00000000       0.00000000       0.00000000       0.00000000  -69104.60156250
Pm       0.00000000       0.00000000       0.23878788       0.00000000       0.00000000   69104.60156250
2
Properties=species:S:1:pos:R:3:forces:R:3 energy=2106.1458361003897 pbc="F F F"
Pm       0.00000000       0.00000000       0.00000000       0.00000000       0.00000000  -27434.35742188
Pm       0.00000000       0.00000000       0.29757576       0.00000000       0.00000000   27434.35742188
2
Properties=species:S:1:pos:R:3:forces:R:3 energy=1014.2243273113274 pbc="F F F"
Pm       0.00000000       0.00000000       0.00000000       0.00000000       0.00000000  -12052.57812500
Pm       0.00000000       0.00000000       0.35636364       0.00000000       0.00000000   12052.57812500
2
Properties=species:S:1:pos:R:3:forces:R:3 energy=518.5832750779049 pbc="F F F"
Pm       0.00000000       0.00000000       0.00000000       0.00000000       0.00000000   -5686.13037109
Pm       0.00000000       0.00000000       0.41515152       0.00000000       0.00000000    5686.13037109
2
Properties=species:S:1:pos:R:3:forces:R:3 energy=278.6420214284669 pbc="F F F"
Pm       0.00000000       0.00000000       0.00000000       0.00000000       0.00000000   -2838.99096680
Pm       0.00000000       0.00000000       0.47393939       0.00000000       0.00000000    2838.99096680
2
Properties=species:S:1:pos:R:3:forces:R:3 energy=156.15787531030279 pbc="F F F"
Pm       0.00000000       0.00000000       0.00000000       0.00000000       0.00000000   -1488.20556641
Pm       0.00000000       0.00000000       0.53272727       0.00000000       0.00000000    1488.20556641
2
Properties=species:S:1:pos:R:3:forces:R:3 energy=90.67103605388307 pbc="F F F"
Pm       0.00000000       0.00000000       0.00000000       0.00000000       0.00000000    -814.47552490
Pm       0.00000000       0.00000000       0.59151515       0.00000000       0.00000000     814.47552490
2
Properties=species:S:1:pos:R:3:forces:R:3 energy=54.195991854079935 pbc="F F F"
Pm       0.00000000       0.00000000       0.00000000       0.00000000       0.00000000    -462.98400879
Pm       0.00000000       0.00000000       0.65030303       0.00000000       0.00000000     462.98400879
2
Properties=species:S:1:pos:R:3:forces:R:3 energy=33.14323466692407 pbc="F F F"
Pm       0.00000000       0.00000000       0.00000000       0.00000000       0.00000000    -271.89144897
Pm       0.00000000       0.00000000       0.70909091       0.00000000       0.00000000     271.89144897
2
Properties=species:S:1:pos:R:3:forces:R:3 energy=20.620415261922705 pbc="F F F"
Pm       0.00000000       0.00000000       0.00000000       0.00000000       0.00000000    -164.04888916
Pm       0.00000000       0.00000000       0.76787879       0.00000000       0.00000000     164.04888916
2
Properties=species:S:1:pos:R:3:forces:R:3 energy=12.985147227955999 pbc="F F F"
Pm       0.00000000       0.00000000       0.00000000       0.00000000       0.00000000    -101.17952728
Pm       0.00000000       0.00000000       0.82666667       0.00000000       0.00000000     101.17952728
2
Properties=species:S:1:pos:R:3:forces:R:3 energy=8.234808914328157 pbc="F F F"
Pm       0.00000000       0.00000000       0.00000000       0.00000000       0.00000000     -63.57086563
Pm       0.00000000       0.00000000       0.88545455       0.00000000       0.00000000      63.57086563
2
Properties=species:S:1:pos:R:3:forces:R:3 energy=5.224765158552558 pbc="F F F"
Pm       0.00000000       0.00000000       0.00000000       0.00000000       0.00000000     -40.70465851
Pm       0.00000000       0.00000000       0.94424242       0.00000000       0.00000000      40.70465851
2
Properties=species:S:1:pos:R:3:forces:R:3 energy=3.2756207744784693 pbc="F F F"
Pm       0.00000000       0.00000000       0.00000000       0.00000000       0.00000000     -26.75976372
Pm       0.00000000       0.00000000       1.00303030       0.00000000       0.00000000      26.75976372
2
Properties=species:S:1:pos:R:3:forces:R:3 energy=1.9705679355239778 pbc="F F F"
Pm       0.00000000       0.00000000       0.00000000       0.00000000       0.00000000     -18.36178207
Pm       0.00000000       0.00000000       1.06181818       0.00000000       0.00000000      18.36178207
2
Properties=species:S:1:pos:R:3:forces:R:3 energy=1.0495384888547818 pbc="F F F"
Pm       0.00000000       0.00000000       0.00000000       0.00000000       0.00000000     -13.41314888
Pm       0.00000000       0.00000000       1.12060606       0.00000000       0.00000000      13.41314888
2
Properties=species:S:1:pos:R:3:forces:R:3 energy=0.35410035911080817 pbc="F F F"
Pm       0.00000000       0.00000000       0.00000000       0.00000000       0.00000000     -10.48749065
Pm       0.00000000       0.00000000       1.17939394       0.00000000       0.00000000      10.48749065
2
Properties=species:S:1:pos:R:3:forces:R:3 energy=-0.20280544560966127 pbc="F F F"
Pm       0.00000000       0.00000000       0.00000000       0.00000000       0.00000000      -8.55602169
Pm       0.00000000       0.00000000       1.23818182       0.00000000       0.00000000       8.55602169
2
Properties=species:S:1:pos:R:3:forces:R:3 energy=-0.6572643141001644 pbc="F F F"
Pm       0.00000000       0.00000000       0.00000000       0.00000000       0.00000000      -6.91005087
Pm       0.00000000       0.00000000       1.29696970       0.00000000       0.00000000       6.91005087
2
Properties=species:S:1:pos:R:3:forces:R:3 energy=-1.0128453307241876 pbc="F F F"
Pm       0.00000000       0.00000000       0.00000000       0.00000000       0.00000000      -5.14956808
Pm       0.00000000       0.00000000       1.35575758       0.00000000       0.00000000       5.14956808
2
Properties=species:S:1:pos:R:3:forces:R:3 energy=-1.2575883049047265 pbc="F F F"
Pm       0.00000000       0.00000000       0.00000000       0.00000000       0.00000000      -3.13200974
Pm       0.00000000       0.00000000       1.41454545       0.00000000       0.00000000       3.13200974
2
Properties=species:S:1:pos:R:3:forces:R:3 energy=-1.376504355249805 pbc="F F F"
Pm       0.00000000       0.00000000       0.00000000       0.00000000       0.00000000      -0.88458776
Pm       0.00000000       0.00000000       1.47333333       0.00000000       0.00000000       0.88458776
2
Properties=species:S:1:pos:R:3:forces:R:3 energy=-1.3603399596924484 pbc="F F F"
Pm       0.00000000       0.00000000       0.00000000       0.00000000       0.00000000       1.41990614
Pm       0.00000000       0.00000000       1.53212121       0.00000000       0.00000000      -1.41990614
2
Properties=species:S:1:pos:R:3:forces:R:3 energy=-1.215394700292794 pbc="F F F"
Pm       0.00000000       0.00000000       0.00000000       0.00000000       0.00000000       3.42237258
Pm       0.00000000       0.00000000       1.59090909       0.00000000       0.00000000      -3.42237258
2
Properties=species:S:1:pos:R:3:forces:R:3 energy=-0.9728068540198496 pbc="F F F"
Pm       0.00000000       0.00000000       0.00000000       0.00000000       0.00000000       4.67425060
Pm       0.00000000       0.00000000       1.64969697       0.00000000       0.00000000      -4.67425060
2
Properties=species:S:1:pos:R:3:forces:R:3 energy=-0.68561869329364 pbc="F F F"
Pm       0.00000000       0.00000000       0.00000000       0.00000000       0.00000000       4.92969465
Pm       0.00000000       0.00000000       1.70848485       0.00000000       0.00000000      -4.92969465
2
Properties=species:S:1:pos:R:3:forces:R:3 energy=-0.410380126968658 pbc="F F F"
Pm       0.00000000       0.00000000       0.00000000       0.00000000       0.00000000       4.31606627
Pm       0.00000000       0.00000000       1.76727273       0.00000000       0.00000000      -4.31606627
2
Properties=species:S:1:pos:R:3:forces:R:3 energy=-0.18817398194598378 pbc="F F F"
Pm       0.00000000       0.00000000       0.00000000       0.00000000       0.00000000       3.18999743
Pm       0.00000000       0.00000000       1.82606061       0.00000000       0.00000000      -3.18999743
2
Properties=species:S:1:pos:R:3:forces:R:3 energy=-0.038525192257112234 pbc="F F F"
Pm       0.00000000       0.00000000       0.00000000       0.00000000       0.00000000       1.89533603
Pm       0.00000000       0.00000000       1.88484848       0.00000000       0.00000000      -1.89533603
2
Properties=species:S:1:pos:R:3:forces:R:3 energy=0.03575655304713529 pbc="F F F"
Pm       0.00000000       0.00000000       0.00000000       0.00000000       0.00000000       0.65260285
Pm       0.00000000       0.00000000       1.94363636       0.00000000       0.00000000      -0.65260285
2
Properties=species:S:1:pos:R:3:forces:R:3 energy=0.04162049706468865 pbc="F F F"
Pm       0.00000000       0.00000000       0.00000000       0.00000000       0.00000000      -0.41719887
Pm       0.00000000       0.00000000       2.00242424       0.00000000       0.00000000       0.41719887
2
Properties=species:S:1:pos:R:3:forces:R:3 energy=-0.008463892535294143 pbc="F F F"
Pm       0.00000000       0.00000000       0.00000000       0.00000000       0.00000000      -1.24179399
Pm       0.00000000       0.00000000       2.06121212       0.00000000       0.00000000       1.24179399
2
Properties=species:S:1:pos:R:3:forces:R:3 energy=-0.09903790803992812 pbc="F F F"
Pm       0.00000000       0.00000000       0.00000000       0.00000000       0.00000000      -1.79618561
Pm       0.00000000       0.00000000       2.12000000       0.00000000       0.00000000       1.79618561
2
Properties=species:S:1:pos:R:3:forces:R:3 energy=-0.21516029500020076 pbc="F F F"
Pm       0.00000000       0.00000000       0.00000000       0.00000000       0.00000000      -2.12235880
Pm       0.00000000       0.00000000       2.17878788       0.00000000       0.00000000       2.12235880
2
Properties=species:S:1:pos:R:3:forces:R:3 energy=-0.34552503181499794 pbc="F F F"
Pm       0.00000000       0.00000000       0.00000000       0.00000000       0.00000000      -2.29209185
Pm       0.00000000       0.00000000       2.23757576       0.00000000       0.00000000       2.29209185
2
Properties=species:S:1:pos:R:3:forces:R:3 energy=-0.48268013321438236 pbc="F F F"
Pm       0.00000000       0.00000000       0.00000000       0.00000000       0.00000000      -2.36024952
Pm       0.00000000       0.00000000       2.29636364       0.00000000       0.00000000       2.36024952
2
Properties=species:S:1:pos:R:3:forces:R:3 energy=-0.6216712705399979 pbc="F F F"
Pm       0.00000000       0.00000000       0.00000000       0.00000000       0.00000000      -2.35843849
Pm       0.00000000       0.00000000       2.35515152       0.00000000       0.00000000       2.35843849
2
Properties=species:S:1:pos:R:3:forces:R:3 energy=-0.7589579804891187 pbc="F F F"
Pm       0.00000000       0.00000000       0.00000000       0.00000000       0.00000000      -2.30447149
Pm       0.00000000       0.00000000       2.41393939       0.00000000       0.00000000       2.30447149
2
Properties=species:S:1:pos:R:3:forces:R:3 energy=-0.8918068898308357 pbc="F F F"
Pm       0.00000000       0.00000000       0.00000000       0.00000000       0.00000000      -2.20882988
Pm       0.00000000       0.00000000       2.47272727       0.00000000       0.00000000       2.20882988
2
Properties=species:S:1:pos:R:3:forces:R:3 energy=-1.0179714849922556 pbc="F F F"
Pm       0.00000000       0.00000000       0.00000000       0.00000000       0.00000000      -2.07788539
Pm       0.00000000       0.00000000       2.53151515       0.00000000       0.00000000       2.07788539
2
Properties=species:S:1:pos:R:3:forces:R:3 energy=-1.1355161338045467 pbc="F F F"
Pm       0.00000000       0.00000000       0.00000000       0.00000000       0.00000000      -1.91631317
Pm       0.00000000       0.00000000       2.59030303       0.00000000       0.00000000       1.91631317
2
Properties=species:S:1:pos:R:3:forces:R:3 energy=-1.2427805015300084 pbc="F F F"
Pm       0.00000000       0.00000000       0.00000000       0.00000000       0.00000000      -1.72910595
Pm       0.00000000       0.00000000       2.64909091       0.00000000       0.00000000       1.72910595
2
Properties=species:S:1:pos:R:3:forces:R:3 energy=-1.3384411656416815 pbc="F F F"
Pm       0.00000000       0.00000000       0.00000000       0.00000000       0.00000000      -1.52281117
Pm       0.00000000       0.00000000       2.70787879       0.00000000       0.00000000       1.52281117
2
Properties=species:S:1:pos:R:3:forces:R:3 energy=-1.421611235359653 pbc="F F F"
Pm       0.00000000       0.00000000       0.00000000       0.00000000       0.00000000      -1.30557704
Pm       0.00000000       0.00000000       2.76666667       0.00000000       0.00000000       1.30557704
2
Properties=species:S:1:pos:R:3:forces:R:3 energy=-1.491902226440026 pbc="F F F"
Pm       0.00000000       0.00000000       0.00000000       0.00000000       0.00000000      -1.08606982
Pm       0.00000000       0.00000000       2.82545455       0.00000000       0.00000000       1.08606982
2
Properties=species:S:1:pos:R:3:forces:R:3 energy=-1.5494145497743315 pbc="F F F"
Pm       0.00000000       0.00000000       0.00000000       0.00000000       0.00000000      -0.87194884
Pm       0.00000000       0.00000000       2.88424242       0.00000000       0.00000000       0.87194884
2
Properties=species:S:1:pos:R:3:forces:R:3 energy=-1.5946393082775165 pbc="F F F"
Pm       0.00000000       0.00000000       0.00000000       0.00000000       0.00000000      -0.66881937
Pm       0.00000000       0.00000000       2.94303030       0.00000000       0.00000000       0.66881937
2
Properties=species:S:1:pos:R:3:forces:R:3 energy=-1.628333872899923 pbc="F F F"
Pm       0.00000000       0.00000000       0.00000000       0.00000000       0.00000000      -0.48008105
Pm       0.00000000       0.00000000       3.00181818       0.00000000       0.00000000       0.48008105
2
Properties=species:S:1:pos:R:3:forces:R:3 energy=-1.6514021913328851 pbc="F F F"
Pm       0.00000000       0.00000000       0.00000000       0.00000000       0.00000000      -0.30749696
Pm       0.00000000       0.00000000       3.06060606       0.00000000       0.00000000       0.30749696
2
Properties=species:S:1:pos:R:3:forces:R:3 energy=-1.6648212283734816 pbc="F F F"
Pm       0.00000000       0.00000000       0.00000000       0.00000000       0.00000000      -0.15191430
Pm       0.00000000       0.00000000       3.11939394       0.00000000       0.00000000       0.15191430
2
Properties=species:S:1:pos:R:3:forces:R:3 energy=-1.669604695790242 pbc="F F F"
Pm       0.00000000       0.00000000       0.00000000       0.00000000       0.00000000      -0.01372836
Pm       0.00000000       0.00000000       3.17818182       0.00000000       0.00000000       0.01372836
2
Properties=species:S:1:pos:R:3:forces:R:3 energy=-1.6667794488838155 pbc="F F F"
Pm       0.00000000       0.00000000       0.00000000       0.00000000       0.00000000       0.10694078
Pm       0.00000000       0.00000000       3.23696970       0.00000000       0.00000000      -0.10694078
2
Properties=species:S:1:pos:R:3:forces:R:3 energy=-1.6573721908993886 pbc="F F F"
Pm       0.00000000       0.00000000       0.00000000       0.00000000       0.00000000       0.21021985
Pm       0.00000000       0.00000000       3.29575758       0.00000000       0.00000000      -0.21021985
2
Properties=species:S:1:pos:R:3:forces:R:3 energy=-1.6423968875271469 pbc="F F F"
Pm       0.00000000       0.00000000       0.00000000       0.00000000       0.00000000       0.29642630
Pm       0.00000000       0.00000000       3.35454545       0.00000000       0.00000000      -0.29642630
2
Properties=species:S:1:pos:R:3:forces:R:3 energy=-1.6228448321814717 pbc="F F F"
Pm       0.00000000       0.00000000       0.00000000       0.00000000       0.00000000       0.36601686
Pm       0.00000000       0.00000000       3.41333333       0.00000000       0.00000000      -0.36601686
2
Properties=species:S:1:pos:R:3:forces:R:3 energy=-1.5996771554947 pbc="F F F"
Pm       0.00000000       0.00000000       0.00000000       0.00000000       0.00000000       0.41954568
Pm       0.00000000       0.00000000       3.47212121       0.00000000       0.00000000      -0.41954568
2
Properties=species:S:1:pos:R:3:forces:R:3 energy=-1.5738180538901774 pbc="F F F"
Pm       0.00000000       0.00000000       0.00000000       0.00000000       0.00000000       0.45771921
Pm       0.00000000       0.00000000       3.53090909       0.00000000       0.00000000      -0.45771921
2
Properties=species:S:1:pos:R:3:forces:R:3 energy=-1.546143236120671 pbc="F F F"
Pm       0.00000000       0.00000000       0.00000000       0.00000000       0.00000000       0.48148417
Pm       0.00000000       0.00000000       3.58969697       0.00000000       0.00000000      -0.48148417
2
Properties=species:S:1:pos:R:3:forces:R:3 energy=-1.5174628585009844 pbc="F F F"
Pm       0.00000000       0.00000000       0.00000000       0.00000000       0.00000000       0.49219966
Pm       0.00000000       0.00000000       3.64848485       0.00000000       0.00000000      -0.49219966
2
Properties=species:S:1:pos:R:3:forces:R:3 energy=-1.4884898509148972 pbc="F F F"
Pm       0.00000000       0.00000000       0.00000000       0.00000000       0.00000000       0.49187830
Pm       0.00000000       0.00000000       3.70727273       0.00000000       0.00000000      -0.49187830
2
Properties=species:S:1:pos:R:3:forces:R:3 energy=-1.4597900084726145 pbc="F F F"
Pm       0.00000000       0.00000000       0.00000000       0.00000000       0.00000000       0.48341370
Pm       0.00000000       0.00000000       3.76606061       0.00000000       0.00000000      -0.48341370
2
Properties=species:S:1:pos:R:3:forces:R:3 energy=-1.4317384397703101 pbc="F F F"
Pm       0.00000000       0.00000000       0.00000000       0.00000000       0.00000000       0.47054759
Pm       0.00000000       0.00000000       3.82484848       0.00000000       0.00000000      -0.47054759
2
Properties=species:S:1:pos:R:3:forces:R:3 energy=-1.4044710942267418 pbc="F F F"
Pm       0.00000000       0.00000000       0.00000000       0.00000000       0.00000000       0.45735556
Pm       0.00000000       0.00000000       3.88363636       0.00000000       0.00000000      -0.45735556
2
Properties=species:S:1:pos:R:3:forces:R:3 energy=-1.3779004113463562 pbc="F F F"
Pm       0.00000000       0.00000000       0.00000000       0.00000000       0.00000000       0.44736692
Pm       0.00000000       0.00000000       3.94242424       0.00000000       0.00000000      -0.44736692
2
Properties=species:S:1:pos:R:3:forces:R:3 energy=-1.351766859978028 pbc="F F F"
Pm       0.00000000       0.00000000       0.00000000       0.00000000       0.00000000       0.44268581
Pm       0.00000000       0.00000000       4.00121212       0.00000000       0.00000000      -0.44268581
2
Properties=species:S:1:pos:R:3:forces:R:3 energy=-1.3257412982491308 pbc="F F F"
Pm       0.00000000       0.00000000       0.00000000       0.00000000       0.00000000       0.44357038
Pm       0.00000000       0.00000000       4.06000000       0.00000000       0.00000000      -0.44357038
2
Properties=species:S:1:pos:R:3:forces:R:3 energy=-1.2995306615202142 pbc="F F F"
Pm       0.00000000       0.00000000       0.00000000       0.00000000       0.00000000       0.44864792
Pm       0.00000000       0.00000000       4.11878788       0.00000000       0.00000000      -0.44864792
2
Properties=species:S:1:pos:R:3:forces:R:3 energy=-1.2729541624636038 pbc="F F F"
Pm       0.00000000       0.00000000       0.00000000       0.00000000       0.00000000       0.45559406
Pm       0.00000000       0.00000000       4.17757576       0.00000000       0.00000000      -0.45559406
2
Properties=species:S:1:pos:R:3:forces:R:3 energy=-1.245975992422604 pbc="F F F"
Pm       0.00000000       0.00000000       0.00000000       0.00000000       0.00000000       0.46193516
Pm       0.00000000       0.00000000       4.23636364       0.00000000       0.00000000      -0.46193516
2
Properties=species:S:1:pos:R:3:forces:R:3 energy=-1.2186929363166725 pbc="F F F"
Pm       0.00000000       0.00000000       0.00000000       0.00000000       0.00000000       0.46568030
Pm       0.00000000       0.00000000       4.29515152       0.00000000       0.00000000      -0.46568030
2
Properties=species:S:1:pos:R:3:forces:R:3 energy=-1.1912976331735672 pbc="F F F"
Pm       0.00000000       0.00000000       0.00000000       0.00000000       0.00000000       0.46567222
Pm       0.00000000       0.00000000       4.35393939       0.00000000       0.00000000      -0.46567222
2
Properties=species:S:1:pos:R:3:forces:R:3 energy=-1.1640210337204537 pbc="F F F"
Pm       0.00000000       0.00000000       0.00000000       0.00000000       0.00000000       0.46165091
Pm       0.00000000       0.00000000       4.41272727       0.00000000       0.00000000      -0.46165091
2
Properties=species:S:1:pos:R:3:forces:R:3 energy=-1.137086945966625 pbc="F F F"
Pm       0.00000000       0.00000000       0.00000000       0.00000000       0.00000000       0.45414799
Pm       0.00000000       0.00000000       4.47151515       0.00000000       0.00000000      -0.45414799
2
Properties=species:S:1:pos:R:3:forces:R:3 energy=-1.1106705794651133 pbc="F F F"
Pm       0.00000000       0.00000000       0.00000000       0.00000000       0.00000000       0.44426548
Pm       0.00000000       0.00000000       4.53030303       0.00000000       0.00000000      -0.44426548
2
Properties=species:S:1:pos:R:3:forces:R:3 energy=-1.084872302845902 pbc="F F F"
Pm       0.00000000       0.00000000       0.00000000       0.00000000       0.00000000       0.43337062
Pm       0.00000000       0.00000000       4.58909091       0.00000000       0.00000000      -0.43337062
2
Properties=species:S:1:pos:R:3:forces:R:3 energy=-1.0597106649047943 pbc="F F F"
Pm       0.00000000       0.00000000       0.00000000       0.00000000       0.00000000       0.42280021
Pm       0.00000000       0.00000000       4.64787879       0.00000000       0.00000000      -0.42280021
2
Properties=species:S:1:pos:R:3:forces:R:3 energy=-1.0351342850221001 pbc="F F F"
Pm       0.00000000       0.00000000       0.00000000       0.00000000       0.00000000       0.41356134
Pm       0.00000000       0.00000000       4.70666667       0.00000000       0.00000000      -0.41356134
2
Properties=species:S:1:pos:R:3:forces:R:3 energy=-1.0110482669397611 pbc="F F F"
Pm       0.00000000       0.00000000       0.00000000       0.00000000       0.00000000       0.40620983
Pm       0.00000000       0.00000000       4.76545455       0.00000000       0.00000000      -0.40620983
2
Properties=species:S:1:pos:R:3:forces:R:3 energy=-0.9873355916611322 pbc="F F F"
Pm       0.00000000       0.00000000       0.00000000       0.00000000       0.00000000       0.40079400
Pm       0.00000000       0.00000000       4.82424242       0.00000000       0.00000000      -0.40079400
2
Properties=species:S:1:pos:R:3:forces:R:3 energy=-0.9638949321383478 pbc="F F F"
Pm       0.00000000       0.00000000       0.00000000       0.00000000       0.00000000       0.39694986
Pm       0.00000000       0.00000000       4.88303030       0.00000000       0.00000000      -0.39694986
2
Properties=species:S:1:pos:R:3:forces:R:3 energy=-0.9406456563106836 pbc="F F F"
Pm       0.00000000       0.00000000       0.00000000       0.00000000       0.00000000       0.39404470
Pm       0.00000000       0.00000000       4.94181818       0.00000000       0.00000000      -0.39404470
2
Properties=species:S:1:pos:R:3:forces:R:3 energy=-0.9175600769691792 pbc="F F F"
Pm       0.00000000       0.00000000       0.00000000       0.00000000       0.00000000       0.39126512
Pm       0.00000000       0.00000000       5.00060606       0.00000000       0.00000000      -0.39126512
2
Properties=species:S:1:pos:R:3:forces:R:3 energy=-0.8946562966154178 pbc="F F F"
Pm       0.00000000       0.00000000       0.00000000       0.00000000       0.00000000       0.38771769
Pm       0.00000000       0.00000000       5.05939394       0.00000000       0.00000000      -0.38771769
2
Properties=species:S:1:pos:R:3:forces:R:3 energy=-0.872007479275583 pbc="F F F"
Pm       0.00000000       0.00000000       0.00000000       0.00000000       0.00000000       0.38243508
Pm       0.00000000       0.00000000       5.11818182       0.00000000       0.00000000      -0.38243508
2
Properties=species:S:1:pos:R:3:forces:R:3 energy=-0.8497453835975864 pbc="F F F"
Pm       0.00000000       0.00000000       0.00000000       0.00000000       0.00000000       0.37445146
Pm       0.00000000       0.00000000       5.17696970       0.00000000       0.00000000      -0.37445146
2
Properties=species:S:1:pos:R:3:forces:R:3 energy=-0.8280540029930584 pbc="F F F"
Pm       0.00000000       0.00000000       0.00000000       0.00000000       0.00000000       0.36285818
Pm       0.00000000       0.00000000       5.23575758       0.00000000       0.00000000      -0.36285818
2
Properties=species:S:1:pos:R:3:forces:R:3 energy=-0.8071683165236533 pbc="F F F"
Pm       0.00000000       0.00000000       0.00000000       0.00000000       0.00000000       0.34693542
Pm       0.00000000       0.00000000       5.29454545       0.00000000       0.00000000      -0.34693542
2
Properties=species:S:1:pos:R:3:forces:R:3 energy=-0.787354651046495 pbc="F F F"
Pm       0.00000000       0.00000000       0.00000000       0.00000000       0.00000000       0.32628512
Pm       0.00000000       0.00000000       5.35333333       0.00000000       0.00000000      -0.32628512
2
Properties=species:S:1:pos:R:3:forces:R:3 energy=-0.7688952412752764 pbc="F F F"
Pm       0.00000000       0.00000000       0.00000000       0.00000000       0.00000000       0.30093405
Pm       0.00000000       0.00000000       5.41212121       0.00000000       0.00000000      -0.30093405
2
Properties=species:S:1:pos:R:3:forces:R:3 energy=-0.7520549018643392 pbc="F F F"
Pm       0.00000000       0.00000000       0.00000000       0.00000000       0.00000000       0.27139103
Pm       0.00000000       0.00000000       5.47090909       0.00000000       0.00000000      -0.27139103
2
Properties=species:S:1:pos:R:3:forces:R:3 energy=-0.737050357775086 pbc="F F F"
Pm       0.00000000       0.00000000       0.00000000       0.00000000       0.00000000       0.23861681
Pm       0.00000000       0.00000000       5.52969697       0.00000000       0.00000000      -0.23861681
2
Properties=species:S:1:pos:R:3:forces:R:3 energy=-0.7240356019561921 pbc="F F F"
Pm       0.00000000       0.00000000       0.00000000       0.00000000       0.00000000       0.20398557
Pm       0.00000000       0.00000000       5.58848485       0.00000000       0.00000000      -0.20398557
2
Properties=species:S:1:pos:R:3:forces:R:3 energy=-0.7130720815178819 pbc="F F F"
Pm       0.00000000       0.00000000       0.00000000       0.00000000       0.00000000       0.16910216
Pm       0.00000000       0.00000000       5.64727273       0.00000000       0.00000000      -0.16910216
2
Properties=species:S:1:pos:R:3:forces:R:3 energy=-0.7041276656939764 pbc="F F F"
Pm       0.00000000       0.00000000       0.00000000       0.00000000       0.00000000       0.13566831
Pm       0.00000000       0.00000000       5.70606061       0.00000000       0.00000000      -0.13566831
2
Properties=species:S:1:pos:R:3:forces:R:3 energy=-0.6970542370793039 pbc="F F F"
Pm       0.00000000       0.00000000       0.00000000       0.00000000       0.00000000       0.10533194
Pm       0.00000000       0.00000000       5.76484848       0.00000000       0.00000000      -0.10533194
2
Properties=species:S:1:pos:R:3:forces:R:3 energy=-0.6916467267385566 pbc="F F F"
Pm       0.00000000       0.00000000       0.00000000       0.00000000       0.00000000       0.07966227
Pm       0.00000000       0.00000000       5.82363636       0.00000000       0.00000000      -0.07966227
2
Properties=species:S:1:pos:R:3:forces:R:3 energy=-0.6875792893830152 pbc="F F F"
Pm       0.00000000       0.00000000       0.00000000       0.00000000       0.00000000       0.05991690
Pm       0.00000000       0.00000000       5.88242424       0.00000000       0.00000000      -0.05991690
2
Properties=species:S:1:pos:R:3:forces:R:3 energy=-0.6844650220569208 pbc="F F F"
Pm       0.00000000       0.00000000       0.00000000       0.00000000       0.00000000       0.04716376
Pm       0.00000000       0.00000000       5.94121212       0.00000000       0.00000000      -0.04716376
2
Properties=species:S:1:pos:R:3:forces:R:3 energy=-0.6818779455801096 pbc="F F F"
Pm       0.00000000       0.00000000       0.00000000       0.00000000       0.00000000       0.04226183
Pm       0.00000000       0.00000000       6.00000000       0.00000000       0.00000000      -0.04226183
