2
Properties=species:S:1:pos:R:3:forces:R:3 energy=17096.543941905707 pbc="F F F"
Re       0.00000000       0.00000000       0.00000000       0.00000000       0.00000000 -278584.46875000
Re       0.00000000       0.00000000       0.18000000       0.00000000       0.00000000  278584.46875000
2
Properties=species:S:1:pos:R:3:forces:R:3 energy=7371.555660655706 pbc="F F F"
Re       0.00000000       0.00000000       0.00000000       0.00000000       0.00000000  -91874.20312500
Re       0.00000000       0.00000000       0.23878788       0.00000000       0.00000000   91874.20312500
2
Properties=species:S:1:pos:R:3:forces:R:3 energy=3915.9035610463307 pbc="F F F"
Re       0.00000000       0.00000000       0.00000000       0.00000000       0.00000000  -35637.35546875
Re       0.00000000       0.00000000       0.29757576       0.00000000       0.00000000   35637.35546875
2
Properties=species:S:1:pos:R:3:forces:R:3 energy=2511.9357876088307 pbc="F F F"
Re       0.00000000       0.00000000       0.00000000       0.00000000       0.00000000  -15290.60546875
Re       0.00000000       0.00000000       0.35636364       0.00000000       0.00000000   15290.60546875
2
Properties=species:S:1:pos:R:3:forces:R:3 energy=1889.2243618339164 pbc="F F F"
Re       0.00000000       0.00000000       0.00000000       0.00000000       0.00000000   -7060.47167969
Re       0.00000000       0.00000000       0.41515152       0.00000000       0.00000000    7060.47167969
2
Properties=species:S:1:pos:R:3:forces:R:3 energy=1593.2297329340022 pbc="F F F"
Re       0.00000000       0.00000000       0.00000000       0.00000000       0.00000000   -3485.72753906
Re       0.00000000       0.00000000       0.47393939       0.00000000       0.00000000    3485.72753906
2
Properties=species:S:1:pos:R:3:forces:R:3 energy=1441.5666470091735 pbc="F F F"
Re       0.00000000       0.00000000       0.00000000       0.00000000       0.00000000   -1889.53869629
Re       0.00000000       0.00000000       0.53272727       0.00000000       0.00000000    1889.53869629
2
Properties=species:S:1:pos:R:3:forces:R:3 energy=1352.799313046973 pbc="F F F"
Re       0.00000000       0.00000000       0.00000000       0.00000000       0.00000000   -1244.58398438
Re       0.00000000       0.00000000       0.59151515       0.00000000       0.00000000    1244.58398438
2
Properties=species:S:1:pos:R:3:forces:R:3 energy=1284.5091519553423 pbc="F F F"
Re       0.00000000       0.00000000       0.00000000       0.00000000       0.00000000   -1154.38293457
Re       0.00000000       0.00000000       0.65030303       0.00000000       0.00000000    1154.38293457
2
Properties=species:S:1:pos:R:3:forces:R:3 energy=1209.2856412701756 pbc="F F F"
Re       0.00000000       0.00000000       0.00000000       0.00000000       0.00000000   -1462.85913086
Re       0.00000000       0.00000000       0.70909091       0.00000000       0.00000000    1462.85913086
2
Properties=species:S:1:pos:R:3:forces:R:3 energy=1106.7408415541872 pbc="F F F"
Re       0.00000000       0.00000000       0.00000000       0.00000000       0.00000000   -2063.52514648
Re       0.00000000       0.00000000       0.76787879       0.00000000       0.00000000    2063.52514648
2
Properties=species:S:1:pos:R:3:forces:R:3 energy=964.6340912052901 pbc="F F F"
Re       0.00000000       0.00000000       0.00000000       0.00000000       0.00000000   -2752.55224609
Re       0.00000000       0.00000000       0.82666667       0.00000000       0.00000000    2752.55224609
2
Properties=species:S:1:pos:R:3:forces:R:3 energy=786.9736910079023 pbc="F F F"
Re       0.00000000       0.00000000       0.00000000       0.00000000       0.00000000   -3265.47900391
Re       0.00000000       0.00000000       0.88545455       0.00000000       0.00000000    3265.47900391
2
Properties=species:S:1:pos:R:3:forces:R:3 energy=587.3988621756047 pbc="F F F"
Re       0.00000000       0.00000000       0.00000000       0.00000000       0.00000000   -3497.63012695
Re       0.00000000       0.00000000       0.94424242       0.00000000       0.00000000    3497.63012695
2
Properties=species:S:1:pos:R:3:forces:R:3 energy=387.75585717831393 pbc="F F F"
Re       0.00000000       0.00000000       0.00000000       0.00000000       0.00000000   -3191.34008789
Re       0.00000000       0.00000000       1.00303030       0.00000000       0.00000000    3191.34008789
2
Properties=species:S:1:pos:R:3:forces:R:3 energy=219.11038038390794 pbc="F F F"
Re       0.00000000       0.00000000       0.00000000       0.00000000       0.00000000   -2488.20800781
Re       0.00000000       0.00000000       1.06181818       0.00000000       0.00000000    2488.20800781
2
Properties=species:S:1:pos:R:3:forces:R:3 energy=102.6437215095878 pbc="F F F"
Re       0.00000000       0.00000000       0.00000000       0.00000000       0.00000000   -1565.45678711
Re       0.00000000       0.00000000       1.12060606       0.00000000       0.00000000    1565.45678711
2
Properties=species:S:1:pos:R:3:forces:R:3 energy=45.40682968371141 pbc="F F F"
Re       0.00000000       0.00000000       0.00000000       0.00000000       0.00000000    -601.74188232
Re       0.00000000       0.00000000       1.17939394       0.00000000       0.00000000     601.74188232
2
Properties=species:S:1:pos:R:3:forces:R:3 energy=19.240096119189342 pbc="F F F"
Re       0.00000000       0.00000000       0.00000000       0.00000000       0.00000000    -295.09976196
Re       0.00000000       0.00000000       1.23818182       0.00000000       0.00000000     295.09976196
2
Properties=species:S:1:pos:R:3:forces:R:3 energy=8.246033235829374 pbc="F F F"
Re       0.00000000       0.00000000       0.00000000       0.00000000       0.00000000    -125.80162048
Re       0.00000000       0.00000000       1.29696970       0.00000000       0.00000000     125.80162048
2
Properties=species:S:1:pos:R:3:forces:R:3 energy=2.091824976193369 pbc="F F F"
Re       0.00000000       0.00000000       0.00000000       0.00000000       0.00000000     -87.54839325
Re       0.00000000       0.00000000       1.35575758       0.00000000       0.00000000      87.54839325
2
Properties=species:S:1:pos:R:3:forces:R:3 energy=-2.249461296892751 pbc="F F F"
Re       0.00000000       0.00000000       0.00000000       0.00000000       0.00000000     -61.53617477
Re       0.00000000       0.00000000       1.41454545       0.00000000       0.00000000      61.53617477
2
Properties=species:S:1:pos:R:3:forces:R:3 energy=-5.314110888784946 pbc="F F F"
Re       0.00000000       0.00000000       0.00000000       0.00000000       0.00000000     -44.09822845
Re       0.00000000       0.00000000       1.47333333       0.00000000       0.00000000      44.09822845
2
Properties=species:S:1:pos:R:3:forces:R:3 energy=-7.558661895323505 pbc="F F F"
Re       0.00000000       0.00000000       0.00000000       0.00000000       0.00000000     -32.90289688
Re       0.00000000       0.00000000       1.53212121       0.00000000       0.00000000      32.90289688
2
Properties=species:S:1:pos:R:3:forces:R:3 energy=-9.216685248682454 pbc="F F F"
Re       0.00000000       0.00000000       0.00000000       0.00000000       0.00000000     -23.62080765
Re       0.00000000       0.00000000       1.59090909       0.00000000       0.00000000      23.62080765
2
Properties=species:S:1:pos:R:3:forces:R:3 energy=-10.358711669217854 pbc="F F F"
Re       0.00000000       0.00000000       0.00000000       0.00000000       0.00000000     -15.56812191
Re       0.00000000       0.00000000       1.64969697       0.00000000       0.00000000      15.56812191
2
Properties=species:S:1:pos:R:3:forces:R:3 energy=-11.098535471040643 pbc="F F F"
Re       0.00000000       0.00000000       0.00000000       0.00000000       0.00000000     -10.07174969
Re       0.00000000       0.00000000       1.70848485       0.00000000       0.00000000      10.07174969
2
Properties=species:S:1:pos:R:3:forces:R:3 energy=-11.592601894456447 pbc="F F F"
Re       0.00000000       0.00000000       0.00000000       0.00000000       0.00000000      -7.08388805
Re       0.00000000       0.00000000       1.76727273       0.00000000       0.00000000       7.08388805
2
Properties=species:S:1:pos:R:3:forces:R:3 energy=-11.962355540243394 pbc="F F F"
Re       0.00000000       0.00000000       0.00000000       0.00000000       0.00000000      -5.68057299
Re       0.00000000       0.00000000       1.82606061       0.00000000       0.00000000       5.68057299
2
Properties=species:S:1:pos:R:3:forces:R:3 energy=-12.274793860449925 pbc="F F F"
Re       0.00000000       0.00000000       0.00000000       0.00000000       0.00000000      -5.01592970
Re       0.00000000       0.00000000       1.88484848       0.00000000       0.00000000       5.01592970
2
Properties=species:S:1:pos:R:3:forces:R:3 energy=-12.555042593034917 pbc="F F F"
Re       0.00000000       0.00000000       0.00000000       0.00000000       0.00000000      -4.50861502
Re       0.00000000       0.00000000       1.94363636       0.00000000       0.00000000       4.50861502
2
Properties=species:S:1:pos:R:3:forces:R:3 energy=-12.800969531303148 pbc="F F F"
Re       0.00000000       0.00000000       0.00000000       0.00000000       0.00000000      -3.80825973
Re       0.00000000       0.00000000       2.00242424       0.00000000       0.00000000       3.80825973
2
Properties=species:S:1:pos:R:3:forces:R:3 energy=-12.996309674097262 pbc="F F F"
Re       0.00000000       0.00000000       0.00000000       0.00000000       0.00000000      -2.78309393
Re       0.00000000       0.00000000       2.06121212       0.00000000       0.00000000       2.78309393
2
Properties=species:S:1:pos:R:3:forces:R:3 energy=-13.122862064405568 pbc="F F F"
Re       0.00000000       0.00000000       0.00000000       0.00000000       0.00000000      -1.48946941
Re       0.00000000       0.00000000       2.12000000       0.00000000       0.00000000       1.48946941
2
Properties=species:S:1:pos:R:3:forces:R:3 energy=-13.169354264992952 pbc="F F F"
Re       0.00000000       0.00000000       0.00000000       0.00000000       0.00000000      -0.08971342
Re       0.00000000       0.00000000       2.17878788       0.00000000       0.00000000       0.08971342
2
Properties=species:S:1:pos:R:3:forces:R:3 energy=-13.134663226854098 pbc="F F F"
Re       0.00000000       0.00000000       0.00000000       0.00000000       0.00000000       1.24823153
Re       0.00000000       0.00000000       2.23757576       0.00000000       0.00000000      -1.24823153
2
Properties=species:S:1:pos:R:3:forces:R:3 energy=-13.026047325758654 pbc="F F F"
Re       0.00000000       0.00000000       0.00000000       0.00000000       0.00000000       2.41193247
Re       0.00000000       0.00000000       2.29636364       0.00000000       0.00000000      -2.41193247
2
Properties=species:S:1:pos:R:3:forces:R:3 energy=-12.855595198887139 pbc="F F F"
Re       0.00000000       0.00000000       0.00000000       0.00000000       0.00000000       3.34601116
Re       0.00000000       0.00000000       2.35515152       0.00000000       0.00000000      -3.34601116
2
Properties=species:S:1:pos:R:3:forces:R:3 energy=-12.637682820808001 pbc="F F F"
Re       0.00000000       0.00000000       0.00000000       0.00000000       0.00000000       4.02276754
Re       0.00000000       0.00000000       2.41393939       0.00000000       0.00000000      -4.02276754
2
Properties=species:S:1:pos:R:3:forces:R:3 energy=-12.388090413092517 pbc="F F F"
Re       0.00000000       0.00000000       0.00000000       0.00000000       0.00000000       4.42023277
Re       0.00000000       0.00000000       2.47272727       0.00000000       0.00000000      -4.42023277
2
Properties=species:S:1:pos:R:3:forces:R:3 energy=-12.123759851795727 pbc="F F F"
Re       0.00000000       0.00000000       0.00000000       0.00000000       0.00000000       4.52292347
Re       0.00000000       0.00000000       2.53151515       0.00000000       0.00000000      -4.52292347
2
Properties=species:S:1:pos:R:3:forces:R:3 energy=-11.861968919956428 pbc="F F F"
Re       0.00000000       0.00000000       0.00000000       0.00000000       0.00000000       4.33796406
Re       0.00000000       0.00000000       2.59030303       0.00000000       0.00000000      -4.33796406
2
Properties=species:S:1:pos:R:3:forces:R:3 energy=-11.618504597563161 pbc="F F F"
Re       0.00000000       0.00000000       0.00000000       0.00000000       0.00000000       3.91026449
Re       0.00000000       0.00000000       2.64909091       0.00000000       0.00000000      -3.91026449
2
Properties=species:S:1:pos:R:3:forces:R:3 energy=-11.405330044083383 pbc="F F F"
Re       0.00000000       0.00000000       0.00000000       0.00000000       0.00000000       3.32447720
Re       0.00000000       0.00000000       2.70787879       0.00000000       0.00000000      -3.32447720
2
Properties=species:S:1:pos:R:3:forces:R:3 energy=-11.22857166750973 pbc="F F F"
Re       0.00000000       0.00000000       0.00000000       0.00000000       0.00000000       2.69044542
Re       0.00000000       0.00000000       2.76666667       0.00000000       0.00000000      -2.69044542
2
Properties=species:S:1:pos:R:3:forces:R:3 energy=-11.087780739046469 pbc="F F F"
Re       0.00000000       0.00000000       0.00000000       0.00000000       0.00000000       2.11751747
Re       0.00000000       0.00000000       2.82545455       0.00000000       0.00000000      -2.11751747
2
Properties=species:S:1:pos:R:3:forces:R:3 energy=-10.976821597727097 pbc="F F F"
Re       0.00000000       0.00000000       0.00000000       0.00000000       0.00000000       1.68455160
Re       0.00000000       0.00000000       2.88424242       0.00000000       0.00000000      -1.68455160
2
Properties=species:S:1:pos:R:3:forces:R:3 energy=-10.886478956701513 pbc="F F F"
Re       0.00000000       0.00000000       0.00000000       0.00000000       0.00000000       1.41511500
Re       0.00000000       0.00000000       2.94303030       0.00000000       0.00000000      -1.41511500
2
Properties=species:S:1:pos:R:3:forces:R:3 energy=-10.807705641166972 pbc="F F F"
Re       0.00000000       0.00000000       0.00000000       0.00000000       0.00000000       1.28484154
Re       0.00000000       0.00000000       3.00181818       0.00000000       0.00000000      -1.28484154
2
Properties=species:S:1:pos:R:3:forces:R:3 energy=-10.733440372045148 pbc="F F F"
Re       0.00000000       0.00000000       0.00000000       0.00000000       0.00000000       1.25542963
Re       0.00000000       0.00000000       3.06060606       0.00000000       0.00000000      -1.25542963
2
Properties=species:S:1:pos:R:3:forces:R:3 energy=-10.658808283388378 pbc="F F F"
Re       0.00000000       0.00000000       0.00000000       0.00000000       0.00000000       1.29193068
Re       0.00000000       0.00000000       3.11939394       0.00000000       0.00000000      -1.29193068
2
Properties=species:S:1:pos:R:3:forces:R:3 energy=-10.580852612580884 pbc="F F F"
Re       0.00000000       0.00000000       0.00000000       0.00000000       0.00000000       1.36365449
Re       0.00000000       0.00000000       3.17818182       0.00000000       0.00000000      -1.36365449
2
Properties=species:S:1:pos:R:3:forces:R:3 energy=-10.498317191115019 pbc="F F F"
Re       0.00000000       0.00000000       0.00000000       0.00000000       0.00000000       1.44357789
Re       0.00000000       0.00000000       3.23696970       0.00000000       0.00000000      -1.44357789
2
Properties=species:S:1:pos:R:3:forces:R:3 energy=-10.411419794064221 pbc="F F F"
Re       0.00000000       0.00000000       0.00000000       0.00000000       0.00000000       1.50846875
Re       0.00000000       0.00000000       3.29575758       0.00000000       0.00000000      -1.50846875
2
Properties=species:S:1:pos:R:3:forces:R:3 energy=-10.32162349593523 pbc="F F F"
Re       0.00000000       0.00000000       0.00000000       0.00000000       0.00000000       1.53954196
Re       0.00000000       0.00000000       3.35454545       0.00000000       0.00000000      -1.53954196
2
Properties=species:S:1:pos:R:3:forces:R:3 energy=-10.231324290750559 pbc="F F F"
Re       0.00000000       0.00000000       0.00000000       0.00000000       0.00000000       1.52411664
Re       0.00000000       0.00000000       3.41333333       0.00000000       0.00000000      -1.52411664
2
Properties=species:S:1:pos:R:3:forces:R:3 energy=-10.143426120131334 pbc="F F F"
Re       0.00000000       0.00000000       0.00000000       0.00000000       0.00000000       1.45794976
Re       0.00000000       0.00000000       3.47212121       0.00000000       0.00000000      -1.45794976
2
Properties=species:S:1:pos:R:3:forces:R:3 energy=-10.060794088140801 pbc="F F F"
Re       0.00000000       0.00000000       0.00000000       0.00000000       0.00000000       1.34676898
Re       0.00000000       0.00000000       3.53090909       0.00000000       0.00000000      -1.34676898
2
Properties=species:S:1:pos:R:3:forces:R:3 energy=-9.985677180884295 pbc="F F F"
Re       0.00000000       0.00000000       0.00000000       0.00000000       0.00000000       1.20523131
Re       0.00000000       0.00000000       3.58969697       0.00000000       0.00000000      -1.20523131
2
Properties=species:S:1:pos:R:3:forces:R:3 energy=-9.919298931151246 pbc="F F F"
Re       0.00000000       0.00000000       0.00000000       0.00000000       0.00000000       1.05285871
Re       0.00000000       0.00000000       3.64848485       0.00000000       0.00000000      -1.05285871
2
Properties=species:S:1:pos:R:3:forces:R:3 energy=-9.861729242590442 pbc="F F F"
Re       0.00000000       0.00000000       0.00000000       0.00000000       0.00000000       0.90834135
Re       0.00000000       0.00000000       3.70727273       0.00000000       0.00000000      -0.90834135
2
Properties=species:S:1:pos:R:3:forces:R:3 energy=-9.812083397195597 pbc="F F F"
Re       0.00000000       0.00000000       0.00000000       0.00000000       0.00000000       0.78480202
Re       0.00000000       0.00000000       3.76606061       0.00000000       0.00000000      -0.78480202
2
Properties=species:S:1:pos:R:3:forces:R:3 energy=-9.76893133997819 pbc="F F F"
Re       0.00000000       0.00000000       0.00000000       0.00000000       0.00000000       0.68777257
Re       0.00000000       0.00000000       3.82484848       0.00000000       0.00000000      -0.68777257
2
Properties=species:S:1:pos:R:3:forces:R:3 energy=-9.730721262419415 pbc="F F F"
Re       0.00000000       0.00000000       0.00000000       0.00000000       0.00000000       0.61597615
Re       0.00000000       0.00000000       3.88363636       0.00000000       0.00000000      -0.61597615
2
Properties=species:S:1:pos:R:3:forces:R:3 energy=-9.696121844836886 pbc="F F F"
Re       0.00000000       0.00000000       0.00000000       0.00000000       0.00000000       0.56379271
Re       0.00000000       0.00000000       3.94242424       0.00000000       0.00000000      -0.56379271
2
Properties=species:S:1:pos:R:3:forces:R:3 energy=-9.664192029419889 pbc="F F F"
Re       0.00000000       0.00000000       0.00000000       0.00000000       0.00000000       0.52393383
Re       0.00000000       0.00000000       4.00121212       0.00000000       0.00000000      -0.52393383
2
Properties=species:S:1:pos:R:3:forces:R:3 energy=-9.634415580587964 pbc="F F F"
Re       0.00000000       0.00000000       0.00000000       0.00000000       0.00000000       0.48945573
Re       0.00000000       0.00000000       4.06000000       0.00000000       0.00000000      -0.48945573
2
Properties=species:S:1:pos:R:3:forces:R:3 energy=-9.606646649527145 pbc="F F F"
Re       0.00000000       0.00000000       0.00000000       0.00000000       0.00000000       0.45488340
Re       0.00000000       0.00000000       4.11878788       0.00000000       0.00000000      -0.45488340
2
Properties=species:S:1:pos:R:3:forces:R:3 energy=-9.581005833192934 pbc="F F F"
Re       0.00000000       0.00000000       0.00000000       0.00000000       0.00000000       0.41662374
Re       0.00000000       0.00000000       4.17757576       0.00000000       0.00000000      -0.41662374
2
Properties=species:S:1:pos:R:3:forces:R:3 energy=-9.557767837145937 pbc="F F F"
Re       0.00000000       0.00000000       0.00000000       0.00000000       0.00000000       0.37298122
Re       0.00000000       0.00000000       4.23636364       0.00000000       0.00000000      -0.37298122
2
Properties=species:S:1:pos:R:3:forces:R:3 energy=-9.537258152440016 pbc="F F F"
Re       0.00000000       0.00000000       0.00000000       0.00000000       0.00000000       0.32394701
Re       0.00000000       0.00000000       4.29515152       0.00000000       0.00000000      -0.32394701
2
Properties=species:S:1:pos:R:3:forces:R:3 energy=-9.519759041010548 pbc="F F F"
Re       0.00000000       0.00000000       0.00000000       0.00000000       0.00000000       0.27089608
Re       0.00000000       0.00000000       4.35393939       0.00000000       0.00000000      -0.27089608
2
Properties=species:S:1:pos:R:3:forces:R:3 energy=-9.50544063353699 pbc="F F F"
Re       0.00000000       0.00000000       0.00000000       0.00000000       0.00000000       0.21617050
Re       0.00000000       0.00000000       4.41272727       0.00000000       0.00000000      -0.21617050
2
Properties=species:S:1:pos:R:3:forces:R:3 energy=-9.49431906280762 pbc="F F F"
Re       0.00000000       0.00000000       0.00000000       0.00000000       0.00000000       0.16265398
Re       0.00000000       0.00000000       4.47151515       0.00000000       0.00000000      -0.16265398
2
Properties=species:S:1:pos:R:3:forces:R:3 energy=-9.486234469021632 pbc="F F F"
Re       0.00000000       0.00000000       0.00000000       0.00000000       0.00000000       0.11331464
Re       0.00000000       0.00000000       4.53030303       0.00000000       0.00000000      -0.11331464
2
Properties=species:S:1:pos:R:3:forces:R:3 energy=-9.480861433185826 pbc="F F F"
Re       0.00000000       0.00000000       0.00000000       0.00000000       0.00000000       0.07081990
Re       0.00000000       0.00000000       4.58909091       0.00000000       0.00000000      -0.07081990
2
Properties=species:S:1:pos:R:3:forces:R:3 energy=-9.477732910839357 pbc="F F F"
Re       0.00000000       0.00000000       0.00000000       0.00000000       0.00000000       0.03722771
Re       0.00000000       0.00000000       4.64787879       0.00000000       0.00000000      -0.03722771
2
Properties=species:S:1:pos:R:3:forces:R:3 energy=-9.476284810824305 pbc="F F F"
Re       0.00000000       0.00000000       0.00000000       0.00000000       0.00000000       0.01376217
Re       0.00000000       0.00000000       4.70666667       0.00000000       0.00000000      -0.01376217
2
Properties=species:S:1:pos:R:3:forces:R:3 energy=-9.475910373728633 pbc="F F F"
Re       0.00000000       0.00000000       0.00000000       0.00000000       0.00000000       0.00069015
Re       0.00000000       0.00000000       4.76545455       0.00000000       0.00000000      -0.00069015
2
Properties=species:S:1:pos:R:3:forces:R:3 energy=-9.47601355547316 pbc="F F F"
Re       0.00000000       0.00000000       0.00000000       0.00000000       0.00000000      -0.00269930
Re       0.00000000       0.00000000       4.82424242       0.00000000       0.00000000       0.00269930
2
Properties=species:S:1:pos:R:3:forces:R:3 energy=-9.476068072755801 pbc="F F F"
Re       0.00000000       0.00000000       0.00000000       0.00000000       0.00000000       0.00204271
Re       0.00000000       0.00000000       4.88303030       0.00000000       0.00000000      -0.00204271
2
Properties=species:S:1:pos:R:3:forces:R:3 energy=-9.475656335803961 pbc="F F F"
Re       0.00000000       0.00000000       0.00000000       0.00000000       0.00000000       0.01278659
Re       0.00000000       0.00000000       4.94181818       0.00000000       0.00000000      -0.01278659
2
Properties=species:S:1:pos:R:3:forces:R:3 energy=-9.474493274393339 pbc="F F F"
Re       0.00000000       0.00000000       0.00000000       0.00000000       0.00000000       0.02716140
Re       0.00000000       0.00000000       5.00060606       0.00000000       0.00000000      -0.02716140
2
Properties=species:S:1:pos:R:3:forces:R:3 energy=-9.472435849248512 pbc="F F F"
Re       0.00000000       0.00000000       0.00000000       0.00000000       0.00000000       0.04289135
Re       0.00000000       0.00000000       5.05939394       0.00000000       0.00000000      -0.04289135
2
Properties=species:S:1:pos:R:3:forces:R:3 energy=-9.469462863323367 pbc="F F F"
Re       0.00000000       0.00000000       0.00000000       0.00000000       0.00000000       0.05802689
Re       0.00000000       0.00000000       5.11818182       0.00000000       0.00000000      -0.05802689
2
Properties=species:S:1:pos:R:3:forces:R:3 energy=-9.465654915633513 pbc="F F F"
Re       0.00000000       0.00000000       0.00000000       0.00000000       0.00000000       0.07108137
Re       0.00000000       0.00000000       5.17696970       0.00000000       0.00000000      -0.07108137
2
Properties=species:S:1:pos:R:3:forces:R:3 energy=-9.461166722526357 pbc="F F F"
Re       0.00000000       0.00000000       0.00000000       0.00000000       0.00000000       0.08104007
Re       0.00000000       0.00000000       5.23575758       0.00000000       0.00000000      -0.08104007
2
Properties=species:S:1:pos:R:3:forces:R:3 energy=-9.456198390242198 pbc="F F F"
Re       0.00000000       0.00000000       0.00000000       0.00000000       0.00000000       0.08733205
Re       0.00000000       0.00000000       5.29454545       0.00000000       0.00000000      -0.08733205
2
Properties=species:S:1:pos:R:3:forces:R:3 energy=-9.450973543761377 pbc="F F F"
Re       0.00000000       0.00000000       0.00000000       0.00000000       0.00000000       0.08975814
Re       0.00000000       0.00000000       5.35333333       0.00000000       0.00000000      -0.08975814
2
Properties=species:S:1:pos:R:3:forces:R:3 energy=-9.445718247766845 pbc="F F F"
Re       0.00000000       0.00000000       0.00000000       0.00000000       0.00000000       0.08844751
Re       0.00000000       0.00000000       5.41212121       0.00000000       0.00000000      -0.08844751
2
Properties=species:S:1:pos:R:3:forces:R:3 energy=-9.440640033728746 pbc="F F F"
Re       0.00000000       0.00000000       0.00000000       0.00000000       0.00000000       0.08380030
Re       0.00000000       0.00000000       5.47090909       0.00000000       0.00000000      -0.08380030
2
Properties=species:S:1:pos:R:3:forces:R:3 energy=-9.435918383752108 pbc="F F F"
Re       0.00000000       0.00000000       0.00000000       0.00000000       0.00000000       0.07642921
Re       0.00000000       0.00000000       5.52969697       0.00000000       0.00000000      -0.07642921
2
Properties=species:S:1:pos:R:3:forces:R:3 energy=-9.43169234864983 pbc="F F F"
Re       0.00000000       0.00000000       0.00000000       0.00000000       0.00000000       0.06709387
Re       0.00000000       0.00000000       5.58848485       0.00000000       0.00000000      -0.06709387
2
Properties=species:S:1:pos:R:3:forces:R:3 energy=-9.428052883702112 pbc="F F F"
Re       0.00000000       0.00000000       0.00000000       0.00000000       0.00000000       0.05666463
Re       0.00000000       0.00000000       5.64727273       0.00000000       0.00000000      -0.05666463
2
Properties=species:S:1:pos:R:3:forces:R:3 energy=-9.42503526202752 pbc="F F F"
Re       0.00000000       0.00000000       0.00000000       0.00000000       0.00000000       0.04599663
Re       0.00000000       0.00000000       5.70606061       0.00000000       0.00000000      -0.04599663
2
Properties=species:S:1:pos:R:3:forces:R:3 energy=-9.422629625189098 pbc="F F F"
Re       0.00000000       0.00000000       0.00000000       0.00000000       0.00000000       0.03590702
Re       0.00000000       0.00000000       5.76484848       0.00000000       0.00000000      -0.03590702
2
Properties=species:S:1:pos:R:3:forces:R:3 energy=-9.420785740478552 pbc="F F F"
Re       0.00000000       0.00000000       0.00000000       0.00000000       0.00000000       0.02711425
Re       0.00000000       0.00000000       5.82363636       0.00000000       0.00000000      -0.02711425
2
Properties=species:S:1:pos:R:3:forces:R:3 energy=-9.419408257887266 pbc="F F F"
Re       0.00000000       0.00000000       0.00000000       0.00000000       0.00000000       0.02017781
Re       0.00000000       0.00000000       5.88242424       0.00000000       0.00000000      -0.02017781
2
Properties=species:S:1:pos:R:3:forces:R:3 energy=-9.418369183900134 pbc="F F F"
Re       0.00000000       0.00000000       0.00000000       0.00000000       0.00000000       0.01554094
Re       0.00000000       0.00000000       5.94121212       0.00000000       0.00000000      -0.01554094
2
Properties=species:S:1:pos:R:3:forces:R:3 energy=-9.417528838571862 pbc="F F F"
Re       0.00000000       0.00000000       0.00000000       0.00000000       0.00000000       0.01352419
Re       0.00000000       0.00000000       6.00000000       0.00000000       0.00000000      -0.01352419
