2
Properties=species:S:1:pos:R:3:forces:R:3 energy=80470.21677373588 pbc="F F F"
Ta       0.00000000       0.00000000       0.00000000       0.00000000       0.00000000 -2019951.62500000
Ta       0.00000000       0.00000000       0.10000000       0.00000000       0.00000000 2019951.62500000
2
Properties=species:S:1:pos:R:3:forces:R:3 energy=22426.599586235887 pbc="F F F"
Ta       0.00000000       0.00000000       0.00000000       0.00000000       0.00000000 -416664.25000000
Ta       0.00000000       0.00000000       0.15959596       0.00000000       0.00000000  416664.25000000
2
Properties=species:S:1:pos:R:3:forces:R:3 energy=8292.240211235889 pbc="F F F"
Ta       0.00000000       0.00000000       0.00000000       0.00000000       0.00000000 -125168.14062500
Ta       0.00000000       0.00000000       0.21919192       0.00000000       0.00000000  125168.14062500
2
Properties=species:S:1:pos:R:3:forces:R:3 energy=3637.582008110888 pbc="F F F"
Ta       0.00000000       0.00000000       0.00000000       0.00000000       0.00000000  -45973.28125000
Ta       0.00000000       0.00000000       0.27878788       0.00000000       0.00000000   45973.28125000
2
Properties=species:S:1:pos:R:3:forces:R:3 energy=1832.0486829187435 pbc="F F F"
Ta       0.00000000       0.00000000       0.00000000       0.00000000       0.00000000  -19008.40234375
Ta       0.00000000       0.00000000       0.33838384       0.00000000       0.00000000   19008.40234375
2
Properties=species:S:1:pos:R:3:forces:R:3 energy=1058.035865535931 pbc="F F F"
Ta       0.00000000       0.00000000       0.00000000       0.00000000       0.00000000   -8502.51171875
Ta       0.00000000       0.00000000       0.39797980       0.00000000       0.00000000    8502.51171875
2
Properties=species:S:1:pos:R:3:forces:R:3 energy=702.725929018829 pbc="F F F"
Ta       0.00000000       0.00000000       0.00000000       0.00000000       0.00000000   -4020.71289062
Ta       0.00000000       0.00000000       0.45757576       0.00000000       0.00000000    4020.71289062
2
Properties=species:S:1:pos:R:3:forces:R:3 energy=531.8924329345825 pbc="F F F"
Ta       0.00000000       0.00000000       0.00000000       0.00000000       0.00000000   -1964.53857422
Ta       0.00000000       0.00000000       0.51717172       0.00000000       0.00000000    1964.53857422
2
Properties=species:S:1:pos:R:3:forces:R:3 energy=448.25174691209753 pbc="F F F"
Ta       0.00000000       0.00000000       0.00000000       0.00000000       0.00000000    -955.33770752
Ta       0.00000000       0.00000000       0.57676768       0.00000000       0.00000000     955.33770752
2
Properties=species:S:1:pos:R:3:forces:R:3 energy=408.63993053752574 pbc="F F F"
Ta       0.00000000       0.00000000       0.00000000       0.00000000       0.00000000    -428.35116577
Ta       0.00000000       0.00000000       0.63636364       0.00000000       0.00000000     428.35116577
2
Properties=species:S:1:pos:R:3:forces:R:3 energy=392.4440992767115 pbc="F F F"
Ta       0.00000000       0.00000000       0.00000000       0.00000000       0.00000000    -144.90290833
Ta       0.00000000       0.00000000       0.69595960       0.00000000       0.00000000     144.90290833
2
Properties=species:S:1:pos:R:3:forces:R:3 energy=388.48422995847017 pbc="F F F"
Ta       0.00000000       0.00000000       0.00000000       0.00000000       0.00000000      -8.79320812
Ta       0.00000000       0.00000000       0.75555556       0.00000000       0.00000000       8.79320812
2
Properties=species:S:1:pos:R:3:forces:R:3 energy=389.0628738523329 pbc="F F F"
Ta       0.00000000       0.00000000       0.00000000       0.00000000       0.00000000       8.93823433
Ta       0.00000000       0.00000000       0.81515152       0.00000000       0.00000000      -8.93823433
2
Properties=species:S:1:pos:R:3:forces:R:3 energy=387.1967546037837 pbc="F F F"
Ta       0.00000000       0.00000000       0.00000000       0.00000000       0.00000000     -91.99211121
Ta       0.00000000       0.00000000       0.87474747       0.00000000       0.00000000      91.99211121
2
Properties=species:S:1:pos:R:3:forces:R:3 energy=375.60160099159486 pbc="F F F"
Ta       0.00000000       0.00000000       0.00000000       0.00000000       0.00000000    -316.78738403
Ta       0.00000000       0.00000000       0.93434343       0.00000000       0.00000000     316.78738403
2
Properties=species:S:1:pos:R:3:forces:R:3 energy=348.0374227972307 pbc="F F F"
Ta       0.00000000       0.00000000       0.00000000       0.00000000       0.00000000    -611.08447266
Ta       0.00000000       0.00000000       0.99393939       0.00000000       0.00000000     611.08447266
2
Properties=species:S:1:pos:R:3:forces:R:3 energy=303.20972541079186 pbc="F F F"
Ta       0.00000000       0.00000000       0.00000000       0.00000000       0.00000000    -882.48760986
Ta       0.00000000       0.00000000       1.05353535       0.00000000       0.00000000     882.48760986
2
Properties=species:S:1:pos:R:3:forces:R:3 energy=244.96831660004645 pbc="F F F"
Ta       0.00000000       0.00000000       0.00000000       0.00000000       0.00000000   -1046.96887207
Ta       0.00000000       0.00000000       1.11313131       0.00000000       0.00000000    1046.96887207
2
Properties=species:S:1:pos:R:3:forces:R:3 energy=181.98243162616498 pbc="F F F"
Ta       0.00000000       0.00000000       0.00000000       0.00000000       0.00000000   -1037.28063965
Ta       0.00000000       0.00000000       1.17272727       0.00000000       0.00000000    1037.28063965
2
Properties=species:S:1:pos:R:3:forces:R:3 energy=124.22120199688786 pbc="F F F"
Ta       0.00000000       0.00000000       0.00000000       0.00000000       0.00000000    -883.55456543
Ta       0.00000000       0.00000000       1.23232323       0.00000000       0.00000000     883.55456543
2
Properties=species:S:1:pos:R:3:forces:R:3 energy=77.87778877047458 pbc="F F F"
Ta       0.00000000       0.00000000       0.00000000       0.00000000       0.00000000    -668.95080566
Ta       0.00000000       0.00000000       1.29191919       0.00000000       0.00000000     668.95080566
2
Properties=species:S:1:pos:R:3:forces:R:3 energy=44.04489295586228 pbc="F F F"
Ta       0.00000000       0.00000000       0.00000000       0.00000000       0.00000000    -474.15057373
Ta       0.00000000       0.00000000       1.35151515       0.00000000       0.00000000     474.15057373
2
Properties=species:S:1:pos:R:3:forces:R:3 energy=20.58158443745831 pbc="F F F"
Ta       0.00000000       0.00000000       0.00000000       0.00000000       0.00000000    -318.21737671
Ta       0.00000000       0.00000000       1.41111111       0.00000000       0.00000000     318.21737671
2
Properties=species:S:1:pos:R:3:forces:R:3 energy=5.521729693609647 pbc="F F F"
Ta       0.00000000       0.00000000       0.00000000       0.00000000       0.00000000    -192.14460754
Ta       0.00000000       0.00000000       1.47070707       0.00000000       0.00000000     192.14460754
2
Properties=species:S:1:pos:R:3:forces:R:3 energy=-3.026885491568626 pbc="F F F"
Ta       0.00000000       0.00000000       0.00000000       0.00000000       0.00000000    -102.63345337
Ta       0.00000000       0.00000000       1.53030303       0.00000000       0.00000000     102.63345337
2
Properties=species:S:1:pos:R:3:forces:R:3 energy=-7.4980970063182095 pbc="F F F"
Ta       0.00000000       0.00000000       0.00000000       0.00000000       0.00000000     -51.28985977
Ta       0.00000000       0.00000000       1.58989899       0.00000000       0.00000000      51.28985977
2
Properties=species:S:1:pos:R:3:forces:R:3 energy=-9.525766278345554 pbc="F F F"
Ta       0.00000000       0.00000000       0.00000000       0.00000000       0.00000000     -20.13970375
Ta       0.00000000       0.00000000       1.64949495       0.00000000       0.00000000      20.13970375
2
Properties=species:S:1:pos:R:3:forces:R:3 energy=-10.279320588476006 pbc="F F F"
Ta       0.00000000       0.00000000       0.00000000       0.00000000       0.00000000      -7.63639784
Ta       0.00000000       0.00000000       1.70909091       0.00000000       0.00000000       7.63639784
2
Properties=species:S:1:pos:R:3:forces:R:3 energy=-10.614125073662061 pbc="F F F"
Ta       0.00000000       0.00000000       0.00000000       0.00000000       0.00000000      -4.30123949
Ta       0.00000000       0.00000000       1.76868687       0.00000000       0.00000000       4.30123949
2
Properties=species:S:1:pos:R:3:forces:R:3 energy=-10.829026793005871 pbc="F F F"
Ta       0.00000000       0.00000000       0.00000000       0.00000000       0.00000000      -3.02195334
Ta       0.00000000       0.00000000       1.82828283       0.00000000       0.00000000       3.02195334
2
Properties=species:S:1:pos:R:3:forces:R:3 energy=-10.981548374530295 pbc="F F F"
Ta       0.00000000       0.00000000       0.00000000       0.00000000       0.00000000      -2.14498830
Ta       0.00000000       0.00000000       1.88787879       0.00000000       0.00000000       2.14498830
2
Properties=species:S:1:pos:R:3:forces:R:3 energy=-11.091021604583382 pbc="F F F"
Ta       0.00000000       0.00000000       0.00000000       0.00000000       0.00000000      -1.58520150
Ta       0.00000000       0.00000000       1.94747475       0.00000000       0.00000000       1.58520150
2
Properties=species:S:1:pos:R:3:forces:R:3 energy=-11.176799294697659 pbc="F F F"
Ta       0.00000000       0.00000000       0.00000000       0.00000000       0.00000000      -1.33846045
Ta       0.00000000       0.00000000       2.00707071       0.00000000       0.00000000       1.33846045
2
Properties=species:S:1:pos:R:3:forces:R:3 energy=-11.254451147601884 pbc="F F F"
Ta       0.00000000       0.00000000       0.00000000       0.00000000       0.00000000      -1.28666341
Ta       0.00000000       0.00000000       2.06666667       0.00000000       0.00000000       1.28666341
2
Properties=species:S:1:pos:R:3:forces:R:3 energy=-11.330887680629887 pbc="F F F"
Ta       0.00000000       0.00000000       0.00000000       0.00000000       0.00000000      -1.27263248
Ta       0.00000000       0.00000000       2.12626263       0.00000000       0.00000000       1.27263248
2
Properties=species:S:1:pos:R:3:forces:R:3 energy=-11.40428604186451 pbc="F F F"
Ta       0.00000000       0.00000000       0.00000000       0.00000000       0.00000000      -1.16724753
Ta       0.00000000       0.00000000       2.18585859       0.00000000       0.00000000       1.16724753
2
Properties=species:S:1:pos:R:3:forces:R:3 energy=-11.466660403174798 pbc="F F F"
Ta       0.00000000       0.00000000       0.00000000       0.00000000       0.00000000      -0.89498514
Ta       0.00000000       0.00000000       2.24545455       0.00000000       0.00000000       0.89498514
2
Properties=species:S:1:pos:R:3:forces:R:3 energy=-11.507292678360377 pbc="F F F"
Ta       0.00000000       0.00000000       0.00000000       0.00000000       0.00000000      -0.44000393
Ta       0.00000000       0.00000000       2.30505051       0.00000000       0.00000000       0.44000393
2
Properties=species:S:1:pos:R:3:forces:R:3 energy=-11.51623218778278 pbc="F F F"
Ta       0.00000000       0.00000000       0.00000000       0.00000000       0.00000000       0.15820415
Ta       0.00000000       0.00000000       2.36464646       0.00000000       0.00000000      -0.15820415
2
Properties=species:S:1:pos:R:3:forces:R:3 energy=-11.487089797239774 pbc="F F F"
Ta       0.00000000       0.00000000       0.00000000       0.00000000       0.00000000       0.82402110
Ta       0.00000000       0.00000000       2.42424242       0.00000000       0.00000000      -0.82402110
2
Properties=species:S:1:pos:R:3:forces:R:3 energy=-11.418277855975768 pbc="F F F"
Ta       0.00000000       0.00000000       0.00000000       0.00000000       0.00000000       1.47757483
Ta       0.00000000       0.00000000       2.48383838       0.00000000       0.00000000      -1.47757483
2
Properties=species:S:1:pos:R:3:forces:R:3 energy=-11.312339579584007 pbc="F F F"
Ta       0.00000000       0.00000000       0.00000000       0.00000000       0.00000000       2.06372309
Ta       0.00000000       0.00000000       2.54343434       0.00000000       0.00000000      -2.06372309
2
Properties=species:S:1:pos:R:3:forces:R:3 energy=-11.174035180557116 pbc="F F F"
Ta       0.00000000       0.00000000       0.00000000       0.00000000       0.00000000       2.56348443
Ta       0.00000000       0.00000000       2.60303030       0.00000000       0.00000000      -2.56348443
2
Properties=species:S:1:pos:R:3:forces:R:3 energy=-11.008320280997394 pbc="F F F"
Ta       0.00000000       0.00000000       0.00000000       0.00000000       0.00000000       2.98674035
Ta       0.00000000       0.00000000       2.66262626       0.00000000       0.00000000      -2.98674035
2
Properties=species:S:1:pos:R:3:forces:R:3 energy=-10.819138389230446 pbc="F F F"
Ta       0.00000000       0.00000000       0.00000000       0.00000000       0.00000000       3.35449314
Ta       0.00000000       0.00000000       2.72222222       0.00000000       0.00000000      -3.35449314
2
Properties=species:S:1:pos:R:3:forces:R:3 energy=-10.609307988465764 pbc="F F F"
Ta       0.00000000       0.00000000       0.00000000       0.00000000       0.00000000       3.68044353
Ta       0.00000000       0.00000000       2.78181818       0.00000000       0.00000000      -3.68044353
2
Properties=species:S:1:pos:R:3:forces:R:3 energy=-10.381378143737921 pbc="F F F"
Ta       0.00000000       0.00000000       0.00000000       0.00000000       0.00000000       3.95931649
Ta       0.00000000       0.00000000       2.84141414       0.00000000       0.00000000      -3.95931649
2
Properties=species:S:1:pos:R:3:forces:R:3 energy=-10.138815310555037 pbc="F F F"
Ta       0.00000000       0.00000000       0.00000000       0.00000000       0.00000000       4.16617155
Ta       0.00000000       0.00000000       2.90101010       0.00000000       0.00000000      -4.16617155
2
Properties=species:S:1:pos:R:3:forces:R:3 energy=-9.88692332733161 pbc="F F F"
Ta       0.00000000       0.00000000       0.00000000       0.00000000       0.00000000       4.26672220
Ta       0.00000000       0.00000000       2.96060606       0.00000000       0.00000000      -4.26672220
2
Properties=species:S:1:pos:R:3:forces:R:3 energy=-9.632907981983916 pbc="F F F"
Ta       0.00000000       0.00000000       0.00000000       0.00000000       0.00000000       4.23463058
Ta       0.00000000       0.00000000       3.02020202       0.00000000       0.00000000      -4.23463058
2
Properties=species:S:1:pos:R:3:forces:R:3 energy=-9.38488552058919 pbc="F F F"
Ta       0.00000000       0.00000000       0.00000000       0.00000000       0.00000000       4.06783438
Ta       0.00000000       0.00000000       3.07979798       0.00000000       0.00000000      -4.06783438
2
Properties=species:S:1:pos:R:3:forces:R:3 energy=-9.150215468135332 pbc="F F F"
Ta       0.00000000       0.00000000       0.00000000       0.00000000       0.00000000       3.79281187
Ta       0.00000000       0.00000000       3.13939394       0.00000000       0.00000000      -3.79281187
2
Properties=species:S:1:pos:R:3:forces:R:3 energy=-8.934105947758672 pbc="F F F"
Ta       0.00000000       0.00000000       0.00000000       0.00000000       0.00000000       3.45255136
Ta       0.00000000       0.00000000       3.19898990       0.00000000       0.00000000      -3.45255136
2
Properties=species:S:1:pos:R:3:forces:R:3 energy=-8.739126833193005 pbc="F F F"
Ta       0.00000000       0.00000000       0.00000000       0.00000000       0.00000000       3.09051728
Ta       0.00000000       0.00000000       3.25858586       0.00000000       0.00000000      -3.09051728
2
Properties=species:S:1:pos:R:3:forces:R:3 energy=-8.56545674153827 pbc="F F F"
Ta       0.00000000       0.00000000       0.00000000       0.00000000       0.00000000       2.74248672
Ta       0.00000000       0.00000000       3.31818182       0.00000000       0.00000000      -2.74248672
2
Properties=species:S:1:pos:R:3:forces:R:3 energy=-8.41147043568199 pbc="F F F"
Ta       0.00000000       0.00000000       0.00000000       0.00000000       0.00000000       2.43299603
Ta       0.00000000       0.00000000       3.37777778       0.00000000       0.00000000      -2.43299603
2
Properties=species:S:1:pos:R:3:forces:R:3 energy=-8.27446155785642 pbc="F F F"
Ta       0.00000000       0.00000000       0.00000000       0.00000000       0.00000000       2.17355394
Ta       0.00000000       0.00000000       3.43737374       0.00000000       0.00000000      -2.17355394
2
Properties=species:S:1:pos:R:3:forces:R:3 energy=-8.151402572709978 pbc="F F F"
Ta       0.00000000       0.00000000       0.00000000       0.00000000       0.00000000       1.96404982
Ta       0.00000000       0.00000000       3.49696970       0.00000000       0.00000000      -1.96404982
2
Properties=species:S:1:pos:R:3:forces:R:3 energy=-8.039534681497699 pbc="F F F"
Ta       0.00000000       0.00000000       0.00000000       0.00000000       0.00000000       1.79604352
Ta       0.00000000       0.00000000       3.55656566       0.00000000       0.00000000      -1.79604352
2
Properties=species:S:1:pos:R:3:forces:R:3 energy=-7.936760652133734 pbc="F F F"
Ta       0.00000000       0.00000000       0.00000000       0.00000000       0.00000000       1.65657508
Ta       0.00000000       0.00000000       3.61616162       0.00000000       0.00000000      -1.65657508
2
Properties=species:S:1:pos:R:3:forces:R:3 energy=-7.841792725876254 pbc="F F F"
Ta       0.00000000       0.00000000       0.00000000       0.00000000       0.00000000       1.53192520
Ta       0.00000000       0.00000000       3.67575758       0.00000000       0.00000000      -1.53192520
2
Properties=species:S:1:pos:R:3:forces:R:3 energy=-7.754100552099383 pbc="F F F"
Ta       0.00000000       0.00000000       0.00000000       0.00000000       0.00000000       1.41086233
Ta       0.00000000       0.00000000       3.73535354       0.00000000       0.00000000      -1.41086233
2
Properties=species:S:1:pos:R:3:forces:R:3 energy=-7.673694288759128 pbc="F F F"
Ta       0.00000000       0.00000000       0.00000000       0.00000000       0.00000000       1.28669071
Ta       0.00000000       0.00000000       3.79494949       0.00000000       0.00000000      -1.28669071
2
Properties=species:S:1:pos:R:3:forces:R:3 energy=-7.6008322091887015 pbc="F F F"
Ta       0.00000000       0.00000000       0.00000000       0.00000000       0.00000000       1.15786481
Ta       0.00000000       0.00000000       3.85454545       0.00000000       0.00000000      -1.15786481
2
Properties=species:S:1:pos:R:3:forces:R:3 energy=-7.535720624142361 pbc="F F F"
Ta       0.00000000       0.00000000       0.00000000       0.00000000       0.00000000       1.02743375
Ta       0.00000000       0.00000000       3.91414141       0.00000000       0.00000000      -1.02743375
2
Properties=species:S:1:pos:R:3:forces:R:3 energy=-7.478279767422022 pbc="F F F"
Ta       0.00000000       0.00000000       0.00000000       0.00000000       0.00000000       0.90160042
Ta       0.00000000       0.00000000       3.97373737       0.00000000       0.00000000      -0.90160042
2
Properties=species:S:1:pos:R:3:forces:R:3 energy=-7.428018596780905 pbc="F F F"
Ta       0.00000000       0.00000000       0.00000000       0.00000000       0.00000000       0.78771949
Ta       0.00000000       0.00000000       4.03333333       0.00000000       0.00000000      -0.78771949
2
Properties=species:S:1:pos:R:3:forces:R:3 energy=-7.384026103148745 pbc="F F F"
Ta       0.00000000       0.00000000       0.00000000       0.00000000       0.00000000       0.69206655
Ta       0.00000000       0.00000000       4.09292929       0.00000000       0.00000000      -0.69206655
2
Properties=species:S:1:pos:R:3:forces:R:3 energy=-7.345096902538074 pbc="F F F"
Ta       0.00000000       0.00000000       0.00000000       0.00000000       0.00000000       0.61806136
Ta       0.00000000       0.00000000       4.15252525       0.00000000       0.00000000      -0.61806136
2
Properties=species:S:1:pos:R:3:forces:R:3 energy=-7.30993336431415 pbc="F F F"
Ta       0.00000000       0.00000000       0.00000000       0.00000000       0.00000000       0.56532121
Ta       0.00000000       0.00000000       4.21212121       0.00000000       0.00000000      -0.56532121
2
Properties=species:S:1:pos:R:3:forces:R:3 energy=-7.277370722683138 pbc="F F F"
Ta       0.00000000       0.00000000       0.00000000       0.00000000       0.00000000       0.52982157
Ta       0.00000000       0.00000000       4.27171717       0.00000000       0.00000000      -0.52982157
2
Properties=species:S:1:pos:R:3:forces:R:3 energy=-7.246571212771939 pbc="F F F"
Ta       0.00000000       0.00000000       0.00000000       0.00000000       0.00000000       0.50494862
Ta       0.00000000       0.00000000       4.33131313       0.00000000       0.00000000      -0.50494862
2
Properties=species:S:1:pos:R:3:forces:R:3 energy=-7.217126622295432 pbc="F F F"
Ta       0.00000000       0.00000000       0.00000000       0.00000000       0.00000000       0.48304290
Ta       0.00000000       0.00000000       4.39090909       0.00000000       0.00000000      -0.48304290
2
Properties=species:S:1:pos:R:3:forces:R:3 energy=-7.189078820896845 pbc="F F F"
Ta       0.00000000       0.00000000       0.00000000       0.00000000       0.00000000       0.45701000
Ta       0.00000000       0.00000000       4.45050505       0.00000000       0.00000000      -0.45701000
2
Properties=species:S:1:pos:R:3:forces:R:3 energy=-7.1628424935212 pbc="F F F"
Ta       0.00000000       0.00000000       0.00000000       0.00000000       0.00000000       0.42163444
Ta       0.00000000       0.00000000       4.51010101       0.00000000       0.00000000      -0.42163444
2
Properties=species:S:1:pos:R:3:forces:R:3 energy=-7.139062139953003 pbc="F F F"
Ta       0.00000000       0.00000000       0.00000000       0.00000000       0.00000000       0.37433901
Ta       0.00000000       0.00000000       4.56969697       0.00000000       0.00000000      -0.37433901
2
Properties=species:S:1:pos:R:3:forces:R:3 energy=-7.118457115411118 pbc="F F F"
Ta       0.00000000       0.00000000       0.00000000       0.00000000       0.00000000       0.31536359
Ta       0.00000000       0.00000000       4.62929293       0.00000000       0.00000000      -0.31536359
2
Properties=species:S:1:pos:R:3:forces:R:3 energy=-7.1016537300161025 pbc="F F F"
Ta       0.00000000       0.00000000       0.00000000       0.00000000       0.00000000       0.24740347
Ta       0.00000000       0.00000000       4.68888889       0.00000000       0.00000000      -0.24740347
2
Properties=species:S:1:pos:R:3:forces:R:3 energy=-7.089060412489422 pbc="F F F"
Ta       0.00000000       0.00000000       0.00000000       0.00000000       0.00000000       0.17487434
Ta       0.00000000       0.00000000       4.74848485       0.00000000       0.00000000      -0.17487434
2
Properties=species:S:1:pos:R:3:forces:R:3 energy=-7.080795965999995 pbc="F F F"
Ta       0.00000000       0.00000000       0.00000000       0.00000000       0.00000000       0.10303535
Ta       0.00000000       0.00000000       4.80808081       0.00000000       0.00000000      -0.10303535
2
Properties=species:S:1:pos:R:3:forces:R:3 energy=-7.076662527830342 pbc="F F F"
Ta       0.00000000       0.00000000       0.00000000       0.00000000       0.00000000       0.03706568
Ta       0.00000000       0.00000000       4.86767677       0.00000000       0.00000000      -0.03706568
2
Properties=species:S:1:pos:R:3:forces:R:3 energy=-7.076174084571423 pbc="F F F"
Ta       0.00000000       0.00000000       0.00000000       0.00000000       0.00000000      -0.01867436
Ta       0.00000000       0.00000000       4.92727273       0.00000000       0.00000000       0.01867436
2
Properties=species:S:1:pos:R:3:forces:R:3 energy=-7.078624542626834 pbc="F F F"
Ta       0.00000000       0.00000000       0.00000000       0.00000000       0.00000000      -0.06119637
Ta       0.00000000       0.00000000       4.98686869       0.00000000       0.00000000       0.06119637
2
Properties=species:S:1:pos:R:3:forces:R:3 energy=-7.083176937943082 pbc="F F F"
Ta       0.00000000       0.00000000       0.00000000       0.00000000       0.00000000      -0.08915238
Ta       0.00000000       0.00000000       5.04646465       0.00000000       0.00000000       0.08915238
2
Properties=species:S:1:pos:R:3:forces:R:3 energy=-7.088966239598605 pbc="F F F"
Ta       0.00000000       0.00000000       0.00000000       0.00000000       0.00000000      -0.10285138
Ta       0.00000000       0.00000000       5.10606061       0.00000000       0.00000000       0.10285138
2
Properties=species:S:1:pos:R:3:forces:R:3 energy=-7.09518760902755 pbc="F F F"
Ta       0.00000000       0.00000000       0.00000000       0.00000000       0.00000000      -0.10400333
Ta       0.00000000       0.00000000       5.16565657       0.00000000       0.00000000       0.10400333
2
Properties=species:S:1:pos:R:3:forces:R:3 energy=-7.1011678147197275 pbc="F F F"
Ta       0.00000000       0.00000000       0.00000000       0.00000000       0.00000000      -0.09533836
Ta       0.00000000       0.00000000       5.22525253       0.00000000       0.00000000       0.09533836
2
Properties=species:S:1:pos:R:3:forces:R:3 energy=-7.106419948116564 pbc="F F F"
Ta       0.00000000       0.00000000       0.00000000       0.00000000       0.00000000      -0.08009853
Ta       0.00000000       0.00000000       5.28484848       0.00000000       0.00000000       0.08009853
2
Properties=species:S:1:pos:R:3:forces:R:3 energy=-7.110649167831754 pbc="F F F"
Ta       0.00000000       0.00000000       0.00000000       0.00000000       0.00000000      -0.06152867
Ta       0.00000000       0.00000000       5.34444444       0.00000000       0.00000000       0.06152867
2
Properties=species:S:1:pos:R:3:forces:R:3 energy=-7.113744463538868 pbc="F F F"
Ta       0.00000000       0.00000000       0.00000000       0.00000000       0.00000000      -0.04246207
Ta       0.00000000       0.00000000       5.40404040       0.00000000       0.00000000       0.04246207
2
Properties=species:S:1:pos:R:3:forces:R:3 energy=-7.115744295185554 pbc="F F F"
Ta       0.00000000       0.00000000       0.00000000       0.00000000       0.00000000      -0.02502504
Ta       0.00000000       0.00000000       5.46363636       0.00000000       0.00000000       0.02502504
2
Properties=species:S:1:pos:R:3:forces:R:3 energy=-7.116786013408729 pbc="F F F"
Ta       0.00000000       0.00000000       0.00000000       0.00000000       0.00000000      -0.01052780
Ta       0.00000000       0.00000000       5.52323232       0.00000000       0.00000000       0.01052780
2
Properties=species:S:1:pos:R:3:forces:R:3 energy=-7.117066730377209 pbc="F F F"
Ta       0.00000000       0.00000000       0.00000000       0.00000000       0.00000000       0.00051913
Ta       0.00000000       0.00000000       5.58282828       0.00000000       0.00000000      -0.00051913
2
Properties=species:S:1:pos:R:3:forces:R:3 energy=-7.116790782173104 pbc="F F F"
Ta       0.00000000       0.00000000       0.00000000       0.00000000       0.00000000       0.00822164
Ta       0.00000000       0.00000000       5.64242424       0.00000000       0.00000000      -0.00822164
2
Properties=species:S:1:pos:R:3:forces:R:3 energy=-7.116143089267406 pbc="F F F"
Ta       0.00000000       0.00000000       0.00000000       0.00000000       0.00000000       0.01310805
Ta       0.00000000       0.00000000       5.70202020       0.00000000       0.00000000      -0.01310805
2
Properties=species:S:1:pos:R:3:forces:R:3 energy=-7.115270512353484 pbc="F F F"
Ta       0.00000000       0.00000000       0.00000000       0.00000000       0.00000000       0.01588247
Ta       0.00000000       0.00000000       5.76161616       0.00000000       0.00000000      -0.01588247
2
Properties=species:S:1:pos:R:3:forces:R:3 energy=-7.1142780233946175 pbc="F F F"
Ta       0.00000000       0.00000000       0.00000000       0.00000000       0.00000000       0.01724486
Ta       0.00000000       0.00000000       5.82121212       0.00000000       0.00000000      -0.01724486
2
Properties=species:S:1:pos:R:3:forces:R:3 energy=-7.11323209100144 pbc="F F F"
Ta       0.00000000       0.00000000       0.00000000       0.00000000       0.00000000       0.01773931
Ta       0.00000000       0.00000000       5.88080808       0.00000000       0.00000000      -0.01773931
2
Properties=species:S:1:pos:R:3:forces:R:3 energy=-7.112174008113702 pbc="F F F"
Ta       0.00000000       0.00000000       0.00000000       0.00000000       0.00000000       0.01769978
Ta       0.00000000       0.00000000       5.94040404       0.00000000       0.00000000      -0.01769978
2
Properties=species:S:1:pos:R:3:forces:R:3 energy=-7.111130439438546 pbc="F F F"
Ta       0.00000000       0.00000000       0.00000000       0.00000000       0.00000000       0.01725321
Ta       0.00000000       0.00000000       6.00000000       0.00000000       0.00000000      -0.01725321
