2
Properties=species:S:1:pos:R:3:forces:R:3 energy=20222.471302288737 pbc="F F F"
Th       0.00000000       0.00000000       0.00000000       0.00000000       0.00000000 -363890.40625000
Th       0.00000000       0.00000000       0.18000000       0.00000000       0.00000000  363890.40625000
2
Properties=species:S:1:pos:R:3:forces:R:3 energy=7625.126575726236 pbc="F F F"
Th       0.00000000       0.00000000       0.00000000       0.00000000       0.00000000 -117556.98437500
Th       0.00000000       0.00000000       0.23878788       0.00000000       0.00000000  117556.98437500
2
Properties=species:S:1:pos:R:3:forces:R:3 energy=3243.3997690856113 pbc="F F F"
Th       0.00000000       0.00000000       0.00000000       0.00000000       0.00000000  -44623.66015625
Th       0.00000000       0.00000000       0.29757576       0.00000000       0.00000000   44623.66015625
2
Properties=species:S:1:pos:R:3:forces:R:3 energy=1501.3869517027986 pbc="F F F"
Th       0.00000000       0.00000000       0.00000000       0.00000000       0.00000000  -18749.71289062
Th       0.00000000       0.00000000       0.35636364       0.00000000       0.00000000   18749.71289062
2
Properties=species:S:1:pos:R:3:forces:R:3 energy=744.1923106021886 pbc="F F F"
Th       0.00000000       0.00000000       0.00000000       0.00000000       0.00000000   -8494.13769531
Th       0.00000000       0.00000000       0.41515152       0.00000000       0.00000000    8494.13769531
2
Properties=species:S:1:pos:R:3:forces:R:3 energy=391.3748667545324 pbc="F F F"
Th       0.00000000       0.00000000       0.00000000       0.00000000       0.00000000   -4096.55615234
Th       0.00000000       0.00000000       0.47393939       0.00000000       0.00000000    4096.55615234
2
Properties=species:S:1:pos:R:3:forces:R:3 energy=216.97476605919584 pbc="F F F"
Th       0.00000000       0.00000000       0.00000000       0.00000000       0.00000000   -2086.00830078
Th       0.00000000       0.00000000       0.53272727       0.00000000       0.00000000    2086.00830078
2
Properties=species:S:1:pos:R:3:forces:R:3 energy=126.23900253473374 pbc="F F F"
Th       0.00000000       0.00000000       0.00000000       0.00000000       0.00000000   -1113.04785156
Th       0.00000000       0.00000000       0.59151515       0.00000000       0.00000000    1113.04785156
2
Properties=species:S:1:pos:R:3:forces:R:3 energy=76.94488942623921 pbc="F F F"
Th       0.00000000       0.00000000       0.00000000       0.00000000       0.00000000    -617.16009521
Th       0.00000000       0.00000000       0.65030303       0.00000000       0.00000000     617.16009521
2
Properties=species:S:1:pos:R:3:forces:R:3 energy=49.2284206785605 pbc="F F F"
Th       0.00000000       0.00000000       0.00000000       0.00000000       0.00000000    -352.27801514
Th       0.00000000       0.00000000       0.70909091       0.00000000       0.00000000     352.27801514
2
Properties=species:S:1:pos:R:3:forces:R:3 energy=33.259647891747214 pbc="F F F"
Th       0.00000000       0.00000000       0.00000000       0.00000000       0.00000000    -204.83322144
Th       0.00000000       0.00000000       0.76787879       0.00000000       0.00000000     204.83322144
2
Properties=species:S:1:pos:R:3:forces:R:3 energy=23.93583365171283 pbc="F F F"
Th       0.00000000       0.00000000       0.00000000       0.00000000       0.00000000    -119.94013977
Th       0.00000000       0.00000000       0.82666667       0.00000000       0.00000000     119.94013977
2
Properties=species:S:1:pos:R:3:forces:R:3 energy=18.48114676126575 pbc="F F F"
Th       0.00000000       0.00000000       0.00000000       0.00000000       0.00000000     -69.98325348
Th       0.00000000       0.00000000       0.88545455       0.00000000       0.00000000      69.98325348
2
Properties=species:S:1:pos:R:3:forces:R:3 energy=15.307860627388397 pbc="F F F"
Th       0.00000000       0.00000000       0.00000000       0.00000000       0.00000000     -40.63451767
Th       0.00000000       0.00000000       0.94424242       0.00000000       0.00000000      40.63451767
2
Properties=species:S:1:pos:R:3:forces:R:3 energy=13.450069144906156 pbc="F F F"
Th       0.00000000       0.00000000       0.00000000       0.00000000       0.00000000     -24.32913208
Th       0.00000000       0.00000000       1.00303030       0.00000000       0.00000000      24.32913208
2
Properties=species:S:1:pos:R:3:forces:R:3 energy=12.272026336964338 pbc="F F F"
Th       0.00000000       0.00000000       0.00000000       0.00000000       0.00000000     -17.02632904
Th       0.00000000       0.00000000       1.06181818       0.00000000       0.00000000      17.02632904
2
Properties=species:S:1:pos:R:3:forces:R:3 energy=11.31716258261724 pbc="F F F"
Th       0.00000000       0.00000000       0.00000000       0.00000000       0.00000000     -16.43176270
Th       0.00000000       0.00000000       1.12060606       0.00000000       0.00000000      16.43176270
2
Properties=species:S:1:pos:R:3:forces:R:3 energy=10.241314037896695 pbc="F F F"
Th       0.00000000       0.00000000       0.00000000       0.00000000       0.00000000     -20.86906624
Th       0.00000000       0.00000000       1.17939394       0.00000000       0.00000000      20.86906624
2
Properties=species:S:1:pos:R:3:forces:R:3 energy=8.799296796114422 pbc="F F F"
Th       0.00000000       0.00000000       0.00000000       0.00000000       0.00000000     -28.56893730
Th       0.00000000       0.00000000       1.23818182       0.00000000       0.00000000      28.56893730
2
Properties=species:S:1:pos:R:3:forces:R:3 energy=6.858941686624567 pbc="F F F"
Th       0.00000000       0.00000000       0.00000000       0.00000000       0.00000000     -37.44936371
Th       0.00000000       0.00000000       1.29696970       0.00000000       0.00000000      37.44936371
2
Properties=species:S:1:pos:R:3:forces:R:3 energy=4.422446038408572 pbc="F F F"
Th       0.00000000       0.00000000       0.00000000       0.00000000       0.00000000     -44.94990540
Th       0.00000000       0.00000000       1.35575758       0.00000000       0.00000000      44.94990540
2
Properties=species:S:1:pos:R:3:forces:R:3 energy=1.670570123366704 pbc="F F F"
Th       0.00000000       0.00000000       0.00000000       0.00000000       0.00000000     -47.51482773
Th       0.00000000       0.00000000       1.41454545       0.00000000       0.00000000      47.51482773
2
Properties=species:S:1:pos:R:3:forces:R:3 energy=-1.0070972345653049 pbc="F F F"
Th       0.00000000       0.00000000       0.00000000       0.00000000       0.00000000     -42.28243637
Th       0.00000000       0.00000000       1.47333333       0.00000000       0.00000000      42.28243637
2
Properties=species:S:1:pos:R:3:forces:R:3 energy=-3.1914568504531156 pbc="F F F"
Th       0.00000000       0.00000000       0.00000000       0.00000000       0.00000000     -31.57123756
Th       0.00000000       0.00000000       1.53212121       0.00000000       0.00000000      31.57123756
2
Properties=species:S:1:pos:R:3:forces:R:3 energy=-4.710658571930003 pbc="F F F"
Th       0.00000000       0.00000000       0.00000000       0.00000000       0.00000000     -20.28431511
Th       0.00000000       0.00000000       1.59090909       0.00000000       0.00000000      20.28431511
2
Properties=species:S:1:pos:R:3:forces:R:3 energy=-5.6017188048373 pbc="F F F"
Th       0.00000000       0.00000000       0.00000000       0.00000000       0.00000000     -10.20750427
Th       0.00000000       0.00000000       1.64969697       0.00000000       0.00000000      10.20750427
2
Properties=species:S:1:pos:R:3:forces:R:3 energy=-5.9241204357483035 pbc="F F F"
Th       0.00000000       0.00000000       0.00000000       0.00000000       0.00000000      -0.85875672
Th       0.00000000       0.00000000       1.70848485       0.00000000       0.00000000       0.85875672
2
Properties=species:S:1:pos:R:3:forces:R:3 energy=-5.728185330410336 pbc="F F F"
Th       0.00000000       0.00000000       0.00000000       0.00000000       0.00000000       7.11227989
Th       0.00000000       0.00000000       1.76727273       0.00000000       0.00000000      -7.11227989
2
Properties=species:S:1:pos:R:3:forces:R:3 energy=-5.159614643783855 pbc="F F F"
Th       0.00000000       0.00000000       0.00000000       0.00000000       0.00000000      11.49679565
Th       0.00000000       0.00000000       1.82606061       0.00000000       0.00000000     -11.49679565
2
Properties=species:S:1:pos:R:3:forces:R:3 energy=-4.460346261951926 pbc="F F F"
Th       0.00000000       0.00000000       0.00000000       0.00000000       0.00000000      11.67737103
Th       0.00000000       0.00000000       1.88484848       0.00000000       0.00000000     -11.67737103
2
Properties=species:S:1:pos:R:3:forces:R:3 energy=-3.8406655697509375 pbc="F F F"
Th       0.00000000       0.00000000       0.00000000       0.00000000       0.00000000       9.10596657
Th       0.00000000       0.00000000       1.94363636       0.00000000       0.00000000      -9.10596657
2
Properties=species:S:1:pos:R:3:forces:R:3 energy=-3.4078481752143968 pbc="F F F"
Th       0.00000000       0.00000000       0.00000000       0.00000000       0.00000000       5.59002304
Th       0.00000000       0.00000000       2.00242424       0.00000000       0.00000000      -5.59002304
2
Properties=species:S:1:pos:R:3:forces:R:3 energy=-3.1757825847957837 pbc="F F F"
Th       0.00000000       0.00000000       0.00000000       0.00000000       0.00000000       2.43983412
Th       0.00000000       0.00000000       2.06121212       0.00000000       0.00000000      -2.43983412
2
Properties=species:S:1:pos:R:3:forces:R:3 energy=-3.1014524614777788 pbc="F F F"
Th       0.00000000       0.00000000       0.00000000       0.00000000       0.00000000       0.26197526
Th       0.00000000       0.00000000       2.12000000       0.00000000       0.00000000      -0.26197526
2
Properties=species:S:1:pos:R:3:forces:R:3 energy=-3.1269168660007303 pbc="F F F"
Th       0.00000000       0.00000000       0.00000000       0.00000000       0.00000000      -1.00289345
Th       0.00000000       0.00000000       2.17878788       0.00000000       0.00000000       1.00289345
2
Properties=species:S:1:pos:R:3:forces:R:3 energy=-3.2081506236401203 pbc="F F F"
Th       0.00000000       0.00000000       0.00000000       0.00000000       0.00000000      -1.69154882
Th       0.00000000       0.00000000       2.23757576       0.00000000       0.00000000       1.69154882
2
Properties=species:S:1:pos:R:3:forces:R:3 energy=-3.319849599983199 pbc="F F F"
Th       0.00000000       0.00000000       0.00000000       0.00000000       0.00000000      -2.07131147
Th       0.00000000       0.00000000       2.29636364       0.00000000       0.00000000       2.07131147
2
Properties=species:S:1:pos:R:3:forces:R:3 energy=-3.4482202205125088 pbc="F F F"
Th       0.00000000       0.00000000       0.00000000       0.00000000       0.00000000      -2.27167940
Th       0.00000000       0.00000000       2.35515152       0.00000000       0.00000000       2.27167940
2
Properties=species:S:1:pos:R:3:forces:R:3 energy=-3.5844446430999968 pbc="F F F"
Th       0.00000000       0.00000000       0.00000000       0.00000000       0.00000000      -2.34380341
Th       0.00000000       0.00000000       2.41393939       0.00000000       0.00000000       2.34380341
2
Properties=species:S:1:pos:R:3:forces:R:3 energy=-3.7217765812949812 pbc="F F F"
Th       0.00000000       0.00000000       0.00000000       0.00000000       0.00000000      -2.31282568
Th       0.00000000       0.00000000       2.47272727       0.00000000       0.00000000       2.31282568
2
Properties=species:S:1:pos:R:3:forces:R:3 energy=-3.854737143799419 pbc="F F F"
Th       0.00000000       0.00000000       0.00000000       0.00000000       0.00000000      -2.19814157
Th       0.00000000       0.00000000       2.53151515       0.00000000       0.00000000       2.19814157
2
Properties=species:S:1:pos:R:3:forces:R:3 energy=-3.9789221415708362 pbc="F F F"
Th       0.00000000       0.00000000       0.00000000       0.00000000       0.00000000      -2.01687479
Th       0.00000000       0.00000000       2.59030303       0.00000000       0.00000000       2.01687479
2
Properties=species:S:1:pos:R:3:forces:R:3 energy=-4.090859513512026 pbc="F F F"
Th       0.00000000       0.00000000       0.00000000       0.00000000       0.00000000      -1.78383803
Th       0.00000000       0.00000000       2.64909091       0.00000000       0.00000000       1.78383803
2
Properties=species:S:1:pos:R:3:forces:R:3 energy=-4.187913043378956 pbc="F F F"
Th       0.00000000       0.00000000       0.00000000       0.00000000       0.00000000      -1.51279855
Th       0.00000000       0.00000000       2.70787879       0.00000000       0.00000000       1.51279855
2
Properties=species:S:1:pos:R:3:forces:R:3 energy=-4.268273726026772 pbc="F F F"
Th       0.00000000       0.00000000       0.00000000       0.00000000       0.00000000      -1.21859324
Th       0.00000000       0.00000000       2.76666667       0.00000000       0.00000000       1.21859324
2
Properties=species:S:1:pos:R:3:forces:R:3 energy=-4.331065901691352 pbc="F F F"
Th       0.00000000       0.00000000       0.00000000       0.00000000       0.00000000      -0.91813183
Th       0.00000000       0.00000000       2.82545455       0.00000000       0.00000000       0.91813183
2
Properties=species:S:1:pos:R:3:forces:R:3 energy=-4.376436173448037 pbc="F F F"
Th       0.00000000       0.00000000       0.00000000       0.00000000       0.00000000      -0.62846965
Th       0.00000000       0.00000000       2.88424242       0.00000000       0.00000000       0.62846965
2
Properties=species:S:1:pos:R:3:forces:R:3 energy=-4.405431737708548 pbc="F F F"
Th       0.00000000       0.00000000       0.00000000       0.00000000       0.00000000      -0.36266863
Th       0.00000000       0.00000000       2.94303030       0.00000000       0.00000000       0.36266863
2
Properties=species:S:1:pos:R:3:forces:R:3 energy=-4.419653824977281 pbc="F F F"
Th       0.00000000       0.00000000       0.00000000       0.00000000       0.00000000      -0.12596062
Th       0.00000000       0.00000000       3.00181818       0.00000000       0.00000000       0.12596062
2
Properties=species:S:1:pos:R:3:forces:R:3 energy=-4.4207545606216785 pbc="F F F"
Th       0.00000000       0.00000000       0.00000000       0.00000000       0.00000000       0.08477460
Th       0.00000000       0.00000000       3.06060606       0.00000000       0.00000000      -0.08477460
2
Properties=species:S:1:pos:R:3:forces:R:3 energy=-4.41003652302964 pbc="F F F"
Th       0.00000000       0.00000000       0.00000000       0.00000000       0.00000000       0.27759275
Th       0.00000000       0.00000000       3.11939394       0.00000000       0.00000000      -0.27759275
2
Properties=species:S:1:pos:R:3:forces:R:3 energy=-4.388314283435606 pbc="F F F"
Th       0.00000000       0.00000000       0.00000000       0.00000000       0.00000000       0.46010026
Th       0.00000000       0.00000000       3.17818182       0.00000000       0.00000000      -0.46010026
2
Properties=species:S:1:pos:R:3:forces:R:3 energy=-4.356076218443941 pbc="F F F"
Th       0.00000000       0.00000000       0.00000000       0.00000000       0.00000000       0.63552994
Th       0.00000000       0.00000000       3.23696970       0.00000000       0.00000000      -0.63552994
2
Properties=species:S:1:pos:R:3:forces:R:3 energy=-4.313753808981719 pbc="F F F"
Th       0.00000000       0.00000000       0.00000000       0.00000000       0.00000000       0.80268073
Th       0.00000000       0.00000000       3.29575758       0.00000000       0.00000000      -0.80268073
2
Properties=species:S:1:pos:R:3:forces:R:3 energy=-4.261910594526261 pbc="F F F"
Th       0.00000000       0.00000000       0.00000000       0.00000000       0.00000000       0.95919132
Th       0.00000000       0.00000000       3.35454545       0.00000000       0.00000000      -0.95919132
2
Properties=species:S:1:pos:R:3:forces:R:3 energy=-4.201187585585903 pbc="F F F"
Th       0.00000000       0.00000000       0.00000000       0.00000000       0.00000000       1.10499835
Th       0.00000000       0.00000000       3.41333333       0.00000000       0.00000000      -1.10499835
2
Properties=species:S:1:pos:R:3:forces:R:3 energy=-4.132140514845393 pbc="F F F"
Th       0.00000000       0.00000000       0.00000000       0.00000000       0.00000000       1.24308801
Th       0.00000000       0.00000000       3.47212121       0.00000000       0.00000000      -1.24308801
2
Properties=species:S:1:pos:R:3:forces:R:3 energy=-4.055108816317174 pbc="F F F"
Th       0.00000000       0.00000000       0.00000000       0.00000000       0.00000000       1.37714458
Th       0.00000000       0.00000000       3.53090909       0.00000000       0.00000000      -1.37714458
2
Properties=species:S:1:pos:R:3:forces:R:3 energy=-3.9702806042436944 pbc="F F F"
Th       0.00000000       0.00000000       0.00000000       0.00000000       0.00000000       1.50800133
Th       0.00000000       0.00000000       3.58969697       0.00000000       0.00000000      -1.50800133
2
Properties=species:S:1:pos:R:3:forces:R:3 energy=-3.8779467742816673 pbc="F F F"
Th       0.00000000       0.00000000       0.00000000       0.00000000       0.00000000       1.63137639
Th       0.00000000       0.00000000       3.64848485       0.00000000       0.00000000      -1.63137639
2
Properties=species:S:1:pos:R:3:forces:R:3 energy=-3.778792127594346 pbc="F F F"
Th       0.00000000       0.00000000       0.00000000       0.00000000       0.00000000       1.73834884
Th       0.00000000       0.00000000       3.70727273       0.00000000       0.00000000      -1.73834884
2
Properties=species:S:1:pos:R:3:forces:R:3 energy=-3.6740864558390807 pbc="F F F"
Th       0.00000000       0.00000000       0.00000000       0.00000000       0.00000000       1.81844878
Th       0.00000000       0.00000000       3.76606061       0.00000000       0.00000000      -1.81844878
2
Properties=species:S:1:pos:R:3:forces:R:3 energy=-3.5656743905387223 pbc="F F F"
Th       0.00000000       0.00000000       0.00000000       0.00000000       0.00000000       1.86361146
Th       0.00000000       0.00000000       3.82484848       0.00000000       0.00000000      -1.86361146
2
Properties=species:S:1:pos:R:3:forces:R:3 energy=-3.4557161533871223 pbc="F F F"
Th       0.00000000       0.00000000       0.00000000       0.00000000       0.00000000       1.87092793
Th       0.00000000       0.00000000       3.88363636       0.00000000       0.00000000      -1.87092793
2
Properties=species:S:1:pos:R:3:forces:R:3 energy=-3.3463928098648217 pbc="F F F"
Th       0.00000000       0.00000000       0.00000000       0.00000000       0.00000000       1.84293795
Th       0.00000000       0.00000000       3.94242424       0.00000000       0.00000000      -1.84293795
2
Properties=species:S:1:pos:R:3:forces:R:3 energy=-3.2396040408438678 pbc="F F F"
Th       0.00000000       0.00000000       0.00000000       0.00000000       0.00000000       1.78593397
Th       0.00000000       0.00000000       4.00121212       0.00000000       0.00000000      -1.78593397
2
Properties=species:S:1:pos:R:3:forces:R:3 energy=-3.1368278534288967 pbc="F F F"
Th       0.00000000       0.00000000       0.00000000       0.00000000       0.00000000       1.70763290
Th       0.00000000       0.00000000       4.06000000       0.00000000       0.00000000      -1.70763290
2
Properties=species:S:1:pos:R:3:forces:R:3 energy=-3.039099349032306 pbc="F F F"
Th       0.00000000       0.00000000       0.00000000       0.00000000       0.00000000       1.61540008
Th       0.00000000       0.00000000       4.11878788       0.00000000       0.00000000      -1.61540008
2
Properties=species:S:1:pos:R:3:forces:R:3 energy=-2.947044120982261 pbc="F F F"
Th       0.00000000       0.00000000       0.00000000       0.00000000       0.00000000       1.51549506
Th       0.00000000       0.00000000       4.17757576       0.00000000       0.00000000      -1.51549506
2
Properties=species:S:1:pos:R:3:forces:R:3 energy=-2.860963509339609 pbc="F F F"
Th       0.00000000       0.00000000       0.00000000       0.00000000       0.00000000       1.41294980
Th       0.00000000       0.00000000       4.23636364       0.00000000       0.00000000      -1.41294980
2
Properties=species:S:1:pos:R:3:forces:R:3 energy=-2.7808874031095536 pbc="F F F"
Th       0.00000000       0.00000000       0.00000000       0.00000000       0.00000000       1.31174421
Th       0.00000000       0.00000000       4.29515152       0.00000000       0.00000000      -1.31174421
2
Properties=species:S:1:pos:R:3:forces:R:3 energy=-2.706647932925434 pbc="F F F"
Th       0.00000000       0.00000000       0.00000000       0.00000000       0.00000000       1.21498847
Th       0.00000000       0.00000000       4.35393939       0.00000000       0.00000000      -1.21498847
2
Properties=species:S:1:pos:R:3:forces:R:3 energy=-2.637903618681397 pbc="F F F"
Th       0.00000000       0.00000000       0.00000000       0.00000000       0.00000000       1.12499154
Th       0.00000000       0.00000000       4.41272727       0.00000000       0.00000000      -1.12499154
2
Properties=species:S:1:pos:R:3:forces:R:3 energy=-2.574210319234566 pbc="F F F"
Th       0.00000000       0.00000000       0.00000000       0.00000000       0.00000000       1.04337537
Th       0.00000000       0.00000000       4.47151515       0.00000000       0.00000000      -1.04337537
2
Properties=species:S:1:pos:R:3:forces:R:3 energy=-2.5150437704643616 pbc="F F F"
Th       0.00000000       0.00000000       0.00000000       0.00000000       0.00000000       0.97109550
Th       0.00000000       0.00000000       4.53030303       0.00000000       0.00000000      -0.97109550
2
Properties=species:S:1:pos:R:3:forces:R:3 energy=-2.4598435723323933 pbc="F F F"
Th       0.00000000       0.00000000       0.00000000       0.00000000       0.00000000       0.90847039
Th       0.00000000       0.00000000       4.58909091       0.00000000       0.00000000      -0.90847039
2
Properties=species:S:1:pos:R:3:forces:R:3 energy=-2.4080479052962493 pbc="F F F"
Th       0.00000000       0.00000000       0.00000000       0.00000000       0.00000000       0.85515904
Th       0.00000000       0.00000000       4.64787879       0.00000000       0.00000000      -0.85515904
2
Properties=species:S:1:pos:R:3:forces:R:3 energy=-2.3591348084019015 pbc="F F F"
Th       0.00000000       0.00000000       0.00000000       0.00000000       0.00000000       0.81009889
Th       0.00000000       0.00000000       4.70666667       0.00000000       0.00000000      -0.81009889
2
Properties=species:S:1:pos:R:3:forces:R:3 energy=-2.3126710424211327 pbc="F F F"
Th       0.00000000       0.00000000       0.00000000       0.00000000       0.00000000       0.77156115
Th       0.00000000       0.00000000       4.76545455       0.00000000       0.00000000      -0.77156115
2
Properties=species:S:1:pos:R:3:forces:R:3 energy=-2.268333598208811 pbc="F F F"
Th       0.00000000       0.00000000       0.00000000       0.00000000       0.00000000       0.73729414
Th       0.00000000       0.00000000       4.82424242       0.00000000       0.00000000      -0.73729414
2
Properties=species:S:1:pos:R:3:forces:R:3 energy=-2.225950272210846 pbc="F F F"
Th       0.00000000       0.00000000       0.00000000       0.00000000       0.00000000       0.70482951
Th       0.00000000       0.00000000       4.88303030       0.00000000       0.00000000      -0.70482951
2
Properties=species:S:1:pos:R:3:forces:R:3 energy=-2.18547242338973 pbc="F F F"
Th       0.00000000       0.00000000       0.00000000       0.00000000       0.00000000       0.67190593
Th       0.00000000       0.00000000       4.94181818       0.00000000       0.00000000      -0.67190593
2
Properties=species:S:1:pos:R:3:forces:R:3 energy=-2.1469893036818584 pbc="F F F"
Th       0.00000000       0.00000000       0.00000000       0.00000000       0.00000000       0.63679999
Th       0.00000000       0.00000000       5.00060606       0.00000000       0.00000000      -0.63679999
2
Properties=species:S:1:pos:R:3:forces:R:3 energy=-2.1106613324736054 pbc="F F F"
Th       0.00000000       0.00000000       0.00000000       0.00000000       0.00000000       0.59853530
Th       0.00000000       0.00000000       5.05939394       0.00000000       0.00000000      -0.59853530
2
Properties=species:S:1:pos:R:3:forces:R:3 energy=-2.076683172231833 pbc="F F F"
Th       0.00000000       0.00000000       0.00000000       0.00000000       0.00000000       0.55687630
Th       0.00000000       0.00000000       5.11818182       0.00000000       0.00000000      -0.55687630
2
Properties=species:S:1:pos:R:3:forces:R:3 energy=-2.0452477209627986 pbc="F F F"
Th       0.00000000       0.00000000       0.00000000       0.00000000       0.00000000       0.51219457
Th       0.00000000       0.00000000       5.17696970       0.00000000       0.00000000      -0.51219457
2
Properties=species:S:1:pos:R:3:forces:R:3 energy=-2.016509081304667 pbc="F F F"
Th       0.00000000       0.00000000       0.00000000       0.00000000       0.00000000       0.46524602
Th       0.00000000       0.00000000       5.23575758       0.00000000       0.00000000      -0.46524602
2
Properties=species:S:1:pos:R:3:forces:R:3 energy=-1.99057451648431 pbc="F F F"
Th       0.00000000       0.00000000       0.00000000       0.00000000       0.00000000       0.41695172
Th       0.00000000       0.00000000       5.29454545       0.00000000       0.00000000      -0.41695172
2
Properties=species:S:1:pos:R:3:forces:R:3 energy=-1.9674916822520347 pbc="F F F"
Th       0.00000000       0.00000000       0.00000000       0.00000000       0.00000000       0.36830831
Th       0.00000000       0.00000000       5.35333333       0.00000000       0.00000000      -0.36830831
2
Properties=species:S:1:pos:R:3:forces:R:3 energy=-1.9472550566796254 pbc="F F F"
Th       0.00000000       0.00000000       0.00000000       0.00000000       0.00000000       0.32030240
Th       0.00000000       0.00000000       5.41212121       0.00000000       0.00000000      -0.32030240
2
Properties=species:S:1:pos:R:3:forces:R:3 energy=-1.9298013215083183 pbc="F F F"
Th       0.00000000       0.00000000       0.00000000       0.00000000       0.00000000       0.27384561
Th       0.00000000       0.00000000       5.47090909       0.00000000       0.00000000      -0.27384561
2
Properties=species:S:1:pos:R:3:forces:R:3 energy=-1.9150114445595723 pbc="F F F"
Th       0.00000000       0.00000000       0.00000000       0.00000000       0.00000000       0.22974809
Th       0.00000000       0.00000000       5.52969697       0.00000000       0.00000000      -0.22974809
2
Properties=species:S:1:pos:R:3:forces:R:3 energy=-1.9027279512428112 pbc="F F F"
Th       0.00000000       0.00000000       0.00000000       0.00000000       0.00000000       0.18873358
Th       0.00000000       0.00000000       5.58848485       0.00000000       0.00000000      -0.18873358
2
Properties=species:S:1:pos:R:3:forces:R:3 energy=-1.892749297544192 pbc="F F F"
Th       0.00000000       0.00000000       0.00000000       0.00000000       0.00000000       0.15141281
Th       0.00000000       0.00000000       5.64727273       0.00000000       0.00000000      -0.15141281
2
Properties=species:S:1:pos:R:3:forces:R:3 energy=-1.8848444290630046 pbc="F F F"
Th       0.00000000       0.00000000       0.00000000       0.00000000       0.00000000       0.11833677
Th       0.00000000       0.00000000       5.70606061       0.00000000       0.00000000      -0.11833677
2
Properties=species:S:1:pos:R:3:forces:R:3 energy=-1.878737359831763 pbc="F F F"
Th       0.00000000       0.00000000       0.00000000       0.00000000       0.00000000       0.09000412
Th       0.00000000       0.00000000       5.76484848       0.00000000       0.00000000      -0.09000412
2
Properties=species:S:1:pos:R:3:forces:R:3 energy=-1.8741554774210503 pbc="F F F"
Th       0.00000000       0.00000000       0.00000000       0.00000000       0.00000000       0.06691271
Th       0.00000000       0.00000000       5.82363636       0.00000000       0.00000000      -0.06691271
2
Properties=species:S:1:pos:R:3:forces:R:3 energy=-1.8707640630254296 pbc="F F F"
Th       0.00000000       0.00000000       0.00000000       0.00000000       0.00000000       0.04956127
Th       0.00000000       0.00000000       5.88242424       0.00000000       0.00000000      -0.04956127
2
Properties=species:S:1:pos:R:3:forces:R:3 energy=-1.8682054934807257 pbc="F F F"
Th       0.00000000       0.00000000       0.00000000       0.00000000       0.00000000       0.03847203
Th       0.00000000       0.00000000       5.94121212       0.00000000       0.00000000      -0.03847203
2
Properties=species:S:1:pos:R:3:forces:R:3 energy=-1.8661054021332155 pbc="F F F"
Th       0.00000000       0.00000000       0.00000000       0.00000000       0.00000000       0.03418691
Th       0.00000000       0.00000000       6.00000000       0.00000000       0.00000000      -0.03418691
