2
Properties=species:S:1:pos:R:3:forces:R:3 energy=10104.333591932176 pbc="F F F"
Xe       0.00000000       0.00000000       0.00000000       0.00000000       0.00000000 -170724.51562500
Xe       0.00000000       0.00000000       0.18000000       0.00000000       0.00000000  170724.51562500
2
Properties=species:S:1:pos:R:3:forces:R:3 energy=4060.188572400926 pbc="F F F"
Xe       0.00000000       0.00000000       0.00000000       0.00000000       0.00000000  -58267.32421875
Xe       0.00000000       0.00000000       0.23878788       0.00000000       0.00000000   58267.32421875
2
Properties=species:S:1:pos:R:3:forces:R:3 energy=1835.314060685344 pbc="F F F"
Xe       0.00000000       0.00000000       0.00000000       0.00000000       0.00000000  -23429.50781250
Xe       0.00000000       0.00000000       0.29757576       0.00000000       0.00000000   23429.50781250
2
Properties=species:S:1:pos:R:3:forces:R:3 energy=897.5079693830859 pbc="F F F"
Xe       0.00000000       0.00000000       0.00000000       0.00000000       0.00000000  -10427.72558594
Xe       0.00000000       0.00000000       0.35636364       0.00000000       0.00000000   10427.72558594
2
Properties=species:S:1:pos:R:3:forces:R:3 energy=466.37808657692153 pbc="F F F"
Xe       0.00000000       0.00000000       0.00000000       0.00000000       0.00000000   -4978.52148438
Xe       0.00000000       0.00000000       0.41515152       0.00000000       0.00000000    4978.52148438
2
Properties=species:S:1:pos:R:3:forces:R:3 energy=255.3643689477291 pbc="F F F"
Xe       0.00000000       0.00000000       0.00000000       0.00000000       0.00000000   -2509.11083984
Xe       0.00000000       0.00000000       0.47393939       0.00000000       0.00000000    2509.11083984
2
Properties=species:S:1:pos:R:3:forces:R:3 energy=146.82115609195014 pbc="F F F"
Xe       0.00000000       0.00000000       0.00000000       0.00000000       0.00000000   -1321.85339355
Xe       0.00000000       0.00000000       0.53272727       0.00000000       0.00000000    1321.85339355
2
Properties=species:S:1:pos:R:3:forces:R:3 energy=88.671719204623 pbc="F F F"
Xe       0.00000000       0.00000000       0.00000000       0.00000000       0.00000000    -721.72125244
Xe       0.00000000       0.00000000       0.59151515       0.00000000       0.00000000     721.72125244
2
Properties=species:S:1:pos:R:3:forces:R:3 energy=56.519551038403165 pbc="F F F"
Xe       0.00000000       0.00000000       0.00000000       0.00000000       0.00000000    -404.46911621
Xe       0.00000000       0.00000000       0.65030303       0.00000000       0.00000000     404.46911621
2
Properties=species:S:1:pos:R:3:forces:R:3 energy=38.35337917554203 pbc="F F F"
Xe       0.00000000       0.00000000       0.00000000       0.00000000       0.00000000    -230.45533752
Xe       0.00000000       0.00000000       0.70909091       0.00000000       0.00000000     230.45533752
2
Properties=species:S:1:pos:R:3:forces:R:3 energy=27.938498679572145 pbc="F F F"
Xe       0.00000000       0.00000000       0.00000000       0.00000000       0.00000000    -133.26829529
Xe       0.00000000       0.00000000       0.76787879       0.00000000       0.00000000     133.26829529
2
Properties=species:S:1:pos:R:3:forces:R:3 energy=21.832881533349624 pbc="F F F"
Xe       0.00000000       0.00000000       0.00000000       0.00000000       0.00000000     -80.00536346
Xe       0.00000000       0.00000000       0.82666667       0.00000000       0.00000000      80.00536346
2
Properties=species:S:1:pos:R:3:forces:R:3 energy=18.019436026957514 pbc="F F F"
Xe       0.00000000       0.00000000       0.00000000       0.00000000       0.00000000     -53.09653854
Xe       0.00000000       0.00000000       0.88545455       0.00000000       0.00000000      53.09653854
2
Properties=species:S:1:pos:R:3:forces:R:3 energy=15.28828710743727 pbc="F F F"
Xe       0.00000000       0.00000000       0.00000000       0.00000000       0.00000000     -41.65864182
Xe       0.00000000       0.00000000       0.94424242       0.00000000       0.00000000      41.65864182
2
Properties=species:S:1:pos:R:3:forces:R:3 energy=12.97880842670735 pbc="F F F"
Xe       0.00000000       0.00000000       0.00000000       0.00000000       0.00000000     -37.57479095
Xe       0.00000000       0.00000000       1.00303030       0.00000000       0.00000000      37.57479095
2
Properties=species:S:1:pos:R:3:forces:R:3 energy=10.83982705405759 pbc="F F F"
Xe       0.00000000       0.00000000       0.00000000       0.00000000       0.00000000     -35.15711594
Xe       0.00000000       0.00000000       1.06181818       0.00000000       0.00000000      35.15711594
2
Properties=species:S:1:pos:R:3:forces:R:3 energy=8.867837371399904 pbc="F F F"
Xe       0.00000000       0.00000000       0.00000000       0.00000000       0.00000000     -31.66373253
Xe       0.00000000       0.00000000       1.12060606       0.00000000       0.00000000      31.66373253
2
Properties=species:S:1:pos:R:3:forces:R:3 energy=7.146000376339315 pbc="F F F"
Xe       0.00000000       0.00000000       0.00000000       0.00000000       0.00000000     -26.73082924
Xe       0.00000000       0.00000000       1.17939394       0.00000000       0.00000000      26.73082924
2
Properties=species:S:1:pos:R:3:forces:R:3 energy=5.735278885261953 pbc="F F F"
Xe       0.00000000       0.00000000       0.00000000       0.00000000       0.00000000     -21.27191353
Xe       0.00000000       0.00000000       1.23818182       0.00000000       0.00000000      21.27191353
2
Properties=species:S:1:pos:R:3:forces:R:3 energy=4.633956442789391 pbc="F F F"
Xe       0.00000000       0.00000000       0.00000000       0.00000000       0.00000000     -16.36227989
Xe       0.00000000       0.00000000       1.29696970       0.00000000       0.00000000      16.36227989
2
Properties=species:S:1:pos:R:3:forces:R:3 energy=3.784907432182488 pbc="F F F"
Xe       0.00000000       0.00000000       0.00000000       0.00000000       0.00000000     -12.79440975
Xe       0.00000000       0.00000000       1.35575758       0.00000000       0.00000000      12.79440975
2
Properties=species:S:1:pos:R:3:forces:R:3 energy=3.098795203087964 pbc="F F F"
Xe       0.00000000       0.00000000       0.00000000       0.00000000       0.00000000     -10.74282551
Xe       0.00000000       0.00000000       1.41454545       0.00000000       0.00000000      10.74282551
2
Properties=species:S:1:pos:R:3:forces:R:3 energy=2.5130413308004877 pbc="F F F"
Xe       0.00000000       0.00000000       0.00000000       0.00000000       0.00000000      -9.16037273
Xe       0.00000000       0.00000000       1.47333333       0.00000000       0.00000000       9.16037273
2
Properties=species:S:1:pos:R:3:forces:R:3 energy=2.0266881535801544 pbc="F F F"
Xe       0.00000000       0.00000000       0.00000000       0.00000000       0.00000000      -7.36618614
Xe       0.00000000       0.00000000       1.53212121       0.00000000       0.00000000       7.36618614
2
Properties=species:S:1:pos:R:3:forces:R:3 energy=1.645124254432519 pbc="F F F"
Xe       0.00000000       0.00000000       0.00000000       0.00000000       0.00000000      -5.65651894
Xe       0.00000000       0.00000000       1.59090909       0.00000000       0.00000000       5.65651894
2
Properties=species:S:1:pos:R:3:forces:R:3 energy=1.3554754228960437 pbc="F F F"
Xe       0.00000000       0.00000000       0.00000000       0.00000000       0.00000000      -4.25311995
Xe       0.00000000       0.00000000       1.64969697       0.00000000       0.00000000       4.25311995
2
Properties=species:S:1:pos:R:3:forces:R:3 energy=1.1388050917673065 pbc="F F F"
Xe       0.00000000       0.00000000       0.00000000       0.00000000       0.00000000      -3.16754961
Xe       0.00000000       0.00000000       1.70848485       0.00000000       0.00000000       3.16754961
2
Properties=species:S:1:pos:R:3:forces:R:3 energy=0.9777283979834105 pbc="F F F"
Xe       0.00000000       0.00000000       0.00000000       0.00000000       0.00000000      -2.35377812
Xe       0.00000000       0.00000000       1.76727273       0.00000000       0.00000000       2.35377812
2
Properties=species:S:1:pos:R:3:forces:R:3 energy=0.857575043898974 pbc="F F F"
Xe       0.00000000       0.00000000       0.00000000       0.00000000       0.00000000      -1.76900280
Xe       0.00000000       0.00000000       1.82606061       0.00000000       0.00000000       1.76900280
2
Properties=species:S:1:pos:R:3:forces:R:3 energy=0.765938871321207 pbc="F F F"
Xe       0.00000000       0.00000000       0.00000000       0.00000000       0.00000000      -1.37789845
Xe       0.00000000       0.00000000       1.88484848       0.00000000       0.00000000       1.37789845
2
Properties=species:S:1:pos:R:3:forces:R:3 energy=0.6925331135059736 pbc="F F F"
Xe       0.00000000       0.00000000       0.00000000       0.00000000       0.00000000      -1.14111161
Xe       0.00000000       0.00000000       1.94363636       0.00000000       0.00000000       1.14111161
2
Properties=species:S:1:pos:R:3:forces:R:3 energy=0.6297967246986924 pbc="F F F"
Xe       0.00000000       0.00000000       0.00000000       0.00000000       0.00000000      -1.00479996
Xe       0.00000000       0.00000000       2.00242424       0.00000000       0.00000000       1.00479996
2
Properties=species:S:1:pos:R:3:forces:R:3 energy=0.5736334561387725 pbc="F F F"
Xe       0.00000000       0.00000000       0.00000000       0.00000000       0.00000000      -0.90779251
Xe       0.00000000       0.00000000       2.06121212       0.00000000       0.00000000       0.90779251
2
Properties=species:S:1:pos:R:3:forces:R:3 energy=0.5232274107782792 pbc="F F F"
Xe       0.00000000       0.00000000       0.00000000       0.00000000       0.00000000      -0.80344236
Xe       0.00000000       0.00000000       2.12000000       0.00000000       0.00000000       0.80344236
2
Properties=species:S:1:pos:R:3:forces:R:3 energy=0.4796798602973194 pbc="F F F"
Xe       0.00000000       0.00000000       0.00000000       0.00000000       0.00000000      -0.67389917
Xe       0.00000000       0.00000000       2.17878788       0.00000000       0.00000000       0.67389917
2
Properties=species:S:1:pos:R:3:forces:R:3 energy=0.44435227657699816 pbc="F F F"
Xe       0.00000000       0.00000000       0.00000000       0.00000000       0.00000000      -0.52639812
Xe       0.00000000       0.00000000       2.23757576       0.00000000       0.00000000       0.52639812
2
Properties=species:S:1:pos:R:3:forces:R:3 energy=0.41776896325574675 pbc="F F F"
Xe       0.00000000       0.00000000       0.00000000       0.00000000       0.00000000      -0.37981018
Xe       0.00000000       0.00000000       2.29636364       0.00000000       0.00000000       0.37981018
2
Properties=species:S:1:pos:R:3:forces:R:3 energy=0.39929693185352344 pbc="F F F"
Xe       0.00000000       0.00000000       0.00000000       0.00000000       0.00000000      -0.25341129
Xe       0.00000000       0.00000000       2.35515152       0.00000000       0.00000000       0.25341129
2
Properties=species:S:1:pos:R:3:forces:R:3 energy=0.3872788011227292 pbc="F F F"
Xe       0.00000000       0.00000000       0.00000000       0.00000000       0.00000000      -0.16234015
Xe       0.00000000       0.00000000       2.41393939       0.00000000       0.00000000       0.16234015
2
Properties=species:S:1:pos:R:3:forces:R:3 energy=0.3793162691111924 pbc="F F F"
Xe       0.00000000       0.00000000       0.00000000       0.00000000       0.00000000      -0.11665681
Xe       0.00000000       0.00000000       2.47272727       0.00000000       0.00000000       0.11665681
2
Properties=species:S:1:pos:R:3:forces:R:3 energy=0.3725937505441881 pbc="F F F"
Xe       0.00000000       0.00000000       0.00000000       0.00000000       0.00000000      -0.12014601
Xe       0.00000000       0.00000000       2.53151515       0.00000000       0.00000000       0.12014601
2
Properties=species:S:1:pos:R:3:forces:R:3 energy=0.3642965864788607 pbc="F F F"
Xe       0.00000000       0.00000000       0.00000000       0.00000000       0.00000000      -0.16894613
Xe       0.00000000       0.00000000       2.59030303       0.00000000       0.00000000       0.16894613
2
Properties=species:S:1:pos:R:3:forces:R:3 energy=0.35205475711904255 pbc="F F F"
Xe       0.00000000       0.00000000       0.00000000       0.00000000       0.00000000      -0.25205061
Xe       0.00000000       0.00000000       2.64909091       0.00000000       0.00000000       0.25205061
2
Properties=species:S:1:pos:R:3:forces:R:3 energy=0.33428873589066377 pbc="F F F"
Xe       0.00000000       0.00000000       0.00000000       0.00000000       0.00000000      -0.35418564
Xe       0.00000000       0.00000000       2.70787879       0.00000000       0.00000000       0.35418564
2
Properties=species:S:1:pos:R:3:forces:R:3 energy=0.31034738795526273 pbc="F F F"
Xe       0.00000000       0.00000000       0.00000000       0.00000000       0.00000000      -0.45966306
Xe       0.00000000       0.00000000       2.76666667       0.00000000       0.00000000       0.45966306
2
Properties=species:S:1:pos:R:3:forces:R:3 energy=0.2804373165311719 pbc="F F F"
Xe       0.00000000       0.00000000       0.00000000       0.00000000       0.00000000      -0.55540240
Xe       0.00000000       0.00000000       2.82545455       0.00000000       0.00000000       0.55540240
2
Properties=species:S:1:pos:R:3:forces:R:3 energy=0.24541727380239875 pbc="F F F"
Xe       0.00000000       0.00000000       0.00000000       0.00000000       0.00000000      -0.63230741
Xe       0.00000000       0.00000000       2.88424242       0.00000000       0.00000000       0.63230741
2
Properties=species:S:1:pos:R:3:forces:R:3 energy=0.20656432145575648 pbc="F F F"
Xe       0.00000000       0.00000000       0.00000000       0.00000000       0.00000000      -0.68526822
Xe       0.00000000       0.00000000       2.94303030       0.00000000       0.00000000       0.68526822
2
Properties=species:S:1:pos:R:3:forces:R:3 energy=0.16535214739770562 pbc="F F F"
Xe       0.00000000       0.00000000       0.00000000       0.00000000       0.00000000      -0.71250790
Xe       0.00000000       0.00000000       3.00181818       0.00000000       0.00000000       0.71250790
2
Properties=species:S:1:pos:R:3:forces:R:3 energy=0.12328132158347405 pbc="F F F"
Xe       0.00000000       0.00000000       0.00000000       0.00000000       0.00000000      -0.71477020
Xe       0.00000000       0.00000000       3.06060606       0.00000000       0.00000000       0.71477020
2
Properties=species:S:1:pos:R:3:forces:R:3 energy=0.08175433300338605 pbc="F F F"
Xe       0.00000000       0.00000000       0.00000000       0.00000000       0.00000000      -0.69452846
Xe       0.00000000       0.00000000       3.11939394       0.00000000       0.00000000       0.69452846
2
Properties=species:S:1:pos:R:3:forces:R:3 energy=0.04199515673653377 pbc="F F F"
Xe       0.00000000       0.00000000       0.00000000       0.00000000       0.00000000      -0.65523255
Xe       0.00000000       0.00000000       3.17818182       0.00000000       0.00000000       0.65523255
2
Properties=species:S:1:pos:R:3:forces:R:3 energy=0.005013060499147043 pbc="F F F"
Xe       0.00000000       0.00000000       0.00000000       0.00000000       0.00000000      -0.60072368
Xe       0.00000000       0.00000000       3.23696970       0.00000000       0.00000000       0.60072368
2
Properties=species:S:1:pos:R:3:forces:R:3 energy=-0.028413211659344684 pbc="F F F"
Xe       0.00000000       0.00000000       0.00000000       0.00000000       0.00000000      -0.53488070
Xe       0.00000000       0.00000000       3.29575758       0.00000000       0.00000000       0.53488070
2
Properties=species:S:1:pos:R:3:forces:R:3 energy=-0.057727996239550015 pbc="F F F"
Xe       0.00000000       0.00000000       0.00000000       0.00000000       0.00000000      -0.46147954
Xe       0.00000000       0.00000000       3.35454545       0.00000000       0.00000000       0.46147954
2
Properties=species:S:1:pos:R:3:forces:R:3 energy=-0.08259429268179766 pbc="F F F"
Xe       0.00000000       0.00000000       0.00000000       0.00000000       0.00000000      -0.38410687
Xe       0.00000000       0.00000000       3.41333333       0.00000000       0.00000000       0.38410687
2
Properties=species:S:1:pos:R:3:forces:R:3 energy=-0.10287701319553932 pbc="F F F"
Xe       0.00000000       0.00000000       0.00000000       0.00000000       0.00000000      -0.30605796
Xe       0.00000000       0.00000000       3.47212121       0.00000000       0.00000000       0.30605796
2
Properties=species:S:1:pos:R:3:forces:R:3 energy=-0.11862280695432079 pbc="F F F"
Xe       0.00000000       0.00000000       0.00000000       0.00000000       0.00000000      -0.23021191
Xe       0.00000000       0.00000000       3.53090909       0.00000000       0.00000000       0.23021191
2
Properties=species:S:1:pos:R:3:forces:R:3 energy=-0.13003398571380842 pbc="F F F"
Xe       0.00000000       0.00000000       0.00000000       0.00000000       0.00000000      -0.15892835
Xe       0.00000000       0.00000000       3.58969697       0.00000000       0.00000000       0.15892835
2
Properties=species:S:1:pos:R:3:forces:R:3 energy=-0.13743438451703918 pbc="F F F"
Xe       0.00000000       0.00000000       0.00000000       0.00000000       0.00000000      -0.09402076
Xe       0.00000000       0.00000000       3.64848485       0.00000000       0.00000000       0.09402076
2
Properties=species:S:1:pos:R:3:forces:R:3 energy=-0.14123871950931133 pbc="F F F"
Xe       0.00000000       0.00000000       0.00000000       0.00000000       0.00000000      -0.03675963
Xe       0.00000000       0.00000000       3.70727273       0.00000000       0.00000000       0.03675963
2
Properties=species:S:1:pos:R:3:forces:R:3 energy=-0.1419216473758778 pbc="F F F"
Xe       0.00000000       0.00000000       0.00000000       0.00000000       0.00000000       0.01207879
Xe       0.00000000       0.00000000       3.76606061       0.00000000       0.00000000      -0.01207879
2
Properties=species:S:1:pos:R:3:forces:R:3 energy=-0.13999039953640033 pbc="F F F"
Xe       0.00000000       0.00000000       0.00000000       0.00000000       0.00000000       0.05216196
Xe       0.00000000       0.00000000       3.82484848       0.00000000       0.00000000      -0.05216196
2
Properties=species:S:1:pos:R:3:forces:R:3 energy=-0.13595917057065296 pbc="F F F"
Xe       0.00000000       0.00000000       0.00000000       0.00000000       0.00000000       0.08355401
Xe       0.00000000       0.00000000       3.88363636       0.00000000       0.00000000      -0.08355401
2
Properties=species:S:1:pos:R:3:forces:R:3 energy=-0.1303293047178555 pbc="F F F"
Xe       0.00000000       0.00000000       0.00000000       0.00000000       0.00000000       0.10663928
Xe       0.00000000       0.00000000       3.94242424       0.00000000       0.00000000      -0.10663928
2
Properties=species:S:1:pos:R:3:forces:R:3 energy=-0.12357165490169002 pbc="F F F"
Xe       0.00000000       0.00000000       0.00000000       0.00000000       0.00000000       0.12204710
Xe       0.00000000       0.00000000       4.00121212       0.00000000       0.00000000      -0.12204710
2
Properties=species:S:1:pos:R:3:forces:R:3 energy=-0.11611471225649761 pbc="F F F"
Xe       0.00000000       0.00000000       0.00000000       0.00000000       0.00000000       0.13056709
Xe       0.00000000       0.00000000       4.06000000       0.00000000       0.00000000      -0.13056709
2
Properties=species:S:1:pos:R:3:forces:R:3 energy=-0.10833776702525075 pbc="F F F"
Xe       0.00000000       0.00000000       0.00000000       0.00000000       0.00000000       0.13308536
Xe       0.00000000       0.00000000       4.11878788       0.00000000       0.00000000      -0.13308536
2
Properties=species:S:1:pos:R:3:forces:R:3 energy=-0.10056611555334105 pbc="F F F"
Xe       0.00000000       0.00000000       0.00000000       0.00000000       0.00000000       0.13054602
Xe       0.00000000       0.00000000       4.17757576       0.00000000       0.00000000      -0.13054602
2
Properties=species:S:1:pos:R:3:forces:R:3 energy=-0.09306837468173967 pbc="F F F"
Xe       0.00000000       0.00000000       0.00000000       0.00000000       0.00000000       0.12393695
Xe       0.00000000       0.00000000       4.23636364       0.00000000       0.00000000      -0.12393695
2
Properties=species:S:1:pos:R:3:forces:R:3 energy=-0.08605368232856302 pbc="F F F"
Xe       0.00000000       0.00000000       0.00000000       0.00000000       0.00000000       0.11428566
Xe       0.00000000       0.00000000       4.29515152       0.00000000       0.00000000      -0.11428566
2
Properties=species:S:1:pos:R:3:forces:R:3 energy=-0.07967014477747313 pbc="F F F"
Xe       0.00000000       0.00000000       0.00000000       0.00000000       0.00000000       0.10264965
Xe       0.00000000       0.00000000       4.35393939       0.00000000       0.00000000      -0.10264965
2
Properties=species:S:1:pos:R:3:forces:R:3 energy=-0.07400295661847639 pbc="F F F"
Xe       0.00000000       0.00000000       0.00000000       0.00000000       0.00000000       0.09007940
Xe       0.00000000       0.00000000       4.41272727       0.00000000       0.00000000      -0.09007940
2
Properties=species:S:1:pos:R:3:forces:R:3 energy=-0.06907774045742215 pbc="F F F"
Xe       0.00000000       0.00000000       0.00000000       0.00000000       0.00000000       0.07756520
Xe       0.00000000       0.00000000       4.47151515       0.00000000       0.00000000      -0.07756520
2
Properties=species:S:1:pos:R:3:forces:R:3 energy=-0.06486510582187188 pbc="F F F"
Xe       0.00000000       0.00000000       0.00000000       0.00000000       0.00000000       0.06596421
Xe       0.00000000       0.00000000       4.53030303       0.00000000       0.00000000      -0.06596421
2
Properties=species:S:1:pos:R:3:forces:R:3 energy=-0.06129099115991345 pbc="F F F"
Xe       0.00000000       0.00000000       0.00000000       0.00000000       0.00000000       0.05593526
Xe       0.00000000       0.00000000       4.58909091       0.00000000       0.00000000      -0.05593526
2
Properties=species:S:1:pos:R:3:forces:R:3 energy=-0.058249428737609465 pbc="F F F"
Xe       0.00000000       0.00000000       0.00000000       0.00000000       0.00000000       0.04789295
Xe       0.00000000       0.00000000       4.64787879       0.00000000       0.00000000      -0.04789295
2
Properties=species:S:1:pos:R:3:forces:R:3 energy=-0.05561770413714487 pbc="F F F"
Xe       0.00000000       0.00000000       0.00000000       0.00000000       0.00000000       0.04199576
Xe       0.00000000       0.00000000       4.70666667       0.00000000       0.00000000      -0.04199576
2
Properties=species:S:1:pos:R:3:forces:R:3 energy=-0.0532711064420163 pbc="F F F"
Xe       0.00000000       0.00000000       0.00000000       0.00000000       0.00000000       0.03816490
Xe       0.00000000       0.00000000       4.76545455       0.00000000       0.00000000      -0.03816490
2
Properties=species:S:1:pos:R:3:forces:R:3 energy=-0.05109524340079727 pbc="F F F"
Xe       0.00000000       0.00000000       0.00000000       0.00000000       0.00000000       0.03612338
Xe       0.00000000       0.00000000       4.82424242       0.00000000       0.00000000      -0.03612338
2
Properties=species:S:1:pos:R:3:forces:R:3 energy=-0.04899693921969217 pbc="F F F"
Xe       0.00000000       0.00000000       0.00000000       0.00000000       0.00000000       0.03545615
Xe       0.00000000       0.00000000       4.88303030       0.00000000       0.00000000      -0.03545615
2
Properties=species:S:1:pos:R:3:forces:R:3 energy=-0.04690914038937791 pbc="F F F"
Xe       0.00000000       0.00000000       0.00000000       0.00000000       0.00000000       0.03567585
Xe       0.00000000       0.00000000       4.94181818       0.00000000       0.00000000      -0.03567585
2
Properties=species:S:1:pos:R:3:forces:R:3 energy=-0.04479451536838304 pbc="F F F"
Xe       0.00000000       0.00000000       0.00000000       0.00000000       0.00000000       0.03628914
Xe       0.00000000       0.00000000       5.00060606       0.00000000       0.00000000      -0.03628914
2
Properties=species:S:1:pos:R:3:forces:R:3 energy=-0.04264325403371886 pbc="F F F"
Xe       0.00000000       0.00000000       0.00000000       0.00000000       0.00000000       0.03685825
Xe       0.00000000       0.00000000       5.05939394       0.00000000       0.00000000      -0.03685825
2
Properties=species:S:1:pos:R:3:forces:R:3 energy=-0.04046847206632151 pbc="F F F"
Xe       0.00000000       0.00000000       0.00000000       0.00000000       0.00000000       0.03704324
Xe       0.00000000       0.00000000       5.11818182       0.00000000       0.00000000      -0.03704324
2
Properties=species:S:1:pos:R:3:forces:R:3 energy=-0.03829985158403959 pbc="F F F"
Xe       0.00000000       0.00000000       0.00000000       0.00000000       0.00000000       0.03662665
Xe       0.00000000       0.00000000       5.17696970       0.00000000       0.00000000      -0.03662665
2
Properties=species:S:1:pos:R:3:forces:R:3 energy=-0.03617595392986388 pbc="F F F"
Xe       0.00000000       0.00000000       0.00000000       0.00000000       0.00000000       0.03551434
Xe       0.00000000       0.00000000       5.23575758       0.00000000       0.00000000      -0.03551434
2
Properties=species:S:1:pos:R:3:forces:R:3 energy=-0.03413782122035956 pbc="F F F"
Xe       0.00000000       0.00000000       0.00000000       0.00000000       0.00000000       0.03371776
Xe       0.00000000       0.00000000       5.29454545       0.00000000       0.00000000      -0.03371776
2
Properties=species:S:1:pos:R:3:forces:R:3 energy=-0.032223171387692914 pbc="F F F"
Xe       0.00000000       0.00000000       0.00000000       0.00000000       0.00000000       0.03132824
Xe       0.00000000       0.00000000       5.35333333       0.00000000       0.00000000      -0.03132824
2
Properties=species:S:1:pos:R:3:forces:R:3 energy=-0.03046307489770426 pbc="F F F"
Xe       0.00000000       0.00000000       0.00000000       0.00000000       0.00000000       0.02848697
Xe       0.00000000       0.00000000       5.41212121       0.00000000       0.00000000      -0.02848697
2
Properties=species:S:1:pos:R:3:forces:R:3 energy=-0.02887941365945759 pbc="F F F"
Xe       0.00000000       0.00000000       0.00000000       0.00000000       0.00000000       0.02535714
Xe       0.00000000       0.00000000       5.47090909       0.00000000       0.00000000      -0.02535714
2
Properties=species:S:1:pos:R:3:forces:R:3 energy=-0.027484171459185976 pbc="F F F"
Xe       0.00000000       0.00000000       0.00000000       0.00000000       0.00000000       0.02209941
Xe       0.00000000       0.00000000       5.52969697       0.00000000       0.00000000      -0.02209941
2
Properties=species:S:1:pos:R:3:forces:R:3 energy=-0.026280646732524445 pbc="F F F"
Xe       0.00000000       0.00000000       0.00000000       0.00000000       0.00000000       0.01886092
Xe       0.00000000       0.00000000       5.58848485       0.00000000       0.00000000      -0.01886092
2
Properties=species:S:1:pos:R:3:forces:R:3 energy=-0.025263752286646193 pbc="F F F"
Xe       0.00000000       0.00000000       0.00000000       0.00000000       0.00000000       0.01576823
Xe       0.00000000       0.00000000       5.64727273       0.00000000       0.00000000      -0.01576823
2
Properties=species:S:1:pos:R:3:forces:R:3 energy=-0.024421977913281077 pbc="F F F"
Xe       0.00000000       0.00000000       0.00000000       0.00000000       0.00000000       0.01292453
Xe       0.00000000       0.00000000       5.70606061       0.00000000       0.00000000      -0.01292453
2
Properties=species:S:1:pos:R:3:forces:R:3 energy=-0.023737252404738143 pbc="F F F"
Xe       0.00000000       0.00000000       0.00000000       0.00000000       0.00000000       0.01041226
Xe       0.00000000       0.00000000       5.76484848       0.00000000       0.00000000      -0.01041226
2
Properties=species:S:1:pos:R:3:forces:R:3 energy=-0.02318960474152517 pbc="F F F"
Xe       0.00000000       0.00000000       0.00000000       0.00000000       0.00000000       0.00830062
Xe       0.00000000       0.00000000       5.82363636       0.00000000       0.00000000      -0.00830062
2
Properties=species:S:1:pos:R:3:forces:R:3 energy=-0.022752860694088165 pbc="F F F"
Xe       0.00000000       0.00000000       0.00000000       0.00000000       0.00000000       0.00664526
Xe       0.00000000       0.00000000       5.88242424       0.00000000       0.00000000      -0.00664526
2
Properties=species:S:1:pos:R:3:forces:R:3 energy=-0.02239832603323416 pbc="F F F"
Xe       0.00000000       0.00000000       0.00000000       0.00000000       0.00000000       0.00549630
Xe       0.00000000       0.00000000       5.94121212       0.00000000       0.00000000      -0.00549630
2
Properties=species:S:1:pos:R:3:forces:R:3 energy=-0.02209562274055956 pbc="F F F"
Xe       0.00000000       0.00000000       0.00000000       0.00000000       0.00000000       0.00489970
Xe       0.00000000       0.00000000       6.00000000       0.00000000       0.00000000      -0.00489970
