2
Properties=species:S:1:pos:R:3:forces:R:3 energy=30045.934667949197 pbc="F F F"
Y        0.00000000       0.00000000       0.00000000       0.00000000       0.00000000 -702796.06250000
Y        0.00000000       0.00000000       0.10000000       0.00000000       0.00000000  702796.06250000
2
Properties=species:S:1:pos:R:3:forces:R:3 energy=9117.9063476367 pbc="F F F"
Y        0.00000000       0.00000000       0.00000000       0.00000000       0.00000000 -158202.35937500
Y        0.00000000       0.00000000       0.15959596       0.00000000       0.00000000  158202.35937500
2
Properties=species:S:1:pos:R:3:forces:R:3 energy=3603.9090331835737 pbc="F F F"
Y        0.00000000       0.00000000       0.00000000       0.00000000       0.00000000  -50728.19140625
Y        0.00000000       0.00000000       0.21919192       0.00000000       0.00000000   50728.19140625
2
Properties=species:S:1:pos:R:3:forces:R:3 energy=1666.4649413866985 pbc="F F F"
Y        0.00000000       0.00000000       0.00000000       0.00000000       0.00000000  -19868.34765625
Y        0.00000000       0.00000000       0.27878788       0.00000000       0.00000000   19868.34765625
2
Properties=species:S:1:pos:R:3:forces:R:3 energy=863.1710571220261 pbc="F F F"
Y        0.00000000       0.00000000       0.00000000       0.00000000       0.00000000   -8794.32421875
Y        0.00000000       0.00000000       0.33838384       0.00000000       0.00000000    8794.32421875
2
Properties=species:S:1:pos:R:3:forces:R:3 energy=493.9495605399949 pbc="F F F"
Y        0.00000000       0.00000000       0.00000000       0.00000000       0.00000000   -4220.98779297
Y        0.00000000       0.00000000       0.39797980       0.00000000       0.00000000    4220.98779297
2
Properties=species:S:1:pos:R:3:forces:R:3 energy=311.7218383720261 pbc="F F F"
Y        0.00000000       0.00000000       0.00000000       0.00000000       0.00000000   -2152.80273438
Y        0.00000000       0.00000000       0.45757576       0.00000000       0.00000000    2152.80273438
2
Properties=species:S:1:pos:R:3:forces:R:3 energy=216.5119537411427 pbc="F F F"
Y        0.00000000       0.00000000       0.00000000       0.00000000       0.00000000   -1158.62780762
Y        0.00000000       0.00000000       0.51717172       0.00000000       0.00000000    1158.62780762
2
Properties=species:S:1:pos:R:3:forces:R:3 energy=163.95250552429778 pbc="F F F"
Y        0.00000000       0.00000000       0.00000000       0.00000000       0.00000000    -660.98339844
Y        0.00000000       0.00000000       0.57676768       0.00000000       0.00000000     660.98339844
2
Properties=species:S:1:pos:R:3:forces:R:3 energy=132.96108100176477 pbc="F F F"
Y        0.00000000       0.00000000       0.00000000       0.00000000       0.00000000    -407.44256592
Y        0.00000000       0.00000000       0.63636364       0.00000000       0.00000000     407.44256592
2
Properties=species:S:1:pos:R:3:forces:R:3 energy=112.89125684003557 pbc="F F F"
Y        0.00000000       0.00000000       0.00000000       0.00000000       0.00000000    -281.48913574
Y        0.00000000       0.00000000       0.69595960       0.00000000       0.00000000     281.48913574
2
Properties=species:S:1:pos:R:3:forces:R:3 energy=98.00884116358586 pbc="F F F"
Y        0.00000000       0.00000000       0.00000000       0.00000000       0.00000000    -226.91023254
Y        0.00000000       0.00000000       0.75555556       0.00000000       0.00000000     226.91023254
2
Properties=species:S:1:pos:R:3:forces:R:3 energy=85.01468541284532 pbc="F F F"
Y        0.00000000       0.00000000       0.00000000       0.00000000       0.00000000    -214.49041748
Y        0.00000000       0.00000000       0.81515152       0.00000000       0.00000000     214.49041748
2
Properties=species:S:1:pos:R:3:forces:R:3 energy=71.97154901257062 pbc="F F F"
Y        0.00000000       0.00000000       0.00000000       0.00000000       0.00000000    -225.93949890
Y        0.00000000       0.00000000       0.87474747       0.00000000       0.00000000     225.93949890
2
Properties=species:S:1:pos:R:3:forces:R:3 energy=57.86383749301113 pbc="F F F"
Y        0.00000000       0.00000000       0.00000000       0.00000000       0.00000000    -248.99726868
Y        0.00000000       0.00000000       0.93434343       0.00000000       0.00000000     248.99726868
2
Properties=species:S:1:pos:R:3:forces:R:3 energy=42.320777576751055 pbc="F F F"
Y        0.00000000       0.00000000       0.00000000       0.00000000       0.00000000    -266.77816772
Y        0.00000000       0.00000000       0.99393939       0.00000000       0.00000000     266.77816772
2
Properties=species:S:1:pos:R:3:forces:R:3 energy=27.631468022421352 pbc="F F F"
Y        0.00000000       0.00000000       0.00000000       0.00000000       0.00000000    -211.19818115
Y        0.00000000       0.00000000       1.05353535       0.00000000       0.00000000     211.19818115
2
Properties=species:S:1:pos:R:3:forces:R:3 energy=17.477253860333434 pbc="F F F"
Y        0.00000000       0.00000000       0.00000000       0.00000000       0.00000000    -138.17961121
Y        0.00000000       0.00000000       1.11313131       0.00000000       0.00000000     138.17961121
2
Properties=species:S:1:pos:R:3:forces:R:3 energy=10.323240185263868 pbc="F F F"
Y        0.00000000       0.00000000       0.00000000       0.00000000       0.00000000    -104.40639496
Y        0.00000000       0.00000000       1.17272727       0.00000000       0.00000000     104.40639496
2
Properties=species:S:1:pos:R:3:forces:R:3 energy=5.013987683738043 pbc="F F F"
Y        0.00000000       0.00000000       0.00000000       0.00000000       0.00000000     -73.39972687
Y        0.00000000       0.00000000       1.23232323       0.00000000       0.00000000      73.39972687
2
Properties=species:S:1:pos:R:3:forces:R:3 energy=1.5329163016132312 pbc="F F F"
Y        0.00000000       0.00000000       0.00000000       0.00000000       0.00000000     -44.54789734
Y        0.00000000       0.00000000       1.29191919       0.00000000       0.00000000      44.54789734
2
Properties=species:S:1:pos:R:3:forces:R:3 energy=-0.48104188274174803 pbc="F F F"
Y        0.00000000       0.00000000       0.00000000       0.00000000       0.00000000     -24.75979805
Y        0.00000000       0.00000000       1.35151515       0.00000000       0.00000000      24.75979805
2
Properties=species:S:1:pos:R:3:forces:R:3 energy=-1.6099597538792167 pbc="F F F"
Y        0.00000000       0.00000000       0.00000000       0.00000000       0.00000000     -14.50538158
Y        0.00000000       0.00000000       1.41111111       0.00000000       0.00000000      14.50538158
2
Properties=species:S:1:pos:R:3:forces:R:3 energy=-2.3362188053602866 pbc="F F F"
Y        0.00000000       0.00000000       0.00000000       0.00000000       0.00000000     -10.59594917
Y        0.00000000       0.00000000       1.47070707       0.00000000       0.00000000      10.59594917
2
Properties=species:S:1:pos:R:3:forces:R:3 energy=-2.9247782584705093 pbc="F F F"
Y        0.00000000       0.00000000       0.00000000       0.00000000       0.00000000      -9.34451675
Y        0.00000000       0.00000000       1.53030303       0.00000000       0.00000000       9.34451675
2
Properties=species:S:1:pos:R:3:forces:R:3 energy=-3.4530541427187518 pbc="F F F"
Y        0.00000000       0.00000000       0.00000000       0.00000000       0.00000000      -8.30303097
Y        0.00000000       0.00000000       1.58989899       0.00000000       0.00000000       8.30303097
2
Properties=species:S:1:pos:R:3:forces:R:3 energy=-3.9012318274488673 pbc="F F F"
Y        0.00000000       0.00000000       0.00000000       0.00000000       0.00000000      -6.63793850
Y        0.00000000       0.00000000       1.64949495       0.00000000       0.00000000       6.63793850
2
Properties=species:S:1:pos:R:3:forces:R:3 energy=-4.23810786530432 pbc="F F F"
Y        0.00000000       0.00000000       0.00000000       0.00000000       0.00000000      -4.67047787
Y        0.00000000       0.00000000       1.70909091       0.00000000       0.00000000       4.67047787
2
Properties=species:S:1:pos:R:3:forces:R:3 energy=-4.463230250337094 pbc="F F F"
Y        0.00000000       0.00000000       0.00000000       0.00000000       0.00000000      -2.95317197
Y        0.00000000       0.00000000       1.76868687       0.00000000       0.00000000       2.95317197
2
Properties=species:S:1:pos:R:3:forces:R:3 energy=-4.5983146402399475 pbc="F F F"
Y        0.00000000       0.00000000       0.00000000       0.00000000       0.00000000      -1.64141405
Y        0.00000000       0.00000000       1.82828283       0.00000000       0.00000000       1.64141405
2
Properties=species:S:1:pos:R:3:forces:R:3 energy=-4.665696794087303 pbc="F F F"
Y        0.00000000       0.00000000       0.00000000       0.00000000       0.00000000      -0.68276924
Y        0.00000000       0.00000000       1.88787879       0.00000000       0.00000000       0.68276924
2
Properties=species:S:1:pos:R:3:forces:R:3 energy=-4.6891620369075895 pbc="F F F"
Y        0.00000000       0.00000000       0.00000000       0.00000000       0.00000000      -0.19885659
Y        0.00000000       0.00000000       1.94747475       0.00000000       0.00000000       0.19885659
2
Properties=species:S:1:pos:R:3:forces:R:3 energy=-4.700505064119128 pbc="F F F"
Y        0.00000000       0.00000000       0.00000000       0.00000000       0.00000000      -0.26099959
Y        0.00000000       0.00000000       2.00707071       0.00000000       0.00000000       0.26099959
2
Properties=species:S:1:pos:R:3:forces:R:3 energy=-4.72676072560626 pbc="F F F"
Y        0.00000000       0.00000000       0.00000000       0.00000000       0.00000000      -0.64970559
Y        0.00000000       0.00000000       2.06666667       0.00000000       0.00000000       0.64970559
2
Properties=species:S:1:pos:R:3:forces:R:3 energy=-4.779186059951315 pbc="F F F"
Y        0.00000000       0.00000000       0.00000000       0.00000000       0.00000000      -1.10612059
Y        0.00000000       0.00000000       2.12626263       0.00000000       0.00000000       1.10612059
2
Properties=species:S:1:pos:R:3:forces:R:3 energy=-4.857289316659491 pbc="F F F"
Y        0.00000000       0.00000000       0.00000000       0.00000000       0.00000000      -1.49966276
Y        0.00000000       0.00000000       2.18585859       0.00000000       0.00000000       1.49966276
2
Properties=species:S:1:pos:R:3:forces:R:3 energy=-4.955978701842609 pbc="F F F"
Y        0.00000000       0.00000000       0.00000000       0.00000000       0.00000000      -1.79601455
Y        0.00000000       0.00000000       2.24545455       0.00000000       0.00000000       1.79601455
2
Properties=species:S:1:pos:R:3:forces:R:3 energy=-5.069551517185101 pbc="F F F"
Y        0.00000000       0.00000000       0.00000000       0.00000000       0.00000000      -2.00151873
Y        0.00000000       0.00000000       2.30505051       0.00000000       0.00000000       2.00151873
2
Properties=species:S:1:pos:R:3:forces:R:3 energy=-5.193029112253812 pbc="F F F"
Y        0.00000000       0.00000000       0.00000000       0.00000000       0.00000000      -2.13056040
Y        0.00000000       0.00000000       2.36464646       0.00000000       0.00000000       2.13056040
2
Properties=species:S:1:pos:R:3:forces:R:3 energy=-5.322168010143747 pbc="F F F"
Y        0.00000000       0.00000000       0.00000000       0.00000000       0.00000000      -2.19254327
Y        0.00000000       0.00000000       2.42424242       0.00000000       0.00000000       2.19254327
2
Properties=species:S:1:pos:R:3:forces:R:3 energy=-5.453100765070733 pbc="F F F"
Y        0.00000000       0.00000000       0.00000000       0.00000000       0.00000000      -2.19094253
Y        0.00000000       0.00000000       2.48383838       0.00000000       0.00000000       2.19094253
2
Properties=species:S:1:pos:R:3:forces:R:3 energy=-5.582088401522936 pbc="F F F"
Y        0.00000000       0.00000000       0.00000000       0.00000000       0.00000000      -2.12790680
Y        0.00000000       0.00000000       2.54343434       0.00000000       0.00000000       2.12790680
2
Properties=species:S:1:pos:R:3:forces:R:3 energy=-5.705627570917062 pbc="F F F"
Y        0.00000000       0.00000000       0.00000000       0.00000000       0.00000000      -2.00973964
Y        0.00000000       0.00000000       2.60303030       0.00000000       0.00000000       2.00973964
2
Properties=species:S:1:pos:R:3:forces:R:3 energy=-5.820786257629017 pbc="F F F"
Y        0.00000000       0.00000000       0.00000000       0.00000000       0.00000000      -1.84909499
Y        0.00000000       0.00000000       2.66262626       0.00000000       0.00000000       1.84909499
2
Properties=species:S:1:pos:R:3:forces:R:3 energy=-5.925498326317646 pbc="F F F"
Y        0.00000000       0.00000000       0.00000000       0.00000000       0.00000000      -1.66183448
Y        0.00000000       0.00000000       2.72222222       0.00000000       0.00000000       1.66183448
2
Properties=species:S:1:pos:R:3:forces:R:3 energy=-6.018596971562023 pbc="F F F"
Y        0.00000000       0.00000000       0.00000000       0.00000000       0.00000000      -1.46093738
Y        0.00000000       0.00000000       2.78181818       0.00000000       0.00000000       1.46093738
2
Properties=species:S:1:pos:R:3:forces:R:3 energy=-6.099485286421882 pbc="F F F"
Y        0.00000000       0.00000000       0.00000000       0.00000000       0.00000000      -1.25249076
Y        0.00000000       0.00000000       2.84141414       0.00000000       0.00000000       1.25249076
2
Properties=species:S:1:pos:R:3:forces:R:3 energy=-6.167738350180942 pbc="F F F"
Y        0.00000000       0.00000000       0.00000000       0.00000000       0.00000000      -1.03664267
Y        0.00000000       0.00000000       2.90101010       0.00000000       0.00000000       1.03664267
2
Properties=species:S:1:pos:R:3:forces:R:3 energy=-6.222867180642907 pbc="F F F"
Y        0.00000000       0.00000000       0.00000000       0.00000000       0.00000000      -0.81195563
Y        0.00000000       0.00000000       2.96060606       0.00000000       0.00000000       0.81195563
2
Properties=species:S:1:pos:R:3:forces:R:3 energy=-6.264357425330136 pbc="F F F"
Y        0.00000000       0.00000000       0.00000000       0.00000000       0.00000000      -0.57943588
Y        0.00000000       0.00000000       3.02020202       0.00000000       0.00000000       0.57943588
2
Properties=species:S:1:pos:R:3:forces:R:3 energy=-6.291861715968626 pbc="F F F"
Y        0.00000000       0.00000000       0.00000000       0.00000000       0.00000000      -0.34345022
Y        0.00000000       0.00000000       3.07979798       0.00000000       0.00000000       0.34345022
2
Properties=species:S:1:pos:R:3:forces:R:3 energy=-6.305337778922697 pbc="F F F"
Y        0.00000000       0.00000000       0.00000000       0.00000000       0.00000000      -0.10956551
Y        0.00000000       0.00000000       3.13939394       0.00000000       0.00000000       0.10956551
2
Properties=species:S:1:pos:R:3:forces:R:3 energy=-6.305045915337733 pbc="F F F"
Y        0.00000000       0.00000000       0.00000000       0.00000000       0.00000000       0.11811478
Y        0.00000000       0.00000000       3.19898990       0.00000000       0.00000000      -0.11811478
2
Properties=species:S:1:pos:R:3:forces:R:3 energy=-6.291423987441362 pbc="F F F"
Y        0.00000000       0.00000000       0.00000000       0.00000000       0.00000000       0.33757266
Y        0.00000000       0.00000000       3.25858586       0.00000000       0.00000000      -0.33757266
2
Properties=species:S:1:pos:R:3:forces:R:3 energy=-6.265000692029883 pbc="F F F"
Y        0.00000000       0.00000000       0.00000000       0.00000000       0.00000000       0.54739153
Y        0.00000000       0.00000000       3.31818182       0.00000000       0.00000000      -0.54739153
2
Properties=species:S:1:pos:R:3:forces:R:3 energy=-6.2264106946446764 pbc="F F F"
Y        0.00000000       0.00000000       0.00000000       0.00000000       0.00000000       0.74557316
Y        0.00000000       0.00000000       3.37777778       0.00000000       0.00000000      -0.74557316
2
Properties=species:S:1:pos:R:3:forces:R:3 energy=-6.1763993177320184 pbc="F F F"
Y        0.00000000       0.00000000       0.00000000       0.00000000       0.00000000       0.93050146
Y        0.00000000       0.00000000       3.43737374       0.00000000       0.00000000      -0.93050146
2
Properties=species:S:1:pos:R:3:forces:R:3 energy=-6.115770816422083 pbc="F F F"
Y        0.00000000       0.00000000       0.00000000       0.00000000       0.00000000       1.10184157
Y        0.00000000       0.00000000       3.49696970       0.00000000       0.00000000      -1.10184157
2
Properties=species:S:1:pos:R:3:forces:R:3 energy=-6.045382100421161 pbc="F F F"
Y        0.00000000       0.00000000       0.00000000       0.00000000       0.00000000       1.25711322
Y        0.00000000       0.00000000       3.55656566       0.00000000       0.00000000      -1.25711322
2
Properties=species:S:1:pos:R:3:forces:R:3 energy=-5.966430996315438 pbc="F F F"
Y        0.00000000       0.00000000       0.00000000       0.00000000       0.00000000       1.38721681
Y        0.00000000       0.00000000       3.61616162       0.00000000       0.00000000      -1.38721681
2
Properties=species:S:1:pos:R:3:forces:R:3 energy=-5.880767633450284 pbc="F F F"
Y        0.00000000       0.00000000       0.00000000       0.00000000       0.00000000       1.48086607
Y        0.00000000       0.00000000       3.67575758       0.00000000       0.00000000      -1.48086607
2
Properties=species:S:1:pos:R:3:forces:R:3 energy=-5.7907436168400155 pbc="F F F"
Y        0.00000000       0.00000000       0.00000000       0.00000000       0.00000000       1.53355014
Y        0.00000000       0.00000000       3.73535354       0.00000000       0.00000000      -1.53355014
2
Properties=species:S:1:pos:R:3:forces:R:3 energy=-5.698732234724614 pbc="F F F"
Y        0.00000000       0.00000000       0.00000000       0.00000000       0.00000000       1.54845715
Y        0.00000000       0.00000000       3.79494949       0.00000000       0.00000000      -1.54845715
2
Properties=species:S:1:pos:R:3:forces:R:3 energy=-5.606815172286442 pbc="F F F"
Y        0.00000000       0.00000000       0.00000000       0.00000000       0.00000000       1.53130066
Y        0.00000000       0.00000000       3.85454545       0.00000000       0.00000000      -1.53130066
2
Properties=species:S:1:pos:R:3:forces:R:3 energy=-5.516751843542831 pbc="F F F"
Y        0.00000000       0.00000000       0.00000000       0.00000000       0.00000000       1.48701906
Y        0.00000000       0.00000000       3.91414141       0.00000000       0.00000000      -1.48701906
2
Properties=species:S:1:pos:R:3:forces:R:3 energy=-5.430031957867106 pbc="F F F"
Y        0.00000000       0.00000000       0.00000000       0.00000000       0.00000000       1.41969502
Y        0.00000000       0.00000000       3.97373737       0.00000000       0.00000000      -1.41969502
2
Properties=species:S:1:pos:R:3:forces:R:3 energy=-5.347907714601234 pbc="F F F"
Y        0.00000000       0.00000000       0.00000000       0.00000000       0.00000000       1.33366597
Y        0.00000000       0.00000000       4.03333333       0.00000000       0.00000000      -1.33366597
2
Properties=species:S:1:pos:R:3:forces:R:3 energy=-5.271338054711206 pbc="F F F"
Y        0.00000000       0.00000000       0.00000000       0.00000000       0.00000000       1.23419070
Y        0.00000000       0.00000000       4.09292929       0.00000000       0.00000000      -1.23419070
2
Properties=species:S:1:pos:R:3:forces:R:3 energy=-5.2009486639369165 pbc="F F F"
Y        0.00000000       0.00000000       0.00000000       0.00000000       0.00000000       1.12730575
Y        0.00000000       0.00000000       4.15252525       0.00000000       0.00000000      -1.12730575
2
Properties=species:S:1:pos:R:3:forces:R:3 energy=-5.136998018032495 pbc="F F F"
Y        0.00000000       0.00000000       0.00000000       0.00000000       0.00000000       1.01913869
Y        0.00000000       0.00000000       4.21212121       0.00000000       0.00000000      -1.01913869
2
Properties=species:S:1:pos:R:3:forces:R:3 energy=-5.079392200748546 pbc="F F F"
Y        0.00000000       0.00000000       0.00000000       0.00000000       0.00000000       0.91513300
Y        0.00000000       0.00000000       4.27171717       0.00000000       0.00000000      -0.91513300
2
Properties=species:S:1:pos:R:3:forces:R:3 energy=-5.027753609404763 pbc="F F F"
Y        0.00000000       0.00000000       0.00000000       0.00000000       0.00000000       0.81952721
Y        0.00000000       0.00000000       4.33131313       0.00000000       0.00000000      -0.81952721
2
Properties=species:S:1:pos:R:3:forces:R:3 energy=-4.981487558372779 pbc="F F F"
Y        0.00000000       0.00000000       0.00000000       0.00000000       0.00000000       0.73515499
Y        0.00000000       0.00000000       4.39090909       0.00000000       0.00000000      -0.73515499
2
Properties=species:S:1:pos:R:3:forces:R:3 energy=-4.9398735767209345 pbc="F F F"
Y        0.00000000       0.00000000       0.00000000       0.00000000       0.00000000       0.66355997
Y        0.00000000       0.00000000       4.45050505       0.00000000       0.00000000      -0.66355997
2
Properties=species:S:1:pos:R:3:forces:R:3 energy=-4.902132813315981 pbc="F F F"
Y        0.00000000       0.00000000       0.00000000       0.00000000       0.00000000       0.60521209
Y        0.00000000       0.00000000       4.51010101       0.00000000       0.00000000      -0.60521209
2
Properties=species:S:1:pos:R:3:forces:R:3 energy=-4.867481246179822 pbc="F F F"
Y        0.00000000       0.00000000       0.00000000       0.00000000       0.00000000       0.55972844
Y        0.00000000       0.00000000       4.56969697       0.00000000       0.00000000      -0.55972844
2
Properties=species:S:1:pos:R:3:forces:R:3 energy=-4.835181510356109 pbc="F F F"
Y        0.00000000       0.00000000       0.00000000       0.00000000       0.00000000       0.52609193
Y        0.00000000       0.00000000       4.62929293       0.00000000       0.00000000      -0.52609193
2
Properties=species:S:1:pos:R:3:forces:R:3 energy=-4.804569912901502 pbc="F F F"
Y        0.00000000       0.00000000       0.00000000       0.00000000       0.00000000       0.50280571
Y        0.00000000       0.00000000       4.68888889       0.00000000       0.00000000      -0.50280571
2
Properties=species:S:1:pos:R:3:forces:R:3 energy=-4.775081342459497 pbc="F F F"
Y        0.00000000       0.00000000       0.00000000       0.00000000       0.00000000       0.48805577
Y        0.00000000       0.00000000       4.74848485       0.00000000       0.00000000      -0.48805577
2
Properties=species:S:1:pos:R:3:forces:R:3 energy=-4.746267218010039 pbc="F F F"
Y        0.00000000       0.00000000       0.00000000       0.00000000       0.00000000       0.47987372
Y        0.00000000       0.00000000       4.80808081       0.00000000       0.00000000      -0.47987372
2
Properties=species:S:1:pos:R:3:forces:R:3 energy=-4.717793714569421 pbc="F F F"
Y        0.00000000       0.00000000       0.00000000       0.00000000       0.00000000       0.47624758
Y        0.00000000       0.00000000       4.86767677       0.00000000       0.00000000      -0.47624758
2
Properties=species:S:1:pos:R:3:forces:R:3 energy=-4.689451211234426 pbc="F F F"
Y        0.00000000       0.00000000       0.00000000       0.00000000       0.00000000       0.47515720
Y        0.00000000       0.00000000       4.92727273       0.00000000       0.00000000      -0.47515720
2
Properties=species:S:1:pos:R:3:forces:R:3 energy=-4.6611478832230135 pbc="F F F"
Y        0.00000000       0.00000000       0.00000000       0.00000000       0.00000000       0.47459245
Y        0.00000000       0.00000000       4.98686869       0.00000000       0.00000000      -0.47459245
2
Properties=species:S:1:pos:R:3:forces:R:3 energy=-4.632916027470254 pbc="F F F"
Y        0.00000000       0.00000000       0.00000000       0.00000000       0.00000000       0.47254369
Y        0.00000000       0.00000000       5.04646465       0.00000000       0.00000000      -0.47254369
2
Properties=species:S:1:pos:R:3:forces:R:3 energy=-4.604893657712333 pbc="F F F"
Y        0.00000000       0.00000000       0.00000000       0.00000000       0.00000000       0.46711278
Y        0.00000000       0.00000000       5.10606061       0.00000000       0.00000000      -0.46711278
2
Properties=species:S:1:pos:R:3:forces:R:3 energy=-4.577335948578341 pbc="F F F"
Y        0.00000000       0.00000000       0.00000000       0.00000000       0.00000000       0.45662946
Y        0.00000000       0.00000000       5.16565657       0.00000000       0.00000000      -0.45662946
2
Properties=species:S:1:pos:R:3:forces:R:3 energy=-4.550589410356 pbc="F F F"
Y        0.00000000       0.00000000       0.00000000       0.00000000       0.00000000       0.43989375
Y        0.00000000       0.00000000       5.22525253       0.00000000       0.00000000      -0.43989375
2
Properties=species:S:1:pos:R:3:forces:R:3 energy=-4.525041917788559 pbc="F F F"
Y        0.00000000       0.00000000       0.00000000       0.00000000       0.00000000       0.41635042
Y        0.00000000       0.00000000       5.28484848       0.00000000       0.00000000      -0.41635042
2
Properties=species:S:1:pos:R:3:forces:R:3 energy=-4.50109622260583 pbc="F F F"
Y        0.00000000       0.00000000       0.00000000       0.00000000       0.00000000       0.38616148
Y        0.00000000       0.00000000       5.34444444       0.00000000       0.00000000      -0.38616148
2
Properties=species:S:1:pos:R:3:forces:R:3 energy=-4.479128259615172 pbc="F F F"
Y        0.00000000       0.00000000       0.00000000       0.00000000       0.00000000       0.35018522
Y        0.00000000       0.00000000       5.40404040       0.00000000       0.00000000      -0.35018522
2
Properties=species:S:1:pos:R:3:forces:R:3 energy=-4.4594391842173176 pbc="F F F"
Y        0.00000000       0.00000000       0.00000000       0.00000000       0.00000000       0.30984810
Y        0.00000000       0.00000000       5.46363636       0.00000000       0.00000000      -0.30984810
2
Properties=species:S:1:pos:R:3:forces:R:3 energy=-4.4422530452413795 pbc="F F F"
Y        0.00000000       0.00000000       0.00000000       0.00000000       0.00000000       0.26688704
Y        0.00000000       0.00000000       5.52323232       0.00000000       0.00000000      -0.26688704
2
Properties=species:S:1:pos:R:3:forces:R:3 energy=-4.427648025359407 pbc="F F F"
Y        0.00000000       0.00000000       0.00000000       0.00000000       0.00000000       0.22322351
Y        0.00000000       0.00000000       5.58282828       0.00000000       0.00000000      -0.22322351
2
Properties=species:S:1:pos:R:3:forces:R:3 energy=-4.415623516734584 pbc="F F F"
Y        0.00000000       0.00000000       0.00000000       0.00000000       0.00000000       0.18071705
Y        0.00000000       0.00000000       5.64242424       0.00000000       0.00000000      -0.18071705
2
Properties=species:S:1:pos:R:3:forces:R:3 energy=-4.406047719618985 pbc="F F F"
Y        0.00000000       0.00000000       0.00000000       0.00000000       0.00000000       0.14107545
Y        0.00000000       0.00000000       5.70202020       0.00000000       0.00000000      -0.14107545
2
Properties=species:S:1:pos:R:3:forces:R:3 energy=-4.398721926670904 pbc="F F F"
Y        0.00000000       0.00000000       0.00000000       0.00000000       0.00000000       0.10585061
Y        0.00000000       0.00000000       5.76161616       0.00000000       0.00000000      -0.10585061
2
Properties=species:S:1:pos:R:3:forces:R:3 energy=-4.393319894943683 pbc="F F F"
Y        0.00000000       0.00000000       0.00000000       0.00000000       0.00000000       0.07638878
Y        0.00000000       0.00000000       5.82121212       0.00000000       0.00000000      -0.07638878
2
Properties=species:S:1:pos:R:3:forces:R:3 energy=-4.389482348342054 pbc="F F F"
Y        0.00000000       0.00000000       0.00000000       0.00000000       0.00000000       0.05384546
Y        0.00000000       0.00000000       5.88080808       0.00000000       0.00000000      -0.05384546
2
Properties=species:S:1:pos:R:3:forces:R:3 energy=-4.386742489655149 pbc="F F F"
Y        0.00000000       0.00000000       0.00000000       0.00000000       0.00000000       0.03923872
Y        0.00000000       0.00000000       5.94040404       0.00000000       0.00000000      -0.03923872
2
Properties=species:S:1:pos:R:3:forces:R:3 energy=-4.384625760892877 pbc="F F F"
Y        0.00000000       0.00000000       0.00000000       0.00000000       0.00000000       0.03343363
Y        0.00000000       0.00000000       6.00000000       0.00000000       0.00000000      -0.03343363
