2
Properties=species:S:1:pos:R:3:forces:R:3 energy=39610.54800335365 pbc="F F F"
Cd       0.00000000       0.00000000       0.00000000       0.00000000       0.00000000 -950924.18750000
Cd       0.00000000       0.00000000       0.10000000       0.00000000       0.00000000  950924.18750000
2
Properties=species:S:1:pos:R:3:forces:R:3 energy=11623.387847103648 pbc="F F F"
Cd       0.00000000       0.00000000       0.00000000       0.00000000       0.00000000 -208011.29687500
Cd       0.00000000       0.00000000       0.15959596       0.00000000       0.00000000  208011.29687500
2
Properties=species:S:1:pos:R:3:forces:R:3 energy=4436.831206478649 pbc="F F F"
Cd       0.00000000       0.00000000       0.00000000       0.00000000       0.00000000  -65322.87109375
Cd       0.00000000       0.00000000       0.21919192       0.00000000       0.00000000   65322.87109375
2
Properties=species:S:1:pos:R:3:forces:R:3 energy=1962.4717094115038 pbc="F F F"
Cd       0.00000000       0.00000000       0.00000000       0.00000000       0.00000000  -25084.75195312
Cd       0.00000000       0.00000000       0.27878788       0.00000000       0.00000000   25084.75195312
2
Properties=species:S:1:pos:R:3:forces:R:3 energy=957.3874198638904 pbc="F F F"
Cd       0.00000000       0.00000000       0.00000000       0.00000000       0.00000000  -10869.93164062
Cd       0.00000000       0.00000000       0.33838384       0.00000000       0.00000000   10869.93164062
2
Properties=species:S:1:pos:R:3:forces:R:3 energy=505.5490409639761 pbc="F F F"
Cd       0.00000000       0.00000000       0.00000000       0.00000000       0.00000000   -5097.72412109
Cd       0.00000000       0.00000000       0.39797980       0.00000000       0.00000000    5097.72412109
2
Properties=species:S:1:pos:R:3:forces:R:3 energy=287.9851066504755 pbc="F F F"
Cd       0.00000000       0.00000000       0.00000000       0.00000000       0.00000000   -2530.54882812
Cd       0.00000000       0.00000000       0.45757576       0.00000000       0.00000000    2530.54882812
2
Properties=species:S:1:pos:R:3:forces:R:3 energy=177.80738755960712 pbc="F F F"
Cd       0.00000000       0.00000000       0.00000000       0.00000000       0.00000000   -1310.84179688
Cd       0.00000000       0.00000000       0.51717172       0.00000000       0.00000000    1310.84179688
2
Properties=species:S:1:pos:R:3:forces:R:3 energy=119.909980078554 pbc="F F F"
Cd       0.00000000       0.00000000       0.00000000       0.00000000       0.00000000    -699.44677734
Cd       0.00000000       0.00000000       0.57676768       0.00000000       0.00000000     699.44677734
2
Properties=species:S:1:pos:R:3:forces:R:3 energy=88.75949798001518 pbc="F F F"
Cd       0.00000000       0.00000000       0.00000000       0.00000000       0.00000000    -379.20816040
Cd       0.00000000       0.00000000       0.63636364       0.00000000       0.00000000     379.20816040
2
Properties=species:S:1:pos:R:3:forces:R:3 energy=71.84438274711493 pbc="F F F"
Cd       0.00000000       0.00000000       0.00000000       0.00000000       0.00000000    -205.51724243
Cd       0.00000000       0.00000000       0.69595960       0.00000000       0.00000000     205.51724243
2
Properties=species:S:1:pos:R:3:forces:R:3 energy=62.78196305216248 pbc="F F F"
Cd       0.00000000       0.00000000       0.00000000       0.00000000       0.00000000    -107.58217621
Cd       0.00000000       0.00000000       0.75555556       0.00000000       0.00000000     107.58217621
2
Properties=species:S:1:pos:R:3:forces:R:3 energy=58.2051048230943 pbc="F F F"
Cd       0.00000000       0.00000000       0.00000000       0.00000000       0.00000000     -51.36211395
Cd       0.00000000       0.00000000       0.81515152       0.00000000       0.00000000      51.36211395
2
Properties=species:S:1:pos:R:3:forces:R:3 energy=56.13220637650073 pbc="F F F"
Cd       0.00000000       0.00000000       0.00000000       0.00000000       0.00000000     -21.93438339
Cd       0.00000000       0.00000000       0.87474747       0.00000000       0.00000000      21.93438339
2
Properties=species:S:1:pos:R:3:forces:R:3 energy=55.211739595342316 pbc="F F F"
Cd       0.00000000       0.00000000       0.00000000       0.00000000       0.00000000     -11.57462978
Cd       0.00000000       0.00000000       0.93434343       0.00000000       0.00000000      11.57462978
2
Properties=species:S:1:pos:R:3:forces:R:3 energy=54.51503936917138 pbc="F F F"
Cd       0.00000000       0.00000000       0.00000000       0.00000000       0.00000000     -13.16411686
Cd       0.00000000       0.00000000       0.99393939       0.00000000       0.00000000      13.16411686
2
Properties=species:S:1:pos:R:3:forces:R:3 energy=53.538966268662605 pbc="F F F"
Cd       0.00000000       0.00000000       0.00000000       0.00000000       0.00000000     -20.15600967
Cd       0.00000000       0.00000000       1.05353535       0.00000000       0.00000000      20.15600967
2
Properties=species:S:1:pos:R:3:forces:R:3 energy=52.05261674752324 pbc="F F F"
Cd       0.00000000       0.00000000       0.00000000       0.00000000       0.00000000     -30.23693657
Cd       0.00000000       0.00000000       1.11313131       0.00000000       0.00000000      30.23693657
2
Properties=species:S:1:pos:R:3:forces:R:3 energy=49.87694046473479 pbc="F F F"
Cd       0.00000000       0.00000000       0.00000000       0.00000000       0.00000000     -43.24781418
Cd       0.00000000       0.00000000       1.17272727       0.00000000       0.00000000      43.24781418
2
Properties=species:S:1:pos:R:3:forces:R:3 energy=46.83197536980008 pbc="F F F"
Cd       0.00000000       0.00000000       0.00000000       0.00000000       0.00000000     -59.50709534
Cd       0.00000000       0.00000000       1.23232323       0.00000000       0.00000000      59.50709534
2
Properties=species:S:1:pos:R:3:forces:R:3 energy=42.764237263956495 pbc="F F F"
Cd       0.00000000       0.00000000       0.00000000       0.00000000       0.00000000     -76.49462891
Cd       0.00000000       0.00000000       1.29191919       0.00000000       0.00000000      76.49462891
2
Properties=species:S:1:pos:R:3:forces:R:3 energy=37.854180553409904 pbc="F F F"
Cd       0.00000000       0.00000000       0.00000000       0.00000000       0.00000000     -86.70256042
Cd       0.00000000       0.00000000       1.35151515       0.00000000       0.00000000      86.70256042
2
Properties=species:S:1:pos:R:3:forces:R:3 energy=32.61945221778041 pbc="F F F"
Cd       0.00000000       0.00000000       0.00000000       0.00000000       0.00000000     -87.54274750
Cd       0.00000000       0.00000000       1.41111111       0.00000000       0.00000000      87.54274750
2
Properties=species:S:1:pos:R:3:forces:R:3 energy=27.55760916838476 pbc="F F F"
Cd       0.00000000       0.00000000       0.00000000       0.00000000       0.00000000     -81.45896912
Cd       0.00000000       0.00000000       1.47070707       0.00000000       0.00000000      81.45896912
2
Properties=species:S:1:pos:R:3:forces:R:3 energy=22.982044288305406 pbc="F F F"
Cd       0.00000000       0.00000000       0.00000000       0.00000000       0.00000000     -71.73577881
Cd       0.00000000       0.00000000       1.53030303       0.00000000       0.00000000      71.73577881
2
Properties=species:S:1:pos:R:3:forces:R:3 energy=19.026476353246935 pbc="F F F"
Cd       0.00000000       0.00000000       0.00000000       0.00000000       0.00000000     -61.00818253
Cd       0.00000000       0.00000000       1.58989899       0.00000000       0.00000000      61.00818253
2
Properties=species:S:1:pos:R:3:forces:R:3 energy=15.697877045580128 pbc="F F F"
Cd       0.00000000       0.00000000       0.00000000       0.00000000       0.00000000     -50.87957764
Cd       0.00000000       0.00000000       1.64949495       0.00000000       0.00000000      50.87957764
2
Properties=species:S:1:pos:R:3:forces:R:3 energy=12.934677490394773 pbc="F F F"
Cd       0.00000000       0.00000000       0.00000000       0.00000000       0.00000000     -42.11547470
Cd       0.00000000       0.00000000       1.70909091       0.00000000       0.00000000      42.11547470
2
Properties=species:S:1:pos:R:3:forces:R:3 energy=10.644769445866192 pbc="F F F"
Cd       0.00000000       0.00000000       0.00000000       0.00000000       0.00000000     -35.01351166
Cd       0.00000000       0.00000000       1.76868687       0.00000000       0.00000000      35.01351166
2
Properties=species:S:1:pos:R:3:forces:R:3 energy=8.729930508903943 pbc="F F F"
Cd       0.00000000       0.00000000       0.00000000       0.00000000       0.00000000     -29.48171043
Cd       0.00000000       0.00000000       1.82828283       0.00000000       0.00000000      29.48171043
2
Properties=species:S:1:pos:R:3:forces:R:3 energy=7.107556174545366 pbc="F F F"
Cd       0.00000000       0.00000000       0.00000000       0.00000000       0.00000000     -25.11839485
Cd       0.00000000       0.00000000       1.88787879       0.00000000       0.00000000      25.11839485
2
Properties=species:S:1:pos:R:3:forces:R:3 energy=5.721938363888252 pbc="F F F"
Cd       0.00000000       0.00000000       0.00000000       0.00000000       0.00000000     -21.46941948
Cd       0.00000000       0.00000000       1.94747475       0.00000000       0.00000000      21.46941948
2
Properties=species:S:1:pos:R:3:forces:R:3 energy=4.540582611145243 pbc="F F F"
Cd       0.00000000       0.00000000       0.00000000       0.00000000       0.00000000     -18.22915459
Cd       0.00000000       0.00000000       2.00707071       0.00000000       0.00000000      18.22915459
2
Properties=species:S:1:pos:R:3:forces:R:3 energy=3.5436532993215057 pbc="F F F"
Cd       0.00000000       0.00000000       0.00000000       0.00000000       0.00000000     -15.27055931
Cd       0.00000000       0.00000000       2.06666667       0.00000000       0.00000000      15.27055931
2
Properties=species:S:1:pos:R:3:forces:R:3 energy=2.7151909566527275 pbc="F F F"
Cd       0.00000000       0.00000000       0.00000000       0.00000000       0.00000000     -12.57818031
Cd       0.00000000       0.00000000       2.12626263       0.00000000       0.00000000      12.57818031
2
Properties=species:S:1:pos:R:3:forces:R:3 energy=2.038612492558728 pbc="F F F"
Cd       0.00000000       0.00000000       0.00000000       0.00000000       0.00000000     -10.17892265
Cd       0.00000000       0.00000000       2.18585859       0.00000000       0.00000000      10.17892265
2
Properties=species:S:1:pos:R:3:forces:R:3 energy=1.4955530617163424 pbc="F F F"
Cd       0.00000000       0.00000000       0.00000000       0.00000000       0.00000000      -8.10068703
Cd       0.00000000       0.00000000       2.24545455       0.00000000       0.00000000       8.10068703
2
Properties=species:S:1:pos:R:3:forces:R:3 energy=1.0665035519821964 pbc="F F F"
Cd       0.00000000       0.00000000       0.00000000       0.00000000       0.00000000      -6.35232019
Cd       0.00000000       0.00000000       2.30505051       0.00000000       0.00000000       6.35232019
2
Properties=species:S:1:pos:R:3:forces:R:3 energy=0.7321331139135193 pbc="F F F"
Cd       0.00000000       0.00000000       0.00000000       0.00000000       0.00000000      -4.91922283
Cd       0.00000000       0.00000000       2.36464646       0.00000000       0.00000000       4.91922283
2
Properties=species:S:1:pos:R:3:forces:R:3 energy=0.4745382650300406 pbc="F F F"
Cd       0.00000000       0.00000000       0.00000000       0.00000000       0.00000000      -3.76948285
Cd       0.00000000       0.00000000       2.42424242       0.00000000       0.00000000       3.76948285
2
Properties=species:S:1:pos:R:3:forces:R:3 energy=0.27799521098834057 pbc="F F F"
Cd       0.00000000       0.00000000       0.00000000       0.00000000       0.00000000      -2.86372161
Cd       0.00000000       0.00000000       2.48383838       0.00000000       0.00000000       2.86372161
2
Properties=species:S:1:pos:R:3:forces:R:3 energy=0.1291418689668935 pbc="F F F"
Cd       0.00000000       0.00000000       0.00000000       0.00000000       0.00000000      -2.16272330
Cd       0.00000000       0.00000000       2.54343434       0.00000000       0.00000000       2.16272330
2
Properties=species:S:1:pos:R:3:forces:R:3 energy=0.016853862541727 pbc="F F F"
Cd       0.00000000       0.00000000       0.00000000       0.00000000       0.00000000      -1.63113570
Cd       0.00000000       0.00000000       2.60303030       0.00000000       0.00000000       1.63113570
2
Properties=species:S:1:pos:R:3:forces:R:3 energy=-0.0680200083434762 pbc="F F F"
Cd       0.00000000       0.00000000       0.00000000       0.00000000       0.00000000      -1.23778474
Cd       0.00000000       0.00000000       2.66262626       0.00000000       0.00000000       1.23778474
2
Properties=species:S:1:pos:R:3:forces:R:3 energy=-0.13287371952056803 pbc="F F F"
Cd       0.00000000       0.00000000       0.00000000       0.00000000       0.00000000      -0.95489526
Cd       0.00000000       0.00000000       2.72222222       0.00000000       0.00000000       0.95489526
2
Properties=species:S:1:pos:R:3:forces:R:3 energy=-0.18352362110688988 pbc="F F F"
Cd       0.00000000       0.00000000       0.00000000       0.00000000       0.00000000      -0.75697988
Cd       0.00000000       0.00000000       2.78181818       0.00000000       0.00000000       0.75697988
2
Properties=species:S:1:pos:R:3:forces:R:3 energy=-0.22430239381976938 pbc="F F F"
Cd       0.00000000       0.00000000       0.00000000       0.00000000       0.00000000      -0.61960697
Cd       0.00000000       0.00000000       2.84141414       0.00000000       0.00000000       0.61960697
2
Properties=species:S:1:pos:R:3:forces:R:3 energy=-0.2581032093256606 pbc="F F F"
Cd       0.00000000       0.00000000       0.00000000       0.00000000       0.00000000      -0.51900750
Cd       0.00000000       0.00000000       2.90101010       0.00000000       0.00000000       0.51900750
2
Properties=species:S:1:pos:R:3:forces:R:3 energy=-0.286503344498419 pbc="F F F"
Cd       0.00000000       0.00000000       0.00000000       0.00000000       0.00000000      -0.43588847
Cd       0.00000000       0.00000000       2.96060606       0.00000000       0.00000000       0.43588847
2
Properties=species:S:1:pos:R:3:forces:R:3 energy=-0.31022349878826355 pbc="F F F"
Cd       0.00000000       0.00000000       0.00000000       0.00000000       0.00000000      -0.36141732
Cd       0.00000000       0.00000000       3.02020202       0.00000000       0.00000000       0.36141732
2
Properties=species:S:1:pos:R:3:forces:R:3 energy=-0.3297369494018695 pbc="F F F"
Cd       0.00000000       0.00000000       0.00000000       0.00000000       0.00000000      -0.29474702
Cd       0.00000000       0.00000000       3.07979798       0.00000000       0.00000000       0.29474702
2
Properties=species:S:1:pos:R:3:forces:R:3 energy=-0.34549169320348216 pbc="F F F"
Cd       0.00000000       0.00000000       0.00000000       0.00000000       0.00000000      -0.23490539
Cd       0.00000000       0.00000000       3.13939394       0.00000000       0.00000000       0.23490539
2
Properties=species:S:1:pos:R:3:forces:R:3 energy=-0.35782436073477936 pbc="F F F"
Cd       0.00000000       0.00000000       0.00000000       0.00000000       0.00000000      -0.17957442
Cd       0.00000000       0.00000000       3.19898990       0.00000000       0.00000000       0.17957442
2
Properties=species:S:1:pos:R:3:forces:R:3 energy=-0.3669655112556048 pbc="F F F"
Cd       0.00000000       0.00000000       0.00000000       0.00000000       0.00000000      -0.12784322
Cd       0.00000000       0.00000000       3.25858586       0.00000000       0.00000000       0.12784322
2
Properties=species:S:1:pos:R:3:forces:R:3 energy=-0.3731555135464866 pbc="F F F"
Cd       0.00000000       0.00000000       0.00000000       0.00000000       0.00000000      -0.08084089
Cd       0.00000000       0.00000000       3.31818182       0.00000000       0.00000000       0.08084089
2
Properties=species:S:1:pos:R:3:forces:R:3 energy=-0.37673687095920333 pbc="F F F"
Cd       0.00000000       0.00000000       0.00000000       0.00000000       0.00000000      -0.04066542
Cd       0.00000000       0.00000000       3.37777778       0.00000000       0.00000000       0.04066542
2
Properties=species:S:1:pos:R:3:forces:R:3 energy=-0.3781764330471922 pbc="F F F"
Cd       0.00000000       0.00000000       0.00000000       0.00000000       0.00000000      -0.00921935
Cd       0.00000000       0.00000000       3.43737374       0.00000000       0.00000000       0.00921935
2
Properties=species:S:1:pos:R:3:forces:R:3 energy=-0.37802917883414094 pbc="F F F"
Cd       0.00000000       0.00000000       0.00000000       0.00000000       0.00000000       0.01254152
Cd       0.00000000       0.00000000       3.49696970       0.00000000       0.00000000      -0.01254152
2
Properties=species:S:1:pos:R:3:forces:R:3 energy=-0.3768688614627055 pbc="F F F"
Cd       0.00000000       0.00000000       0.00000000       0.00000000       0.00000000       0.02492028
Cd       0.00000000       0.00000000       3.55656566       0.00000000       0.00000000      -0.02492028
2
Properties=species:S:1:pos:R:3:forces:R:3 energy=-0.3752168472204813 pbc="F F F"
Cd       0.00000000       0.00000000       0.00000000       0.00000000       0.00000000       0.02937174
Cd       0.00000000       0.00000000       3.61616162       0.00000000       0.00000000      -0.02937174
2
Properties=species:S:1:pos:R:3:forces:R:3 energy=-0.37348199508831537 pbc="F F F"
Cd       0.00000000       0.00000000       0.00000000       0.00000000       0.00000000       0.02809715
Cd       0.00000000       0.00000000       3.67575758       0.00000000       0.00000000      -0.02809715
2
Properties=species:S:1:pos:R:3:forces:R:3 energy=-0.37193350857653873 pbc="F F F"
Cd       0.00000000       0.00000000       0.00000000       0.00000000       0.00000000       0.02350973
Cd       0.00000000       0.00000000       3.73535354       0.00000000       0.00000000      -0.02350973
2
Properties=species:S:1:pos:R:3:forces:R:3 energy=-0.3707023528572059 pbc="F F F"
Cd       0.00000000       0.00000000       0.00000000       0.00000000       0.00000000       0.01776805
Cd       0.00000000       0.00000000       3.79494949       0.00000000       0.00000000      -0.01776805
2
Properties=species:S:1:pos:R:3:forces:R:3 energy=-0.36980627216784234 pbc="F F F"
Cd       0.00000000       0.00000000       0.00000000       0.00000000       0.00000000       0.01247653
Cd       0.00000000       0.00000000       3.85454545       0.00000000       0.00000000      -0.01247653
2
Properties=species:S:1:pos:R:3:forces:R:3 energy=-0.36918696410285196 pbc="F F F"
Cd       0.00000000       0.00000000       0.00000000       0.00000000       0.00000000       0.00858917
Cd       0.00000000       0.00000000       3.91414141       0.00000000       0.00000000      -0.00858917
2
Properties=species:S:1:pos:R:3:forces:R:3 energy=-0.3687472634083898 pbc="F F F"
Cd       0.00000000       0.00000000       0.00000000       0.00000000       0.00000000       0.00646390
Cd       0.00000000       0.00000000       3.97373737       0.00000000       0.00000000      -0.00646390
2
Properties=species:S:1:pos:R:3:forces:R:3 energy=-0.36838288779135 pbc="F F F"
Cd       0.00000000       0.00000000       0.00000000       0.00000000       0.00000000       0.00602135
Cd       0.00000000       0.00000000       4.03333333       0.00000000       0.00000000      -0.00602135
2
Properties=species:S:1:pos:R:3:forces:R:3 energy=-0.3680027270892377 pbc="F F F"
Cd       0.00000000       0.00000000       0.00000000       0.00000000       0.00000000       0.00692444
Cd       0.00000000       0.00000000       4.09292929       0.00000000       0.00000000      -0.00692444
2
Properties=species:S:1:pos:R:3:forces:R:3 energy=-0.36753937803716036 pbc="F F F"
Cd       0.00000000       0.00000000       0.00000000       0.00000000       0.00000000       0.00874747
Cd       0.00000000       0.00000000       4.15252525       0.00000000       0.00000000      -0.00874747
2
Properties=species:S:1:pos:R:3:forces:R:3 energy=-0.36694976202902496 pbc="F F F"
Cd       0.00000000       0.00000000       0.00000000       0.00000000       0.00000000       0.01109312
Cd       0.00000000       0.00000000       4.21212121       0.00000000       0.00000000      -0.01109312
2
Properties=species:S:1:pos:R:3:forces:R:3 energy=-0.3662128964029745 pbc="F F F"
Cd       0.00000000       0.00000000       0.00000000       0.00000000       0.00000000       0.01365020
Cd       0.00000000       0.00000000       4.27171717       0.00000000       0.00000000      -0.01365020
2
Properties=species:S:1:pos:R:3:forces:R:3 energy=-0.36532303615544043 pbc="F F F"
Cd       0.00000000       0.00000000       0.00000000       0.00000000       0.00000000       0.01620210
Cd       0.00000000       0.00000000       4.33131313       0.00000000       0.00000000      -0.01620210
2
Properties=species:S:1:pos:R:3:forces:R:3 energy=-0.3642848645118438 pbc="F F F"
Cd       0.00000000       0.00000000       0.00000000       0.00000000       0.00000000       0.01859978
Cd       0.00000000       0.00000000       4.39090909       0.00000000       0.00000000      -0.01859978
2
Properties=species:S:1:pos:R:3:forces:R:3 energy=-0.3631114150995425 pbc="F F F"
Cd       0.00000000       0.00000000       0.00000000       0.00000000       0.00000000       0.02072353
Cd       0.00000000       0.00000000       4.45050505       0.00000000       0.00000000      -0.02072353
2
Properties=species:S:1:pos:R:3:forces:R:3 energy=-0.36182255532118257 pbc="F F F"
Cd       0.00000000       0.00000000       0.00000000       0.00000000       0.00000000       0.02245470
Cd       0.00000000       0.00000000       4.51010101       0.00000000       0.00000000      -0.02245470
2
Properties=species:S:1:pos:R:3:forces:R:3 energy=-0.3604454677755727 pbc="F F F"
Cd       0.00000000       0.00000000       0.00000000       0.00000000       0.00000000       0.02366470
Cd       0.00000000       0.00000000       4.56969697       0.00000000       0.00000000      -0.02366470
2
Properties=species:S:1:pos:R:3:forces:R:3 energy=-0.3590148760049745 pbc="F F F"
Cd       0.00000000       0.00000000       0.00000000       0.00000000       0.00000000       0.02422538
Cd       0.00000000       0.00000000       4.62929293       0.00000000       0.00000000      -0.02422538
2
Properties=species:S:1:pos:R:3:forces:R:3 energy=-0.35757300531328495 pbc="F F F"
Cd       0.00000000       0.00000000       0.00000000       0.00000000       0.00000000       0.02403440
Cd       0.00000000       0.00000000       4.68888889       0.00000000       0.00000000      -0.02403440
2
Properties=species:S:1:pos:R:3:forces:R:3 energy=-0.35616607055173966 pbc="F F F"
Cd       0.00000000       0.00000000       0.00000000       0.00000000       0.00000000       0.02304578
Cd       0.00000000       0.00000000       4.74848485       0.00000000       0.00000000      -0.02304578
2
Properties=species:S:1:pos:R:3:forces:R:3 energy=-0.354841271252044 pbc="F F F"
Cd       0.00000000       0.00000000       0.00000000       0.00000000       0.00000000       0.02129766
Cd       0.00000000       0.00000000       4.80808081       0.00000000       0.00000000      -0.02129766
2
Properties=species:S:1:pos:R:3:forces:R:3 energy=-0.35363996301877715 pbc="F F F"
Cd       0.00000000       0.00000000       0.00000000       0.00000000       0.00000000       0.01892884
Cd       0.00000000       0.00000000       4.86767677       0.00000000       0.00000000      -0.01892884
2
Properties=species:S:1:pos:R:3:forces:R:3 energy=-0.3525927471897894 pbc="F F F"
Cd       0.00000000       0.00000000       0.00000000       0.00000000       0.00000000       0.01617638
Cd       0.00000000       0.00000000       4.92727273       0.00000000       0.00000000      -0.01617638
2
Properties=species:S:1:pos:R:3:forces:R:3 energy=-0.35171354204994615 pbc="F F F"
Cd       0.00000000       0.00000000       0.00000000       0.00000000       0.00000000       0.01334228
Cd       0.00000000       0.00000000       4.98686869       0.00000000       0.00000000      -0.01334228
2
Properties=species:S:1:pos:R:3:forces:R:3 energy=-0.3509981592392737 pbc="F F F"
Cd       0.00000000       0.00000000       0.00000000       0.00000000       0.00000000       0.01071876
Cd       0.00000000       0.00000000       5.04646465       0.00000000       0.00000000      -0.01071876
2
Properties=species:S:1:pos:R:3:forces:R:3 energy=-0.350428168259415 pbc="F F F"
Cd       0.00000000       0.00000000       0.00000000       0.00000000       0.00000000       0.00847611
Cd       0.00000000       0.00000000       5.10606061       0.00000000       0.00000000      -0.00847611
2
Properties=species:S:1:pos:R:3:forces:R:3 energy=-0.34998080626781414 pbc="F F F"
Cd       0.00000000       0.00000000       0.00000000       0.00000000       0.00000000       0.00658429
Cd       0.00000000       0.00000000       5.16565657       0.00000000       0.00000000      -0.00658429
2
Properties=species:S:1:pos:R:3:forces:R:3 energy=-0.34963939809516276 pbc="F F F"
Cd       0.00000000       0.00000000       0.00000000       0.00000000       0.00000000       0.00490184
Cd       0.00000000       0.00000000       5.22525253       0.00000000       0.00000000      -0.00490184
2
Properties=species:S:1:pos:R:3:forces:R:3 energy=-0.3493915385957222 pbc="F F F"
Cd       0.00000000       0.00000000       0.00000000       0.00000000       0.00000000       0.00348455
Cd       0.00000000       0.00000000       5.28484848       0.00000000       0.00000000      -0.00348455
2
Properties=species:S:1:pos:R:3:forces:R:3 energy=-0.3492108154881855 pbc="F F F"
Cd       0.00000000       0.00000000       0.00000000       0.00000000       0.00000000       0.00273160
Cd       0.00000000       0.00000000       5.34444444       0.00000000       0.00000000      -0.00273160
2
Properties=species:S:1:pos:R:3:forces:R:3 energy=-0.34904662804879844 pbc="F F F"
Cd       0.00000000       0.00000000       0.00000000       0.00000000       0.00000000       0.00293194
Cd       0.00000000       0.00000000       5.40404040       0.00000000       0.00000000      -0.00293194
2
Properties=species:S:1:pos:R:3:forces:R:3 energy=-0.34884786974624415 pbc="F F F"
Cd       0.00000000       0.00000000       0.00000000       0.00000000       0.00000000       0.00380832
Cd       0.00000000       0.00000000       5.46363636       0.00000000       0.00000000      -0.00380832
2
Properties=species:S:1:pos:R:3:forces:R:3 energy=-0.3485902258770272 pbc="F F F"
Cd       0.00000000       0.00000000       0.00000000       0.00000000       0.00000000       0.00481276
Cd       0.00000000       0.00000000       5.52323232       0.00000000       0.00000000      -0.00481276
2
Properties=species:S:1:pos:R:3:forces:R:3 energy=-0.34827735386304476 pbc="F F F"
Cd       0.00000000       0.00000000       0.00000000       0.00000000       0.00000000       0.00566520
Cd       0.00000000       0.00000000       5.58282828       0.00000000       0.00000000      -0.00566520
2
Properties=species:S:1:pos:R:3:forces:R:3 energy=-0.3479159574226927 pbc="F F F"
Cd       0.00000000       0.00000000       0.00000000       0.00000000       0.00000000       0.00647296
Cd       0.00000000       0.00000000       5.64242424       0.00000000       0.00000000      -0.00647296
2
Properties=species:S:1:pos:R:3:forces:R:3 energy=-0.3475037982017191 pbc="F F F"
Cd       0.00000000       0.00000000       0.00000000       0.00000000       0.00000000       0.00737659
Cd       0.00000000       0.00000000       5.70202020       0.00000000       0.00000000      -0.00737659
2
Properties=species:S:1:pos:R:3:forces:R:3 energy=-0.3470383534938717 pbc="F F F"
Cd       0.00000000       0.00000000       0.00000000       0.00000000       0.00000000       0.00819402
Cd       0.00000000       0.00000000       5.76161616       0.00000000       0.00000000      -0.00819402
2
Properties=species:S:1:pos:R:3:forces:R:3 energy=-0.34653464753315233 pbc="F F F"
Cd       0.00000000       0.00000000       0.00000000       0.00000000       0.00000000       0.00863733
Cd       0.00000000       0.00000000       5.82121212       0.00000000       0.00000000      -0.00863733
2
Properties=species:S:1:pos:R:3:forces:R:3 energy=-0.346017373177305 pbc="F F F"
Cd       0.00000000       0.00000000       0.00000000       0.00000000       0.00000000       0.00865677
Cd       0.00000000       0.00000000       5.88080808       0.00000000       0.00000000      -0.00865677
2
Properties=species:S:1:pos:R:3:forces:R:3 energy=-0.34550839681518025 pbc="F F F"
Cd       0.00000000       0.00000000       0.00000000       0.00000000       0.00000000       0.00839480
Cd       0.00000000       0.00000000       5.94040404       0.00000000       0.00000000      -0.00839480
2
Properties=species:S:1:pos:R:3:forces:R:3 energy=-0.3450200312534185 pbc="F F F"
Cd       0.00000000       0.00000000       0.00000000       0.00000000       0.00000000       0.00797041
Cd       0.00000000       0.00000000       6.00000000       0.00000000       0.00000000      -0.00797041
