2
Properties=species:S:1:pos:R:3:forces:R:3 energy=52.97436941130288 pbc="F F F"
H        0.00000000       0.00000000       0.00000000       0.00000000       0.00000000    -839.22845459
H        0.00000000       0.00000000       0.10000000       0.00000000       0.00000000     839.22845459
2
Properties=species:S:1:pos:R:3:forces:R:3 energy=24.609617595506986 pbc="F F F"
H        0.00000000       0.00000000       0.00000000       0.00000000       0.00000000    -254.59490967
H        0.00000000       0.00000000       0.15959596       0.00000000       0.00000000     254.59490967
2
Properties=species:S:1:pos:R:3:forces:R:3 energy=14.66634405139345 pbc="F F F"
H        0.00000000       0.00000000       0.00000000       0.00000000       0.00000000    -118.74698639
H        0.00000000       0.00000000       0.21919192       0.00000000       0.00000000     118.74698639
2
Properties=species:S:1:pos:R:3:forces:R:3 energy=8.227921849121442 pbc="F F F"
H        0.00000000       0.00000000       0.00000000       0.00000000       0.00000000     -95.17007446
H        0.00000000       0.00000000       0.27878788       0.00000000       0.00000000      95.17007446
2
Properties=species:S:1:pos:R:3:forces:R:3 energy=3.211748011730227 pbc="F F F"
H        0.00000000       0.00000000       0.00000000       0.00000000       0.00000000     -78.34579468
H        0.00000000       0.00000000       0.33838384       0.00000000       0.00000000      78.34579468
2
Properties=species:S:1:pos:R:3:forces:R:3 energy=-0.763462888395124 pbc="F F F"
H        0.00000000       0.00000000       0.00000000       0.00000000       0.00000000     -53.49240494
H        0.00000000       0.00000000       0.39797980       0.00000000       0.00000000      53.49240494
2
Properties=species:S:1:pos:R:3:forces:R:3 energy=-3.295781231752656 pbc="F F F"
H        0.00000000       0.00000000       0.00000000       0.00000000       0.00000000     -32.80812836
H        0.00000000       0.00000000       0.45757576       0.00000000       0.00000000      32.80812836
2
Properties=species:S:1:pos:R:3:forces:R:3 energy=-4.846571532155195 pbc="F F F"
H        0.00000000       0.00000000       0.00000000       0.00000000       0.00000000     -20.04913712
H        0.00000000       0.00000000       0.51717172       0.00000000       0.00000000      20.04913712
2
Properties=species:S:1:pos:R:3:forces:R:3 energy=-5.757166593707929 pbc="F F F"
H        0.00000000       0.00000000       0.00000000       0.00000000       0.00000000     -11.08520699
H        0.00000000       0.00000000       0.57676768       0.00000000       0.00000000      11.08520699
2
Properties=species:S:1:pos:R:3:forces:R:3 energy=-6.23755419938185 pbc="F F F"
H        0.00000000       0.00000000       0.00000000       0.00000000       0.00000000      -5.60268068
H        0.00000000       0.00000000       0.63636364       0.00000000       0.00000000       5.60268068
2
Properties=species:S:1:pos:R:3:forces:R:3 energy=-6.463151804648359 pbc="F F F"
H        0.00000000       0.00000000       0.00000000       0.00000000       0.00000000      -2.19825697
H        0.00000000       0.00000000       0.69595960       0.00000000       0.00000000       2.19825697
2
Properties=species:S:1:pos:R:3:forces:R:3 energy=-6.520633666697645 pbc="F F F"
H        0.00000000       0.00000000       0.00000000       0.00000000       0.00000000       0.16003114
H        0.00000000       0.00000000       0.75555556       0.00000000       0.00000000      -0.16003114
2
Properties=species:S:1:pos:R:3:forces:R:3 energy=-6.451624166372896 pbc="F F F"
H        0.00000000       0.00000000       0.00000000       0.00000000       0.00000000       2.10872650
H        0.00000000       0.00000000       0.81515152       0.00000000       0.00000000      -2.10872650
2
Properties=species:S:1:pos:R:3:forces:R:3 energy=-6.275277815215994 pbc="F F F"
H        0.00000000       0.00000000       0.00000000       0.00000000       0.00000000       3.76714683
H        0.00000000       0.00000000       0.87474747       0.00000000       0.00000000      -3.76714683
2
Properties=species:S:1:pos:R:3:forces:R:3 energy=-6.006275919152082 pbc="F F F"
H        0.00000000       0.00000000       0.00000000       0.00000000       0.00000000       5.23263502
H        0.00000000       0.00000000       0.93434343       0.00000000       0.00000000      -5.23263502
2
Properties=species:S:1:pos:R:3:forces:R:3 energy=-5.655733991353649 pbc="F F F"
H        0.00000000       0.00000000       0.00000000       0.00000000       0.00000000       6.47855234
H        0.00000000       0.00000000       0.99393939       0.00000000       0.00000000      -6.47855234
2
Properties=species:S:1:pos:R:3:forces:R:3 energy=-5.243533321988836 pbc="F F F"
H        0.00000000       0.00000000       0.00000000       0.00000000       0.00000000       7.25333261
H        0.00000000       0.00000000       1.05353535       0.00000000       0.00000000      -7.25333261
2
Properties=species:S:1:pos:R:3:forces:R:3 energy=-4.803928788595942 pbc="F F F"
H        0.00000000       0.00000000       0.00000000       0.00000000       0.00000000       7.39887810
H        0.00000000       0.00000000       1.11313131       0.00000000       0.00000000      -7.39887810
2
Properties=species:S:1:pos:R:3:forces:R:3 energy=-4.3715796603839525 pbc="F F F"
H        0.00000000       0.00000000       0.00000000       0.00000000       0.00000000       7.04692841
H        0.00000000       0.00000000       1.17272727       0.00000000       0.00000000      -7.04692841
2
Properties=species:S:1:pos:R:3:forces:R:3 energy=-3.969431727785389 pbc="F F F"
H        0.00000000       0.00000000       0.00000000       0.00000000       0.00000000       6.41779995
H        0.00000000       0.00000000       1.23232323       0.00000000       0.00000000      -6.41779995
2
Properties=species:S:1:pos:R:3:forces:R:3 energy=-3.6091438935736613 pbc="F F F"
H        0.00000000       0.00000000       0.00000000       0.00000000       0.00000000       5.65913773
H        0.00000000       0.00000000       1.29191919       0.00000000       0.00000000      -5.65913773
2
Properties=species:S:1:pos:R:3:forces:R:3 energy=-3.296017995037502 pbc="F F F"
H        0.00000000       0.00000000       0.00000000       0.00000000       0.00000000       4.84385109
H        0.00000000       0.00000000       1.35151515       0.00000000       0.00000000      -4.84385109
2
Properties=species:S:1:pos:R:3:forces:R:3 energy=-3.0320270955586106 pbc="F F F"
H        0.00000000       0.00000000       0.00000000       0.00000000       0.00000000       4.01704884
H        0.00000000       0.00000000       1.41111111       0.00000000       0.00000000      -4.01704884
2
Properties=species:S:1:pos:R:3:forces:R:3 energy=-2.8166032876252562 pbc="F F F"
H        0.00000000       0.00000000       0.00000000       0.00000000       0.00000000       3.22117734
H        0.00000000       0.00000000       1.47070707       0.00000000       0.00000000      -3.22117734
2
Properties=species:S:1:pos:R:3:forces:R:3 energy=-2.6466914997594375 pbc="F F F"
H        0.00000000       0.00000000       0.00000000       0.00000000       0.00000000       2.49534488
H        0.00000000       0.00000000       1.53030303       0.00000000       0.00000000      -2.49534488
2
Properties=species:S:1:pos:R:3:forces:R:3 energy=-2.517227863576981 pbc="F F F"
H        0.00000000       0.00000000       0.00000000       0.00000000       0.00000000       1.86708701
H        0.00000000       0.00000000       1.58989899       0.00000000       0.00000000      -1.86708701
2
Properties=species:S:1:pos:R:3:forces:R:3 energy=-2.4219684872587868 pbc="F F F"
H        0.00000000       0.00000000       0.00000000       0.00000000       0.00000000       1.34821677
H        0.00000000       0.00000000       1.64949495       0.00000000       0.00000000      -1.34821677
2
Properties=species:S:1:pos:R:3:forces:R:3 energy=-2.3543957142683243 pbc="F F F"
H        0.00000000       0.00000000       0.00000000       0.00000000       0.00000000       0.93654996
H        0.00000000       0.00000000       1.70909091       0.00000000       0.00000000      -0.93654996
2
Properties=species:S:1:pos:R:3:forces:R:3 energy=-2.3084293267650504 pbc="F F F"
H        0.00000000       0.00000000       0.00000000       0.00000000       0.00000000       0.62083513
H        0.00000000       0.00000000       1.76868687       0.00000000       0.00000000      -0.62083513
2
Properties=species:S:1:pos:R:3:forces:R:3 energy=-2.2787989732439633 pbc="F F F"
H        0.00000000       0.00000000       0.00000000       0.00000000       0.00000000       0.38556746
H        0.00000000       0.00000000       1.82828283       0.00000000       0.00000000      -0.38556746
2
Properties=species:S:1:pos:R:3:forces:R:3 energy=-2.261194142137392 pbc="F F F"
H        0.00000000       0.00000000       0.00000000       0.00000000       0.00000000       0.21470074
H        0.00000000       0.00000000       1.88787879       0.00000000       0.00000000      -0.21470074
2
Properties=species:S:1:pos:R:3:forces:R:3 energy=-2.2522198333823042 pbc="F F F"
H        0.00000000       0.00000000       0.00000000       0.00000000       0.00000000       0.09368213
H        0.00000000       0.00000000       1.94747475       0.00000000       0.00000000      -0.09368213
2
Properties=species:S:1:pos:R:3:forces:R:3 energy=-2.2492809273893326 pbc="F F F"
H        0.00000000       0.00000000       0.00000000       0.00000000       0.00000000       0.01035706
H        0.00000000       0.00000000       2.00707071       0.00000000       0.00000000      -0.01035706
2
Properties=species:S:1:pos:R:3:forces:R:3 energy=-2.2504293710088796 pbc="F F F"
H        0.00000000       0.00000000       0.00000000       0.00000000       0.00000000      -0.04490232
H        0.00000000       0.00000000       2.06666667       0.00000000       0.00000000       0.04490232
2
Properties=species:S:1:pos:R:3:forces:R:3 energy=-2.2542230717461558 pbc="F F F"
H        0.00000000       0.00000000       0.00000000       0.00000000       0.00000000      -0.07947495
H        0.00000000       0.00000000       2.12626263       0.00000000       0.00000000       0.07947495
2
Properties=species:S:1:pos:R:3:forces:R:3 energy=-2.2596024080245836 pbc="F F F"
H        0.00000000       0.00000000       0.00000000       0.00000000       0.00000000      -0.09890106
H        0.00000000       0.00000000       2.18585859       0.00000000       0.00000000       0.09890106
2
Properties=species:S:1:pos:R:3:forces:R:3 energy=-2.2657929738084324 pbc="F F F"
H        0.00000000       0.00000000       0.00000000       0.00000000       0.00000000      -0.10731129
H        0.00000000       0.00000000       2.24545455       0.00000000       0.00000000       0.10731129
2
Properties=species:S:1:pos:R:3:forces:R:3 energy=-2.2722359983915896 pbc="F F F"
H        0.00000000       0.00000000       0.00000000       0.00000000       0.00000000      -0.10780944
H        0.00000000       0.00000000       2.30505051       0.00000000       0.00000000       0.10780944
2
Properties=species:S:1:pos:R:3:forces:R:3 energy=-2.278533286752941 pbc="F F F"
H        0.00000000       0.00000000       0.00000000       0.00000000       0.00000000      -0.10274777
H        0.00000000       0.00000000       2.36464646       0.00000000       0.00000000       0.10274777
2
Properties=species:S:1:pos:R:3:forces:R:3 energy=-2.2844086385121556 pbc="F F F"
H        0.00000000       0.00000000       0.00000000       0.00000000       0.00000000      -0.09392941
H        0.00000000       0.00000000       2.42424242       0.00000000       0.00000000       0.09392941
2
Properties=species:S:1:pos:R:3:forces:R:3 energy=-2.2896818662442326 pbc="F F F"
H        0.00000000       0.00000000       0.00000000       0.00000000       0.00000000      -0.08273737
H        0.00000000       0.00000000       2.48383838       0.00000000       0.00000000       0.08273737
2
Properties=species:S:1:pos:R:3:forces:R:3 energy=-2.2942435607280003 pbc="F F F"
H        0.00000000       0.00000000       0.00000000       0.00000000       0.00000000      -0.07021592
H        0.00000000       0.00000000       2.54343434       0.00000000       0.00000000       0.07021592
2
Properties=species:S:1:pos:R:3:forces:R:3 energy=-2.2980398293852127 pbc="F F F"
H        0.00000000       0.00000000       0.00000000       0.00000000       0.00000000      -0.05712810
H        0.00000000       0.00000000       2.60303030       0.00000000       0.00000000       0.05712810
2
Properties=species:S:1:pos:R:3:forces:R:3 energy=-2.301052781199084 pbc="F F F"
H        0.00000000       0.00000000       0.00000000       0.00000000       0.00000000      -0.04401297
H        0.00000000       0.00000000       2.66262626       0.00000000       0.00000000       0.04401297
2
Properties=species:S:1:pos:R:3:forces:R:3 energy=-2.3032921365265744 pbc="F F F"
H        0.00000000       0.00000000       0.00000000       0.00000000       0.00000000      -0.03123700
H        0.00000000       0.00000000       2.72222222       0.00000000       0.00000000       0.03123700
2
Properties=species:S:1:pos:R:3:forces:R:3 energy=-2.304787388587638 pbc="F F F"
H        0.00000000       0.00000000       0.00000000       0.00000000       0.00000000      -0.01904071
H        0.00000000       0.00000000       2.78181818       0.00000000       0.00000000       0.01904071
2
Properties=species:S:1:pos:R:3:forces:R:3 energy=-2.3055762968089364 pbc="F F F"
H        0.00000000       0.00000000       0.00000000       0.00000000       0.00000000      -0.00758433
H        0.00000000       0.00000000       2.84141414       0.00000000       0.00000000       0.00758433
2
Properties=species:S:1:pos:R:3:forces:R:3 energy=-2.3057082064689687 pbc="F F F"
H        0.00000000       0.00000000       0.00000000       0.00000000       0.00000000       0.00302864
H        0.00000000       0.00000000       2.90101010       0.00000000       0.00000000      -0.00302864
2
Properties=species:S:1:pos:R:3:forces:R:3 energy=-2.3052337325507724 pbc="F F F"
H        0.00000000       0.00000000       0.00000000       0.00000000       0.00000000       0.01273672
H        0.00000000       0.00000000       2.96060606       0.00000000       0.00000000      -0.01273672
2
Properties=species:S:1:pos:R:3:forces:R:3 energy=-2.304208543750912 pbc="F F F"
H        0.00000000       0.00000000       0.00000000       0.00000000       0.00000000       0.02151026
H        0.00000000       0.00000000       3.02020202       0.00000000       0.00000000      -0.02151026
2
Properties=species:S:1:pos:R:3:forces:R:3 energy=-2.302688283027396 pbc="F F F"
H        0.00000000       0.00000000       0.00000000       0.00000000       0.00000000       0.02934785
H        0.00000000       0.00000000       3.07979798       0.00000000       0.00000000      -0.02934785
2
Properties=species:S:1:pos:R:3:forces:R:3 energy=-2.3007287630546704 pbc="F F F"
H        0.00000000       0.00000000       0.00000000       0.00000000       0.00000000       0.03626404
H        0.00000000       0.00000000       3.13939394       0.00000000       0.00000000      -0.03626404
2
Properties=species:S:1:pos:R:3:forces:R:3 energy=-2.2983840165053633 pbc="F F F"
H        0.00000000       0.00000000       0.00000000       0.00000000       0.00000000       0.04227725
H        0.00000000       0.00000000       3.19898990       0.00000000       0.00000000      -0.04227725
2
Properties=species:S:1:pos:R:3:forces:R:3 energy=-2.295707677064538 pbc="F F F"
H        0.00000000       0.00000000       0.00000000       0.00000000       0.00000000       0.04739268
H        0.00000000       0.00000000       3.25858586       0.00000000       0.00000000      -0.04739268
2
Properties=species:S:1:pos:R:3:forces:R:3 energy=-2.2927534542869625 pbc="F F F"
H        0.00000000       0.00000000       0.00000000       0.00000000       0.00000000       0.05159341
H        0.00000000       0.00000000       3.31818182       0.00000000       0.00000000      -0.05159341
2
Properties=species:S:1:pos:R:3:forces:R:3 energy=-2.2895770060997007 pbc="F F F"
H        0.00000000       0.00000000       0.00000000       0.00000000       0.00000000       0.05484313
H        0.00000000       0.00000000       3.37777778       0.00000000       0.00000000      -0.05484313
2
Properties=species:S:1:pos:R:3:forces:R:3 energy=-2.286235952067365 pbc="F F F"
H        0.00000000       0.00000000       0.00000000       0.00000000       0.00000000       0.05710552
H        0.00000000       0.00000000       3.43737374       0.00000000       0.00000000      -0.05710552
2
Properties=species:S:1:pos:R:3:forces:R:3 energy=-2.2827901076529296 pbc="F F F"
H        0.00000000       0.00000000       0.00000000       0.00000000       0.00000000       0.05837352
H        0.00000000       0.00000000       3.49696970       0.00000000       0.00000000      -0.05837352
2
Properties=species:S:1:pos:R:3:forces:R:3 energy=-2.2792972154520292 pbc="F F F"
H        0.00000000       0.00000000       0.00000000       0.00000000       0.00000000       0.05870011
H        0.00000000       0.00000000       3.55656566       0.00000000       0.00000000      -0.05870011
2
Properties=species:S:1:pos:R:3:forces:R:3 energy=-2.275809860402608 pbc="F F F"
H        0.00000000       0.00000000       0.00000000       0.00000000       0.00000000       0.05820848
H        0.00000000       0.00000000       3.61616162       0.00000000       0.00000000      -0.05820848
2
Properties=species:S:1:pos:R:3:forces:R:3 energy=-2.2723721485558768 pbc="F F F"
H        0.00000000       0.00000000       0.00000000       0.00000000       0.00000000       0.05707414
H        0.00000000       0.00000000       3.67575758       0.00000000       0.00000000      -0.05707414
2
Properties=species:S:1:pos:R:3:forces:R:3 energy=-2.2690161588130566 pbc="F F F"
H        0.00000000       0.00000000       0.00000000       0.00000000       0.00000000       0.05547681
H        0.00000000       0.00000000       3.73535354       0.00000000       0.00000000      -0.05547681
2
Properties=species:S:1:pos:R:3:forces:R:3 energy=-2.265766254159693 pbc="F F F"
H        0.00000000       0.00000000       0.00000000       0.00000000       0.00000000       0.05353749
H        0.00000000       0.00000000       3.79494949       0.00000000       0.00000000      -0.05353749
2
Properties=species:S:1:pos:R:3:forces:R:3 energy=-2.26264124634081 pbc="F F F"
H        0.00000000       0.00000000       0.00000000       0.00000000       0.00000000       0.05127287
H        0.00000000       0.00000000       3.85454545       0.00000000       0.00000000      -0.05127287
2
Properties=species:S:1:pos:R:3:forces:R:3 energy=-2.2596632353653217 pbc="F F F"
H        0.00000000       0.00000000       0.00000000       0.00000000       0.00000000       0.04859751
H        0.00000000       0.00000000       3.91414141       0.00000000       0.00000000      -0.04859751
2
Properties=species:S:1:pos:R:3:forces:R:3 energy=-2.256860008738982 pbc="F F F"
H        0.00000000       0.00000000       0.00000000       0.00000000       0.00000000       0.04536693
H        0.00000000       0.00000000       3.97373737       0.00000000       0.00000000      -0.04536693
2
Properties=species:S:1:pos:R:3:forces:R:3 energy=-2.2542693479469667 pbc="F F F"
H        0.00000000       0.00000000       0.00000000       0.00000000       0.00000000       0.04146191
H        0.00000000       0.00000000       4.03333333       0.00000000       0.00000000      -0.04146191
2
Properties=species:S:1:pos:R:3:forces:R:3 energy=-2.25193188411304 pbc="F F F"
H        0.00000000       0.00000000       0.00000000       0.00000000       0.00000000       0.03686296
H        0.00000000       0.00000000       4.09292929       0.00000000       0.00000000      -0.03686296
2
Properties=species:S:1:pos:R:3:forces:R:3 energy=-2.2498868166615584 pbc="F F F"
H        0.00000000       0.00000000       0.00000000       0.00000000       0.00000000       0.03169866
H        0.00000000       0.00000000       4.15252525       0.00000000       0.00000000      -0.03169866
2
Properties=species:S:1:pos:R:3:forces:R:3 energy=-2.2481595218870014 pbc="F F F"
H        0.00000000       0.00000000       0.00000000       0.00000000       0.00000000       0.02624241
H        0.00000000       0.00000000       4.21212121       0.00000000       0.00000000      -0.02624241
2
Properties=species:S:1:pos:R:3:forces:R:3 energy=-2.2467575035009215 pbc="F F F"
H        0.00000000       0.00000000       0.00000000       0.00000000       0.00000000       0.02086173
H        0.00000000       0.00000000       4.27171717       0.00000000       0.00000000      -0.02086173
2
Properties=species:S:1:pos:R:3:forces:R:3 energy=-2.245663961368968 pbc="F F F"
H        0.00000000       0.00000000       0.00000000       0.00000000       0.00000000       0.01594054
H        0.00000000       0.00000000       4.33131313       0.00000000       0.00000000      -0.01594054
2
Properties=species:S:1:pos:R:3:forces:R:3 energy=-2.2448418451712038 pbc="F F F"
H        0.00000000       0.00000000       0.00000000       0.00000000       0.00000000       0.01179938
H        0.00000000       0.00000000       4.39090909       0.00000000       0.00000000      -0.01179938
2
Properties=species:S:1:pos:R:3:forces:R:3 energy=-2.244237910537279 pbc="F F F"
H        0.00000000       0.00000000       0.00000000       0.00000000       0.00000000       0.00864024
H        0.00000000       0.00000000       4.45050505       0.00000000       0.00000000      -0.00864024
2
Properties=species:S:1:pos:R:3:forces:R:3 energy=-2.2437913021647744 pbc="F F F"
H        0.00000000       0.00000000       0.00000000       0.00000000       0.00000000       0.00651607
H        0.00000000       0.00000000       4.51010101       0.00000000       0.00000000      -0.00651607
2
Properties=species:S:1:pos:R:3:forces:R:3 energy=-2.2434421363435826 pbc="F F F"
H        0.00000000       0.00000000       0.00000000       0.00000000       0.00000000       0.00534925
H        0.00000000       0.00000000       4.56969697       0.00000000       0.00000000      -0.00534925
2
Properties=species:S:1:pos:R:3:forces:R:3 energy=-2.243137940583912 pbc="F F F"
H        0.00000000       0.00000000       0.00000000       0.00000000       0.00000000       0.00497617
H        0.00000000       0.00000000       4.62929293       0.00000000       0.00000000      -0.00497617
2
Properties=species:S:1:pos:R:3:forces:R:3 energy=-2.2428369888035427 pbc="F F F"
H        0.00000000       0.00000000       0.00000000       0.00000000       0.00000000       0.00520346
H        0.00000000       0.00000000       4.68888889       0.00000000       0.00000000      -0.00520346
2
Properties=species:S:1:pos:R:3:forces:R:3 energy=-2.2425090176725053 pbc="F F F"
H        0.00000000       0.00000000       0.00000000       0.00000000       0.00000000       0.00586660
H        0.00000000       0.00000000       4.74848485       0.00000000       0.00000000      -0.00586660
2
Properties=species:S:1:pos:R:3:forces:R:3 energy=-2.242131646919084 pbc="F F F"
H        0.00000000       0.00000000       0.00000000       0.00000000       0.00000000       0.00684783
H        0.00000000       0.00000000       4.80808081       0.00000000       0.00000000      -0.00684783
2
Properties=species:S:1:pos:R:3:forces:R:3 energy=-2.241688474456047 pbc="F F F"
H        0.00000000       0.00000000       0.00000000       0.00000000       0.00000000       0.00805285
H        0.00000000       0.00000000       4.86767677       0.00000000       0.00000000      -0.00805285
2
Properties=species:S:1:pos:R:3:forces:R:3 energy=-2.2411700269118855 pbc="F F F"
H        0.00000000       0.00000000       0.00000000       0.00000000       0.00000000       0.00934847
H        0.00000000       0.00000000       4.92727273       0.00000000       0.00000000      -0.00934847
2
Properties=species:S:1:pos:R:3:forces:R:3 energy=-2.2405770968722107 pbc="F F F"
H        0.00000000       0.00000000       0.00000000       0.00000000       0.00000000       0.01048820
H        0.00000000       0.00000000       4.98686869       0.00000000       0.00000000      -0.01048820
2
Properties=species:S:1:pos:R:3:forces:R:3 energy=-2.239930517670265 pbc="F F F"
H        0.00000000       0.00000000       0.00000000       0.00000000       0.00000000       0.01109299
H        0.00000000       0.00000000       5.04646465       0.00000000       0.00000000      -0.01109299
2
Properties=species:S:1:pos:R:3:forces:R:3 energy=-2.2392740223557364 pbc="F F F"
H        0.00000000       0.00000000       0.00000000       0.00000000       0.00000000       0.01075133
H        0.00000000       0.00000000       5.10606061       0.00000000       0.00000000      -0.01075133
2
Properties=species:S:1:pos:R:3:forces:R:3 energy=-2.2386718598554496 pbc="F F F"
H        0.00000000       0.00000000       0.00000000       0.00000000       0.00000000       0.00927762
H        0.00000000       0.00000000       5.16565657       0.00000000       0.00000000      -0.00927762
2
Properties=species:S:1:pos:R:3:forces:R:3 energy=-2.2381839979067237 pbc="F F F"
H        0.00000000       0.00000000       0.00000000       0.00000000       0.00000000       0.00701807
H        0.00000000       0.00000000       5.22525253       0.00000000       0.00000000      -0.00701807
2
Properties=species:S:1:pos:R:3:forces:R:3 energy=-2.2378334585488524 pbc="F F F"
H        0.00000000       0.00000000       0.00000000       0.00000000       0.00000000       0.00485159
H        0.00000000       0.00000000       5.28484848       0.00000000       0.00000000      -0.00485159
2
Properties=species:S:1:pos:R:3:forces:R:3 energy=-2.2375865294057857 pbc="F F F"
H        0.00000000       0.00000000       0.00000000       0.00000000       0.00000000       0.00363117
H        0.00000000       0.00000000       5.34444444       0.00000000       0.00000000      -0.00363117
2
Properties=species:S:1:pos:R:3:forces:R:3 energy=-2.2373766042199907 pbc="F F F"
H        0.00000000       0.00000000       0.00000000       0.00000000       0.00000000       0.00359387
H        0.00000000       0.00000000       5.40404040       0.00000000       0.00000000      -0.00359387
2
Properties=species:S:1:pos:R:3:forces:R:3 energy=-2.2371416141115197 pbc="F F F"
H        0.00000000       0.00000000       0.00000000       0.00000000       0.00000000       0.00437734
H        0.00000000       0.00000000       5.46363636       0.00000000       0.00000000      -0.00437734
2
Properties=species:S:1:pos:R:3:forces:R:3 energy=-2.236851921895929 pbc="F F F"
H        0.00000000       0.00000000       0.00000000       0.00000000       0.00000000       0.00532229
H        0.00000000       0.00000000       5.52323232       0.00000000       0.00000000      -0.00532229
2
Properties=species:S:1:pos:R:3:forces:R:3 energy=-2.236512705836967 pbc="F F F"
H        0.00000000       0.00000000       0.00000000       0.00000000       0.00000000       0.00601475
H        0.00000000       0.00000000       5.58282828       0.00000000       0.00000000      -0.00601475
2
Properties=species:S:1:pos:R:3:forces:R:3 energy=-2.2361389246315797 pbc="F F F"
H        0.00000000       0.00000000       0.00000000       0.00000000       0.00000000       0.00650466
H        0.00000000       0.00000000       5.64242424       0.00000000       0.00000000      -0.00650466
2
Properties=species:S:1:pos:R:3:forces:R:3 energy=-2.2357441120089274 pbc="F F F"
H        0.00000000       0.00000000       0.00000000       0.00000000       0.00000000       0.00662520
H        0.00000000       0.00000000       5.70202020       0.00000000       0.00000000      -0.00662520
2
Properties=species:S:1:pos:R:3:forces:R:3 energy=-2.235367793914159 pbc="F F F"
H        0.00000000       0.00000000       0.00000000       0.00000000       0.00000000       0.00584666
H        0.00000000       0.00000000       5.76161616       0.00000000       0.00000000      -0.00584666
2
Properties=species:S:1:pos:R:3:forces:R:3 energy=-2.2350661897878505 pbc="F F F"
H        0.00000000       0.00000000       0.00000000       0.00000000       0.00000000       0.00415192
H        0.00000000       0.00000000       5.82121212       0.00000000       0.00000000      -0.00415192
2
Properties=species:S:1:pos:R:3:forces:R:3 energy=-2.234878833865937 pbc="F F F"
H        0.00000000       0.00000000       0.00000000       0.00000000       0.00000000       0.00217559
H        0.00000000       0.00000000       5.88080808       0.00000000       0.00000000      -0.00217559
2
Properties=species:S:1:pos:R:3:forces:R:3 energy=-2.234797103259055 pbc="F F F"
H        0.00000000       0.00000000       0.00000000       0.00000000       0.00000000       0.00066672
H        0.00000000       0.00000000       5.94040404       0.00000000       0.00000000      -0.00066672
2
Properties=species:S:1:pos:R:3:forces:R:3 energy=-2.234779953572581 pbc="F F F"
H        0.00000000       0.00000000       0.00000000       0.00000000       0.00000000       0.00010019
H        0.00000000       0.00000000       6.00000000       0.00000000       0.00000000      -0.00010019
