2
Properties=species:S:1:pos:R:3:forces:R:3 energy=87744.99045171993 pbc="F F F"
Hg       0.00000000       0.00000000       0.00000000       0.00000000       0.00000000 -2233149.50000000
Hg       0.00000000       0.00000000       0.10000000       0.00000000       0.00000000 2233149.50000000
2
Properties=species:S:1:pos:R:3:forces:R:3 energy=23911.20334234493 pbc="F F F"
Hg       0.00000000       0.00000000       0.00000000       0.00000000       0.00000000 -454718.03125000
Hg       0.00000000       0.00000000       0.15959596       0.00000000       0.00000000  454718.03125000
2
Properties=species:S:1:pos:R:3:forces:R:3 energy=8549.642795469927 pbc="F F F"
Hg       0.00000000       0.00000000       0.00000000       0.00000000       0.00000000 -135210.92187500
Hg       0.00000000       0.00000000       0.21919192       0.00000000       0.00000000  135210.92187500
2
Properties=species:S:1:pos:R:3:forces:R:3 energy=3543.264377501177 pbc="F F F"
Hg       0.00000000       0.00000000       0.00000000       0.00000000       0.00000000  -49144.79687500
Hg       0.00000000       0.00000000       0.27878788       0.00000000       0.00000000   49144.79687500
2
Properties=species:S:1:pos:R:3:forces:R:3 energy=1621.6945532824268 pbc="F F F"
Hg       0.00000000       0.00000000       0.00000000       0.00000000       0.00000000  -20114.82812500
Hg       0.00000000       0.00000000       0.33838384       0.00000000       0.00000000   20114.82812500
2
Properties=species:S:1:pos:R:3:forces:R:3 energy=805.5708960622 pbc="F F F"
Hg       0.00000000       0.00000000       0.00000000       0.00000000       0.00000000   -8930.02636719
Hg       0.00000000       0.00000000       0.39797980       0.00000000       0.00000000    8930.02636719
2
Properties=species:S:1:pos:R:3:forces:R:3 energy=432.83224861393376 pbc="F F F"
Hg       0.00000000       0.00000000       0.00000000       0.00000000       0.00000000   -4219.08154297
Hg       0.00000000       0.00000000       0.45757576       0.00000000       0.00000000    4219.08154297
2
Properties=species:S:1:pos:R:3:forces:R:3 energy=252.81502146008913 pbc="F F F"
Hg       0.00000000       0.00000000       0.00000000       0.00000000       0.00000000   -2088.60644531
Hg       0.00000000       0.00000000       0.51717172       0.00000000       0.00000000    2088.60644531
2
Properties=species:S:1:pos:R:3:forces:R:3 energy=162.57457350005612 pbc="F F F"
Hg       0.00000000       0.00000000       0.00000000       0.00000000       0.00000000   -1056.95983887
Hg       0.00000000       0.00000000       0.57676768       0.00000000       0.00000000    1056.95983887
2
Properties=species:S:1:pos:R:3:forces:R:3 energy=117.24222187884226 pbc="F F F"
Hg       0.00000000       0.00000000       0.00000000       0.00000000       0.00000000    -518.67456055
Hg       0.00000000       0.00000000       0.63636364       0.00000000       0.00000000     518.67456055
2
Properties=species:S:1:pos:R:3:forces:R:3 energy=96.16966643505255 pbc="F F F"
Hg       0.00000000       0.00000000       0.00000000       0.00000000       0.00000000    -215.42120361
Hg       0.00000000       0.00000000       0.69595960       0.00000000       0.00000000     215.42120361
2
Properties=species:S:1:pos:R:3:forces:R:3 energy=89.21193343281114 pbc="F F F"
Hg       0.00000000       0.00000000       0.00000000       0.00000000       0.00000000     -32.77805710
Hg       0.00000000       0.00000000       0.75555556       0.00000000       0.00000000      32.77805710
2
Properties=species:S:1:pos:R:3:forces:R:3 energy=90.81490760205044 pbc="F F F"
Hg       0.00000000       0.00000000       0.00000000       0.00000000       0.00000000      75.77310181
Hg       0.00000000       0.00000000       0.81515152       0.00000000       0.00000000     -75.77310181
2
Properties=species:S:1:pos:R:3:forces:R:3 energy=96.99170389414442 pbc="F F F"
Hg       0.00000000       0.00000000       0.00000000       0.00000000       0.00000000     121.12722015
Hg       0.00000000       0.00000000       0.87474747       0.00000000       0.00000000    -121.12722015
2
Properties=species:S:1:pos:R:3:forces:R:3 energy=104.05235042011101 pbc="F F F"
Hg       0.00000000       0.00000000       0.00000000       0.00000000       0.00000000     106.39593506
Hg       0.00000000       0.00000000       0.93434343       0.00000000       0.00000000    -106.39593506
2
Properties=species:S:1:pos:R:3:forces:R:3 energy=108.68726165301064 pbc="F F F"
Hg       0.00000000       0.00000000       0.00000000       0.00000000       0.00000000      42.34720230
Hg       0.00000000       0.00000000       0.99393939       0.00000000       0.00000000     -42.34720230
2
Properties=species:S:1:pos:R:3:forces:R:3 energy=108.51908779318067 pbc="F F F"
Hg       0.00000000       0.00000000       0.00000000       0.00000000       0.00000000     -50.68593597
Hg       0.00000000       0.00000000       1.05353535       0.00000000       0.00000000      50.68593597
2
Properties=species:S:1:pos:R:3:forces:R:3 energy=102.62346672136037 pbc="F F F"
Hg       0.00000000       0.00000000       0.00000000       0.00000000       0.00000000    -144.60160828
Hg       0.00000000       0.00000000       1.11313131       0.00000000       0.00000000     144.60160828
2
Properties=species:S:1:pos:R:3:forces:R:3 energy=91.8870638546479 pbc="F F F"
Hg       0.00000000       0.00000000       0.00000000       0.00000000       0.00000000    -209.25062561
Hg       0.00000000       0.00000000       1.17272727       0.00000000       0.00000000     209.25062561
2
Properties=species:S:1:pos:R:3:forces:R:3 energy=78.34466933030828 pbc="F F F"
Hg       0.00000000       0.00000000       0.00000000       0.00000000       0.00000000    -241.07052612
Hg       0.00000000       0.00000000       1.23232323       0.00000000       0.00000000     241.07052612
2
Properties=species:S:1:pos:R:3:forces:R:3 energy=63.851340015574934 pbc="F F F"
Hg       0.00000000       0.00000000       0.00000000       0.00000000       0.00000000    -234.28486633
Hg       0.00000000       0.00000000       1.29191919       0.00000000       0.00000000     234.28486633
2
Properties=species:S:1:pos:R:3:forces:R:3 energy=51.88295188848512 pbc="F F F"
Hg       0.00000000       0.00000000       0.00000000       0.00000000       0.00000000    -163.83132935
Hg       0.00000000       0.00000000       1.35151515       0.00000000       0.00000000     163.83132935
2
Properties=species:S:1:pos:R:3:forces:R:3 energy=43.61456919117617 pbc="F F F"
Hg       0.00000000       0.00000000       0.00000000       0.00000000       0.00000000    -120.58007050
Hg       0.00000000       0.00000000       1.41111111       0.00000000       0.00000000     120.58007050
2
Properties=species:S:1:pos:R:3:forces:R:3 energy=37.09741203806387 pbc="F F F"
Hg       0.00000000       0.00000000       0.00000000       0.00000000       0.00000000     -99.50385284
Hg       0.00000000       0.00000000       1.47070707       0.00000000       0.00000000      99.50385284
2
Properties=species:S:1:pos:R:3:forces:R:3 energy=31.648001306967686 pbc="F F F"
Hg       0.00000000       0.00000000       0.00000000       0.00000000       0.00000000     -84.11625671
Hg       0.00000000       0.00000000       1.53030303       0.00000000       0.00000000      84.11625671
2
Properties=species:S:1:pos:R:3:forces:R:3 energy=26.99787791540592 pbc="F F F"
Hg       0.00000000       0.00000000       0.00000000       0.00000000       0.00000000     -72.38544464
Hg       0.00000000       0.00000000       1.58989899       0.00000000       0.00000000      72.38544464
2
Properties=species:S:1:pos:R:3:forces:R:3 energy=22.98555835532373 pbc="F F F"
Hg       0.00000000       0.00000000       0.00000000       0.00000000       0.00000000     -62.48122406
Hg       0.00000000       0.00000000       1.64949495       0.00000000       0.00000000      62.48122406
2
Properties=species:S:1:pos:R:3:forces:R:3 energy=19.515664045596154 pbc="F F F"
Hg       0.00000000       0.00000000       0.00000000       0.00000000       0.00000000     -54.38555145
Hg       0.00000000       0.00000000       1.70909091       0.00000000       0.00000000      54.38555145
2
Properties=species:S:1:pos:R:3:forces:R:3 energy=16.446546085299982 pbc="F F F"
Hg       0.00000000       0.00000000       0.00000000       0.00000000       0.00000000     -49.03648758
Hg       0.00000000       0.00000000       1.76868687       0.00000000       0.00000000      49.03648758
2
Properties=species:S:1:pos:R:3:forces:R:3 energy=13.64244929029087 pbc="F F F"
Hg       0.00000000       0.00000000       0.00000000       0.00000000       0.00000000     -45.09498596
Hg       0.00000000       0.00000000       1.82828283       0.00000000       0.00000000      45.09498596
2
Properties=species:S:1:pos:R:3:forces:R:3 energy=11.08647592984458 pbc="F F F"
Hg       0.00000000       0.00000000       0.00000000       0.00000000       0.00000000     -40.47486877
Hg       0.00000000       0.00000000       1.88787879       0.00000000       0.00000000      40.47486877
2
Properties=species:S:1:pos:R:3:forces:R:3 energy=8.840662027071058 pbc="F F F"
Hg       0.00000000       0.00000000       0.00000000       0.00000000       0.00000000     -34.76356125
Hg       0.00000000       0.00000000       1.94747475       0.00000000       0.00000000      34.76356125
2
Properties=species:S:1:pos:R:3:forces:R:3 energy=6.9488270394749225 pbc="F F F"
Hg       0.00000000       0.00000000       0.00000000       0.00000000       0.00000000     -28.75090599
Hg       0.00000000       0.00000000       2.00707071       0.00000000       0.00000000      28.75090599
2
Properties=species:S:1:pos:R:3:forces:R:3 energy=5.404318648212112 pbc="F F F"
Hg       0.00000000       0.00000000       0.00000000       0.00000000       0.00000000     -23.19904137
Hg       0.00000000       0.00000000       2.06666667       0.00000000       0.00000000      23.19904137
2
Properties=species:S:1:pos:R:3:forces:R:3 energy=4.167649553067275 pbc="F F F"
Hg       0.00000000       0.00000000       0.00000000       0.00000000       0.00000000     -18.44477272
Hg       0.00000000       0.00000000       2.12626263       0.00000000       0.00000000      18.44477272
2
Properties=species:S:1:pos:R:3:forces:R:3 energy=3.1892153554899525 pbc="F F F"
Hg       0.00000000       0.00000000       0.00000000       0.00000000       0.00000000     -14.52410507
Hg       0.00000000       0.00000000       2.18585859       0.00000000       0.00000000      14.52410507
2
Properties=species:S:1:pos:R:3:forces:R:3 energy=2.4217156612182156 pbc="F F F"
Hg       0.00000000       0.00000000       0.00000000       0.00000000       0.00000000     -11.34639645
Hg       0.00000000       0.00000000       2.24545455       0.00000000       0.00000000      11.34639645
2
Properties=species:S:1:pos:R:3:forces:R:3 energy=1.8243949559221233 pbc="F F F"
Hg       0.00000000       0.00000000       0.00000000       0.00000000       0.00000000      -8.79414177
Hg       0.00000000       0.00000000       2.30505051       0.00000000       0.00000000       8.79414177
2
Properties=species:S:1:pos:R:3:forces:R:3 energy=1.36321077983293 pbc="F F F"
Hg       0.00000000       0.00000000       0.00000000       0.00000000       0.00000000      -6.76186323
Hg       0.00000000       0.00000000       2.36464646       0.00000000       0.00000000       6.76186323
2
Properties=species:S:1:pos:R:3:forces:R:3 energy=1.0098386106075192 pbc="F F F"
Hg       0.00000000       0.00000000       0.00000000       0.00000000       0.00000000      -5.16280270
Hg       0.00000000       0.00000000       2.42424242       0.00000000       0.00000000       5.16280270
2
Properties=species:S:1:pos:R:3:forces:R:3 energy=0.7406899936791159 pbc="F F F"
Hg       0.00000000       0.00000000       0.00000000       0.00000000       0.00000000      -3.92430496
Hg       0.00000000       0.00000000       2.48383838       0.00000000       0.00000000       3.92430496
2
Properties=species:S:1:pos:R:3:forces:R:3 energy=0.5362053601534391 pbc="F F F"
Hg       0.00000000       0.00000000       0.00000000       0.00000000       0.00000000      -2.98247790
Hg       0.00000000       0.00000000       2.54343434       0.00000000       0.00000000       2.98247790
2
Properties=species:S:1:pos:R:3:forces:R:3 energy=0.3804664669848959 pbc="F F F"
Hg       0.00000000       0.00000000       0.00000000       0.00000000       0.00000000      -2.27918267
Hg       0.00000000       0.00000000       2.60303030       0.00000000       0.00000000       2.27918267
2
Properties=species:S:1:pos:R:3:forces:R:3 energy=0.2608678154887752 pbc="F F F"
Hg       0.00000000       0.00000000       0.00000000       0.00000000       0.00000000      -1.76113391
Hg       0.00000000       0.00000000       2.66262626       0.00000000       0.00000000       1.76113391
2
Properties=species:S:1:pos:R:3:forces:R:3 energy=0.1678159977973418 pbc="F F F"
Hg       0.00000000       0.00000000       0.00000000       0.00000000       0.00000000      -1.38113916
Hg       0.00000000       0.00000000       2.72222222       0.00000000       0.00000000       1.38113916
2
Properties=species:S:1:pos:R:3:forces:R:3 energy=0.09428831604166762 pbc="F F F"
Hg       0.00000000       0.00000000       0.00000000       0.00000000       0.00000000      -1.10014379
Hg       0.00000000       0.00000000       2.78181818       0.00000000       0.00000000       1.10014379
2
Properties=species:S:1:pos:R:3:forces:R:3 energy=0.03531330311381336 pbc="F F F"
Hg       0.00000000       0.00000000       0.00000000       0.00000000       0.00000000      -0.88865983
Hg       0.00000000       0.00000000       2.84141414       0.00000000       0.00000000       0.88865983
2
Properties=species:S:1:pos:R:3:forces:R:3 energy=-0.012608005199519969 pbc="F F F"
Hg       0.00000000       0.00000000       0.00000000       0.00000000       0.00000000      -0.72651988
Hg       0.00000000       0.00000000       2.90101010       0.00000000       0.00000000       0.72651988
2
Properties=species:S:1:pos:R:3:forces:R:3 energy=-0.05200551103073539 pbc="F F F"
Hg       0.00000000       0.00000000       0.00000000       0.00000000       0.00000000      -0.60092133
Hg       0.00000000       0.00000000       2.96060606       0.00000000       0.00000000       0.60092133
2
Properties=species:S:1:pos:R:3:forces:R:3 energy=-0.08479004916168854 pbc="F F F"
Hg       0.00000000       0.00000000       0.00000000       0.00000000       0.00000000      -0.50339508
Hg       0.00000000       0.00000000       3.02020202       0.00000000       0.00000000       0.50339508
2
Properties=species:S:1:pos:R:3:forces:R:3 energy=-0.11242719793088676 pbc="F F F"
Hg       0.00000000       0.00000000       0.00000000       0.00000000       0.00000000      -0.42708683
Hg       0.00000000       0.00000000       3.07979798       0.00000000       0.00000000       0.42708683
2
Properties=species:S:1:pos:R:3:forces:R:3 energy=-0.13599107917204525 pbc="F F F"
Hg       0.00000000       0.00000000       0.00000000       0.00000000       0.00000000      -0.36571231
Hg       0.00000000       0.00000000       3.13939394       0.00000000       0.00000000       0.36571231
2
Properties=species:S:1:pos:R:3:forces:R:3 energy=-0.15621093347304932 pbc="F F F"
Hg       0.00000000       0.00000000       0.00000000       0.00000000       0.00000000      -0.31415212
Hg       0.00000000       0.00000000       3.19898990       0.00000000       0.00000000       0.31415212
2
Properties=species:S:1:pos:R:3:forces:R:3 energy=-0.17356252081955356 pbc="F F F"
Hg       0.00000000       0.00000000       0.00000000       0.00000000       0.00000000      -0.26902553
Hg       0.00000000       0.00000000       3.25858586       0.00000000       0.00000000       0.26902553
2
Properties=species:S:1:pos:R:3:forces:R:3 energy=-0.18836252485393812 pbc="F F F"
Hg       0.00000000       0.00000000       0.00000000       0.00000000       0.00000000      -0.22824003
Hg       0.00000000       0.00000000       3.31818182       0.00000000       0.00000000       0.22824003
2
Properties=species:S:1:pos:R:3:forces:R:3 energy=-0.20082781722190512 pbc="F F F"
Hg       0.00000000       0.00000000       0.00000000       0.00000000       0.00000000      -0.19055182
Hg       0.00000000       0.00000000       3.37777778       0.00000000       0.00000000       0.19055182
2
Properties=species:S:1:pos:R:3:forces:R:3 energy=-0.21112872011627 pbc="F F F"
Hg       0.00000000       0.00000000       0.00000000       0.00000000       0.00000000      -0.15560919
Hg       0.00000000       0.00000000       3.43737374       0.00000000       0.00000000       0.15560919
2
Properties=species:S:1:pos:R:3:forces:R:3 energy=-0.21943794854621035 pbc="F F F"
Hg       0.00000000       0.00000000       0.00000000       0.00000000       0.00000000      -0.12383845
Hg       0.00000000       0.00000000       3.49696970       0.00000000       0.00000000       0.12383845
2
Properties=species:S:1:pos:R:3:forces:R:3 energy=-0.22596720779801077 pbc="F F F"
Hg       0.00000000       0.00000000       0.00000000       0.00000000       0.00000000      -0.09598911
Hg       0.00000000       0.00000000       3.55656566       0.00000000       0.00000000       0.09598911
2
Properties=species:S:1:pos:R:3:forces:R:3 energy=-0.23096949527060207 pbc="F F F"
Hg       0.00000000       0.00000000       0.00000000       0.00000000       0.00000000      -0.07268082
Hg       0.00000000       0.00000000       3.61616162       0.00000000       0.00000000       0.07268082
2
Properties=species:S:1:pos:R:3:forces:R:3 energy=-0.23472517954982136 pbc="F F F"
Hg       0.00000000       0.00000000       0.00000000       0.00000000       0.00000000      -0.05415053
Hg       0.00000000       0.00000000       3.67575758       0.00000000       0.00000000       0.05415053
2
Properties=species:S:1:pos:R:3:forces:R:3 energy=-0.23751558232978548 pbc="F F F"
Hg       0.00000000       0.00000000       0.00000000       0.00000000       0.00000000      -0.04022010
Hg       0.00000000       0.00000000       3.73535354       0.00000000       0.00000000       0.04022010
2
Properties=species:S:1:pos:R:3:forces:R:3 energy=-0.23960062265342072 pbc="F F F"
Hg       0.00000000       0.00000000       0.00000000       0.00000000       0.00000000      -0.03038086
Hg       0.00000000       0.00000000       3.79494949       0.00000000       0.00000000       0.03038086
2
Properties=species:S:1:pos:R:3:forces:R:3 energy=-0.24120379383416235 pbc="F F F"
Hg       0.00000000       0.00000000       0.00000000       0.00000000       0.00000000      -0.02392072
Hg       0.00000000       0.00000000       3.85454545       0.00000000       0.00000000       0.02392072
2
Properties=species:S:1:pos:R:3:forces:R:3 energy=-0.24250310155007865 pbc="F F F"
Hg       0.00000000       0.00000000       0.00000000       0.00000000       0.00000000      -0.02004562
Hg       0.00000000       0.00000000       3.91414141       0.00000000       0.00000000       0.02004562
2
Properties=species:S:1:pos:R:3:forces:R:3 energy=-0.24362876906504702 pbc="F F F"
Hg       0.00000000       0.00000000       0.00000000       0.00000000       0.00000000      -0.01796613
Hg       0.00000000       0.00000000       3.97373737       0.00000000       0.00000000       0.01796613
2
Properties=species:S:1:pos:R:3:forces:R:3 energy=-0.24466556720759505 pbc="F F F"
Hg       0.00000000       0.00000000       0.00000000       0.00000000       0.00000000      -0.01695184
Hg       0.00000000       0.00000000       4.03333333       0.00000000       0.00000000       0.01695184
2
Properties=species:S:1:pos:R:3:forces:R:3 energy=-0.24565753357925374 pbc="F F F"
Hg       0.00000000       0.00000000       0.00000000       0.00000000       0.00000000      -0.01636573
Hg       0.00000000       0.00000000       4.09292929       0.00000000       0.00000000       0.01636573
2
Properties=species:S:1:pos:R:3:forces:R:3 energy=-0.24661427868356212 pbc="F F F"
Hg       0.00000000       0.00000000       0.00000000       0.00000000       0.00000000      -0.01568609
Hg       0.00000000       0.00000000       4.15252525       0.00000000       0.00000000       0.01568609
2
Properties=species:S:1:pos:R:3:forces:R:3 energy=-0.24751754431289152 pbc="F F F"
Hg       0.00000000       0.00000000       0.00000000       0.00000000       0.00000000      -0.01452279
Hg       0.00000000       0.00000000       4.21212121       0.00000000       0.00000000       0.01452279
2
Properties=species:S:1:pos:R:3:forces:R:3 energy=-0.24833083299037018 pbc="F F F"
Hg       0.00000000       0.00000000       0.00000000       0.00000000       0.00000000      -0.01263162
Hg       0.00000000       0.00000000       4.27171717       0.00000000       0.00000000       0.01263162
2
Properties=species:S:1:pos:R:3:forces:R:3 energy=-0.24900687603548718 pbc="F F F"
Hg       0.00000000       0.00000000       0.00000000       0.00000000       0.00000000      -0.00992260
Hg       0.00000000       0.00000000       4.33131313       0.00000000       0.00000000       0.00992260
2
Properties=species:S:1:pos:R:3:forces:R:3 energy=-0.24949827111728604 pbc="F F F"
Hg       0.00000000       0.00000000       0.00000000       0.00000000       0.00000000      -0.00645359
Hg       0.00000000       0.00000000       4.39090909       0.00000000       0.00000000       0.00645359
2
Properties=species:S:1:pos:R:3:forces:R:3 energy=-0.24976480712201055 pbc="F F F"
Hg       0.00000000       0.00000000       0.00000000       0.00000000       0.00000000      -0.00242000
Hg       0.00000000       0.00000000       4.45050505       0.00000000       0.00000000       0.00242000
2
Properties=species:S:1:pos:R:3:forces:R:3 energy=-0.24978138775707634 pbc="F F F"
Hg       0.00000000       0.00000000       0.00000000       0.00000000       0.00000000       0.00187296
Hg       0.00000000       0.00000000       4.51010101       0.00000000       0.00000000      -0.00187296
2
Properties=species:S:1:pos:R:3:forces:R:3 energy=-0.24954401279234878 pbc="F F F"
Hg       0.00000000       0.00000000       0.00000000       0.00000000       0.00000000       0.00603925
Hg       0.00000000       0.00000000       4.56969697       0.00000000       0.00000000      -0.00603925
2
Properties=species:S:1:pos:R:3:forces:R:3 energy=-0.249072751310776 pbc="F F F"
Hg       0.00000000       0.00000000       0.00000000       0.00000000       0.00000000       0.00964895
Hg       0.00000000       0.00000000       4.62929293       0.00000000       0.00000000      -0.00964895
2
Properties=species:S:1:pos:R:3:forces:R:3 energy=-0.24841362665226407 pbc="F F F"
Hg       0.00000000       0.00000000       0.00000000       0.00000000       0.00000000       0.01227229
Hg       0.00000000       0.00000000       4.68888889       0.00000000       0.00000000      -0.01227229
2
Properties=species:S:1:pos:R:3:forces:R:3 energy=-0.2476369151594404 pbc="F F F"
Hg       0.00000000       0.00000000       0.00000000       0.00000000       0.00000000       0.01354037
Hg       0.00000000       0.00000000       4.74848485       0.00000000       0.00000000      -0.01354037
2
Properties=species:S:1:pos:R:3:forces:R:3 energy=-0.24683138999365847 pbc="F F F"
Hg       0.00000000       0.00000000       0.00000000       0.00000000       0.00000000       0.01322210
Hg       0.00000000       0.00000000       4.80808081       0.00000000       0.00000000      -0.01322210
2
Properties=species:S:1:pos:R:3:forces:R:3 energy=-0.24609288777660526 pbc="F F F"
Hg       0.00000000       0.00000000       0.00000000       0.00000000       0.00000000       0.01131096
Hg       0.00000000       0.00000000       4.86767677       0.00000000       0.00000000      -0.01131096
2
Properties=species:S:1:pos:R:3:forces:R:3 energy=-0.2455092584794807 pbc="F F F"
Hg       0.00000000       0.00000000       0.00000000       0.00000000       0.00000000       0.00809630
Hg       0.00000000       0.00000000       4.92727273       0.00000000       0.00000000      -0.00809630
2
Properties=species:S:1:pos:R:3:forces:R:3 energy=-0.24514229031446969 pbc="F F F"
Hg       0.00000000       0.00000000       0.00000000       0.00000000       0.00000000       0.00415849
Hg       0.00000000       0.00000000       4.98686869       0.00000000       0.00000000      -0.00415849
2
Properties=species:S:1:pos:R:3:forces:R:3 energy=-0.24501327936705006 pbc="F F F"
Hg       0.00000000       0.00000000       0.00000000       0.00000000       0.00000000       0.00022556
Hg       0.00000000       0.00000000       5.04646465       0.00000000       0.00000000      -0.00022556
2
Properties=species:S:1:pos:R:3:forces:R:3 energy=-0.24510436659472842 pbc="F F F"
Hg       0.00000000       0.00000000       0.00000000       0.00000000       0.00000000      -0.00317437
Hg       0.00000000       0.00000000       5.10606061       0.00000000       0.00000000       0.00317437
2
Properties=species:S:1:pos:R:3:forces:R:3 energy=-0.24538332062599266 pbc="F F F"
Hg       0.00000000       0.00000000       0.00000000       0.00000000       0.00000000      -0.00617374
Hg       0.00000000       0.00000000       5.16565657       0.00000000       0.00000000       0.00617374
2
Properties=species:S:1:pos:R:3:forces:R:3 energy=-0.24585035274903766 pbc="F F F"
Hg       0.00000000       0.00000000       0.00000000       0.00000000       0.00000000      -0.00967947
Hg       0.00000000       0.00000000       5.22525253       0.00000000       0.00000000       0.00967947
2
Properties=species:S:1:pos:R:3:forces:R:3 energy=-0.2465620519904264 pbc="F F F"
Hg       0.00000000       0.00000000       0.00000000       0.00000000       0.00000000      -0.01438332
Hg       0.00000000       0.00000000       5.28484848       0.00000000       0.00000000       0.01438332
2
Properties=species:S:1:pos:R:3:forces:R:3 energy=-0.24756862323805517 pbc="F F F"
Hg       0.00000000       0.00000000       0.00000000       0.00000000       0.00000000      -0.01923310
Hg       0.00000000       0.00000000       5.34444444       0.00000000       0.00000000       0.01923310
2
Properties=species:S:1:pos:R:3:forces:R:3 energy=-0.24881365950910286 pbc="F F F"
Hg       0.00000000       0.00000000       0.00000000       0.00000000       0.00000000      -0.02208417
Hg       0.00000000       0.00000000       5.40404040       0.00000000       0.00000000       0.02208417
2
Properties=species:S:1:pos:R:3:forces:R:3 energy=-0.25014745164681995 pbc="F F F"
Hg       0.00000000       0.00000000       0.00000000       0.00000000       0.00000000      -0.02229872
Hg       0.00000000       0.00000000       5.46363636       0.00000000       0.00000000       0.02229872
2
Properties=species:S:1:pos:R:3:forces:R:3 energy=-0.2514462402296842 pbc="F F F"
Hg       0.00000000       0.00000000       0.00000000       0.00000000       0.00000000      -0.02127896
Hg       0.00000000       0.00000000       5.52323232       0.00000000       0.00000000       0.02127896
2
Properties=species:S:1:pos:R:3:forces:R:3 energy=-0.2526903664101941 pbc="F F F"
Hg       0.00000000       0.00000000       0.00000000       0.00000000       0.00000000      -0.02054898
Hg       0.00000000       0.00000000       5.58282828       0.00000000       0.00000000       0.02054898
2
Properties=species:S:1:pos:R:3:forces:R:3 energy=-0.25389185133351727 pbc="F F F"
Hg       0.00000000       0.00000000       0.00000000       0.00000000       0.00000000      -0.01955627
Hg       0.00000000       0.00000000       5.64242424       0.00000000       0.00000000       0.01955627
2
Properties=species:S:1:pos:R:3:forces:R:3 energy=-0.25496970870232355 pbc="F F F"
Hg       0.00000000       0.00000000       0.00000000       0.00000000       0.00000000      -0.01600023
Hg       0.00000000       0.00000000       5.70202020       0.00000000       0.00000000       0.01600023
2
Properties=species:S:1:pos:R:3:forces:R:3 energy=-0.25573683017102344 pbc="F F F"
Hg       0.00000000       0.00000000       0.00000000       0.00000000       0.00000000      -0.00946555
Hg       0.00000000       0.00000000       5.76161616       0.00000000       0.00000000       0.00946555
2
Properties=species:S:1:pos:R:3:forces:R:3 energy=-0.2560889047892441 pbc="F F F"
Hg       0.00000000       0.00000000       0.00000000       0.00000000       0.00000000      -0.00249893
Hg       0.00000000       0.00000000       5.82121212       0.00000000       0.00000000       0.00249893
2
Properties=species:S:1:pos:R:3:forces:R:3 energy=-0.2560718714528476 pbc="F F F"
Hg       0.00000000       0.00000000       0.00000000       0.00000000       0.00000000       0.00263018
Hg       0.00000000       0.00000000       5.88080808       0.00000000       0.00000000      -0.00263018
2
Properties=species:S:1:pos:R:3:forces:R:3 energy=-0.25582151578610074 pbc="F F F"
Hg       0.00000000       0.00000000       0.00000000       0.00000000       0.00000000       0.00546882
Hg       0.00000000       0.00000000       5.94040404       0.00000000       0.00000000      -0.00546882
2
Properties=species:S:1:pos:R:3:forces:R:3 energy=-0.25546335745115756 pbc="F F F"
Hg       0.00000000       0.00000000       0.00000000       0.00000000       0.00000000       0.00617705
Hg       0.00000000       0.00000000       6.00000000       0.00000000       0.00000000      -0.00617705
