2
Properties=species:S:1:pos:R:3:forces:R:3 energy=34554.78726762439 pbc="F F F"
Ru       0.00000000       0.00000000       0.00000000       0.00000000       0.00000000 -820392.81250000
Ru       0.00000000       0.00000000       0.10000000       0.00000000       0.00000000  820392.81250000
2
Properties=species:S:1:pos:R:3:forces:R:3 energy=10290.14273637439 pbc="F F F"
Ru       0.00000000       0.00000000       0.00000000       0.00000000       0.00000000 -181633.60937500
Ru       0.00000000       0.00000000       0.15959596       0.00000000       0.00000000  181633.60937500
2
Properties=species:S:1:pos:R:3:forces:R:3 energy=3991.60611528064 pbc="F F F"
Ru       0.00000000       0.00000000       0.00000000       0.00000000       0.00000000  -57545.40625000
Ru       0.00000000       0.00000000       0.21919192       0.00000000       0.00000000   57545.40625000
2
Properties=species:S:1:pos:R:3:forces:R:3 energy=1804.074621143183 pbc="F F F"
Ru       0.00000000       0.00000000       0.00000000       0.00000000       0.00000000  -22288.36523438
Ru       0.00000000       0.00000000       0.27878788       0.00000000       0.00000000   22288.36523438
2
Properties=species:S:1:pos:R:3:forces:R:3 energy=907.4229487799017 pbc="F F F"
Ru       0.00000000       0.00000000       0.00000000       0.00000000       0.00000000   -9751.48535156
Ru       0.00000000       0.00000000       0.33838384       0.00000000       0.00000000    9751.48535156
2
Properties=species:S:1:pos:R:3:forces:R:3 energy=500.11542315147176 pbc="F F F"
Ru       0.00000000       0.00000000       0.00000000       0.00000000       0.00000000   -4626.13574219
Ru       0.00000000       0.00000000       0.39797980       0.00000000       0.00000000    4626.13574219
2
Properties=species:S:1:pos:R:3:forces:R:3 energy=301.4050044629712 pbc="F F F"
Ru       0.00000000       0.00000000       0.00000000       0.00000000       0.00000000   -2332.57128906
Ru       0.00000000       0.00000000       0.45757576       0.00000000       0.00000000    2332.57128906
2
Properties=species:S:1:pos:R:3:forces:R:3 energy=198.85336874929408 pbc="F F F"
Ru       0.00000000       0.00000000       0.00000000       0.00000000       0.00000000   -1237.23437500
Ru       0.00000000       0.00000000       0.51717172       0.00000000       0.00000000    1237.23437500
2
Properties=species:S:1:pos:R:3:forces:R:3 energy=143.41756252239733 pbc="F F F"
Ru       0.00000000       0.00000000       0.00000000       0.00000000       0.00000000    -682.48864746
Ru       0.00000000       0.00000000       0.57676768       0.00000000       0.00000000     682.48864746
2
Properties=species:S:1:pos:R:3:forces:R:3 energy=112.57092868729225 pbc="F F F"
Ru       0.00000000       0.00000000       0.00000000       0.00000000       0.00000000    -381.07907104
Ru       0.00000000       0.00000000       0.63636364       0.00000000       0.00000000     381.07907104
2
Properties=species:S:1:pos:R:3:forces:R:3 energy=95.53803086795422 pbc="F F F"
Ru       0.00000000       0.00000000       0.00000000       0.00000000       0.00000000    -205.89431763
Ru       0.00000000       0.00000000       0.69595960       0.00000000       0.00000000     205.89431763
2
Properties=species:S:1:pos:R:3:forces:R:3 energy=86.5403351383398 pbc="F F F"
Ru       0.00000000       0.00000000       0.00000000       0.00000000       0.00000000    -106.45446777
Ru       0.00000000       0.00000000       0.75555556       0.00000000       0.00000000     106.45446777
2
Properties=species:S:1:pos:R:3:forces:R:3 energy=81.8210437395999 pbc="F F F"
Ru       0.00000000       0.00000000       0.00000000       0.00000000       0.00000000     -58.86216354
Ru       0.00000000       0.00000000       0.81515152       0.00000000       0.00000000      58.86216354
2
Properties=species:S:1:pos:R:3:forces:R:3 energy=78.86496658523664 pbc="F F F"
Ru       0.00000000       0.00000000       0.00000000       0.00000000       0.00000000     -44.73106003
Ru       0.00000000       0.00000000       0.87474747       0.00000000       0.00000000      44.73106003
2
Properties=species:S:1:pos:R:3:forces:R:3 energy=76.06768019348253 pbc="F F F"
Ru       0.00000000       0.00000000       0.00000000       0.00000000       0.00000000     -51.96615219
Ru       0.00000000       0.00000000       0.93434343       0.00000000       0.00000000      51.96615219
2
Properties=species:S:1:pos:R:3:forces:R:3 energy=72.39473026615174 pbc="F F F"
Ru       0.00000000       0.00000000       0.00000000       0.00000000       0.00000000     -73.19966125
Ru       0.00000000       0.00000000       0.99393939       0.00000000       0.00000000      73.19966125
2
Properties=species:S:1:pos:R:3:forces:R:3 energy=67.17363916027186 pbc="F F F"
Ru       0.00000000       0.00000000       0.00000000       0.00000000       0.00000000    -102.81119537
Ru       0.00000000       0.00000000       1.05353535       0.00000000       0.00000000     102.81119537
2
Properties=species:S:1:pos:R:3:forces:R:3 energy=60.13388769211101 pbc="F F F"
Ru       0.00000000       0.00000000       0.00000000       0.00000000       0.00000000    -132.76200867
Ru       0.00000000       0.00000000       1.11313131       0.00000000       0.00000000     132.76200867
2
Properties=species:S:1:pos:R:3:forces:R:3 energy=51.50999591836778 pbc="F F F"
Ru       0.00000000       0.00000000       0.00000000       0.00000000       0.00000000    -154.68725586
Ru       0.00000000       0.00000000       1.17272727       0.00000000       0.00000000     154.68725586
2
Properties=species:S:1:pos:R:3:forces:R:3 energy=41.986606747999616 pbc="F F F"
Ru       0.00000000       0.00000000       0.00000000       0.00000000       0.00000000    -162.20935059
Ru       0.00000000       0.00000000       1.23232323       0.00000000       0.00000000     162.20935059
2
Properties=species:S:1:pos:R:3:forces:R:3 energy=32.46947440974617 pbc="F F F"
Ru       0.00000000       0.00000000       0.00000000       0.00000000       0.00000000    -155.31379700
Ru       0.00000000       0.00000000       1.29191919       0.00000000       0.00000000     155.31379700
2
Properties=species:S:1:pos:R:3:forces:R:3 energy=23.598564116203782 pbc="F F F"
Ru       0.00000000       0.00000000       0.00000000       0.00000000       0.00000000    -142.01690674
Ru       0.00000000       0.00000000       1.35151515       0.00000000       0.00000000     142.01690674
2
Properties=species:S:1:pos:R:3:forces:R:3 energy=15.569133244331418 pbc="F F F"
Ru       0.00000000       0.00000000       0.00000000       0.00000000       0.00000000    -127.02021790
Ru       0.00000000       0.00000000       1.41111111       0.00000000       0.00000000     127.02021790
2
Properties=species:S:1:pos:R:3:forces:R:3 energy=8.561502752454906 pbc="F F F"
Ru       0.00000000       0.00000000       0.00000000       0.00000000       0.00000000    -106.94410706
Ru       0.00000000       0.00000000       1.47070707       0.00000000       0.00000000     106.94410706
2
Properties=species:S:1:pos:R:3:forces:R:3 energy=2.9536464283438164 pbc="F F F"
Ru       0.00000000       0.00000000       0.00000000       0.00000000       0.00000000     -80.61761475
Ru       0.00000000       0.00000000       1.53030303       0.00000000       0.00000000      80.61761475
2
Properties=species:S:1:pos:R:3:forces:R:3 energy=-1.060876260457283 pbc="F F F"
Ru       0.00000000       0.00000000       0.00000000       0.00000000       0.00000000     -54.89665604
Ru       0.00000000       0.00000000       1.58989899       0.00000000       0.00000000      54.89665604
2
Properties=species:S:1:pos:R:3:forces:R:3 energy=-3.7246626056326306 pbc="F F F"
Ru       0.00000000       0.00000000       0.00000000       0.00000000       0.00000000     -35.72746277
Ru       0.00000000       0.00000000       1.64949495       0.00000000       0.00000000      35.72746277
2
Properties=species:S:1:pos:R:3:forces:R:3 energy=-5.448630087355528 pbc="F F F"
Ru       0.00000000       0.00000000       0.00000000       0.00000000       0.00000000     -23.00713158
Ru       0.00000000       0.00000000       1.70909091       0.00000000       0.00000000      23.00713158
2
Properties=species:S:1:pos:R:3:forces:R:3 energy=-6.548298268258748 pbc="F F F"
Ru       0.00000000       0.00000000       0.00000000       0.00000000       0.00000000     -14.42416573
Ru       0.00000000       0.00000000       1.76868687       0.00000000       0.00000000      14.42416573
2
Properties=species:S:1:pos:R:3:forces:R:3 energy=-7.219674816730329 pbc="F F F"
Ru       0.00000000       0.00000000       0.00000000       0.00000000       0.00000000      -8.47851658
Ru       0.00000000       0.00000000       1.82828283       0.00000000       0.00000000       8.47851658
2
Properties=species:S:1:pos:R:3:forces:R:3 energy=-7.598359615224853 pbc="F F F"
Ru       0.00000000       0.00000000       0.00000000       0.00000000       0.00000000      -4.52478790
Ru       0.00000000       0.00000000       1.88787879       0.00000000       0.00000000       4.52478790
2
Properties=species:S:1:pos:R:3:forces:R:3 energy=-7.789741320779 pbc="F F F"
Ru       0.00000000       0.00000000       0.00000000       0.00000000       0.00000000      -2.11791563
Ru       0.00000000       0.00000000       1.94747475       0.00000000       0.00000000       2.11791563
2
Properties=species:S:1:pos:R:3:forces:R:3 energy=-7.872515970080681 pbc="F F F"
Ru       0.00000000       0.00000000       0.00000000       0.00000000       0.00000000      -0.80545592
Ru       0.00000000       0.00000000       2.00707071       0.00000000       0.00000000       0.80545592
2
Properties=species:S:1:pos:R:3:forces:R:3 energy=-7.899072661374608 pbc="F F F"
Ru       0.00000000       0.00000000       0.00000000       0.00000000       0.00000000      -0.16648363
Ru       0.00000000       0.00000000       2.06666667       0.00000000       0.00000000       0.16648363
2
Properties=species:S:1:pos:R:3:forces:R:3 energy=-7.898823685149024 pbc="F F F"
Ru       0.00000000       0.00000000       0.00000000       0.00000000       0.00000000       0.14340128
Ru       0.00000000       0.00000000       2.12626263       0.00000000       0.00000000      -0.14340128
2
Properties=species:S:1:pos:R:3:forces:R:3 energy=-7.883681106283912 pbc="F F F"
Ru       0.00000000       0.00000000       0.00000000       0.00000000       0.00000000       0.36385325
Ru       0.00000000       0.00000000       2.18585859       0.00000000       0.00000000      -0.36385325
2
Properties=species:S:1:pos:R:3:forces:R:3 energy=-7.854637271577936 pbc="F F F"
Ru       0.00000000       0.00000000       0.00000000       0.00000000       0.00000000       0.62247932
Ru       0.00000000       0.00000000       2.24545455       0.00000000       0.00000000      -0.62247932
2
Properties=species:S:1:pos:R:3:forces:R:3 energy=-7.807962659135962 pbc="F F F"
Ru       0.00000000       0.00000000       0.00000000       0.00000000       0.00000000       0.95588636
Ru       0.00000000       0.00000000       2.30505051       0.00000000       0.00000000      -0.95588636
2
Properties=species:S:1:pos:R:3:forces:R:3 energy=-7.739602767183472 pbc="F F F"
Ru       0.00000000       0.00000000       0.00000000       0.00000000       0.00000000       1.34378433
Ru       0.00000000       0.00000000       2.36464646       0.00000000       0.00000000      -1.34378433
2
Properties=species:S:1:pos:R:3:forces:R:3 energy=-7.647645372143042 pbc="F F F"
Ru       0.00000000       0.00000000       0.00000000       0.00000000       0.00000000       1.73902881
Ru       0.00000000       0.00000000       2.42424242       0.00000000       0.00000000      -1.73902881
2
Properties=species:S:1:pos:R:3:forces:R:3 energy=-7.533228571089914 pbc="F F F"
Ru       0.00000000       0.00000000       0.00000000       0.00000000       0.00000000       2.08914208
Ru       0.00000000       0.00000000       2.48383838       0.00000000       0.00000000      -2.08914208
2
Properties=species:S:1:pos:R:3:forces:R:3 energy=-7.400401020053552 pbc="F F F"
Ru       0.00000000       0.00000000       0.00000000       0.00000000       0.00000000       2.35111260
Ru       0.00000000       0.00000000       2.54343434       0.00000000       0.00000000      -2.35111260
2
Properties=species:S:1:pos:R:3:forces:R:3 energy=-7.255229096432813 pbc="F F F"
Ru       0.00000000       0.00000000       0.00000000       0.00000000       0.00000000       2.50145006
Ru       0.00000000       0.00000000       2.60303030       0.00000000       0.00000000      -2.50145006
2
Properties=species:S:1:pos:R:3:forces:R:3 energy=-7.104447282525934 pbc="F F F"
Ru       0.00000000       0.00000000       0.00000000       0.00000000       0.00000000       2.54194760
Ru       0.00000000       0.00000000       2.66262626       0.00000000       0.00000000      -2.54194760
2
Properties=species:S:1:pos:R:3:forces:R:3 energy=-6.953934537640316 pbc="F F F"
Ru       0.00000000       0.00000000       0.00000000       0.00000000       0.00000000       2.49791741
Ru       0.00000000       0.00000000       2.72222222       0.00000000       0.00000000      -2.49791741
2
Properties=species:S:1:pos:R:3:forces:R:3 energy=-6.807772934493071 pbc="F F F"
Ru       0.00000000       0.00000000       0.00000000       0.00000000       0.00000000       2.40007687
Ru       0.00000000       0.00000000       2.78181818       0.00000000       0.00000000      -2.40007687
2
Properties=species:S:1:pos:R:3:forces:R:3 energy=-6.668546925887091 pbc="F F F"
Ru       0.00000000       0.00000000       0.00000000       0.00000000       0.00000000       2.26807499
Ru       0.00000000       0.00000000       2.84141414       0.00000000       0.00000000      -2.26807499
2
Properties=species:S:1:pos:R:3:forces:R:3 energy=-6.537674564309597 pbc="F F F"
Ru       0.00000000       0.00000000       0.00000000       0.00000000       0.00000000       2.12446594
Ru       0.00000000       0.00000000       2.90101010       0.00000000       0.00000000      -2.12446594
2
Properties=species:S:1:pos:R:3:forces:R:3 energy=-6.414971327683621 pbc="F F F"
Ru       0.00000000       0.00000000       0.00000000       0.00000000       0.00000000       1.99828672
Ru       0.00000000       0.00000000       2.96060606       0.00000000       0.00000000      -1.99828672
2
Properties=species:S:1:pos:R:3:forces:R:3 energy=-6.298798805827366 pbc="F F F"
Ru       0.00000000       0.00000000       0.00000000       0.00000000       0.00000000       1.90636051
Ru       0.00000000       0.00000000       3.02020202       0.00000000       0.00000000      -1.90636051
2
Properties=species:S:1:pos:R:3:forces:R:3 energy=-6.187135801818941 pbc="F F F"
Ru       0.00000000       0.00000000       0.00000000       0.00000000       0.00000000       1.84485936
Ru       0.00000000       0.00000000       3.07979798       0.00000000       0.00000000      -1.84485936
2
Properties=species:S:1:pos:R:3:forces:R:3 energy=-6.078642110147307 pbc="F F F"
Ru       0.00000000       0.00000000       0.00000000       0.00000000       0.00000000       1.79663491
Ru       0.00000000       0.00000000       3.13939394       0.00000000       0.00000000      -1.79663491
2
Properties=species:S:1:pos:R:3:forces:R:3 energy=-5.97309684392023 pbc="F F F"
Ru       0.00000000       0.00000000       0.00000000       0.00000000       0.00000000       1.74330437
Ru       0.00000000       0.00000000       3.19898990       0.00000000       0.00000000      -1.74330437
2
Properties=species:S:1:pos:R:3:forces:R:3 energy=-5.871195074667398 pbc="F F F"
Ru       0.00000000       0.00000000       0.00000000       0.00000000       0.00000000       1.67312860
Ru       0.00000000       0.00000000       3.25858586       0.00000000       0.00000000      -1.67312860
2
Properties=species:S:1:pos:R:3:forces:R:3 energy=-5.774083969877003 pbc="F F F"
Ru       0.00000000       0.00000000       0.00000000       0.00000000       0.00000000       1.58250856
Ru       0.00000000       0.00000000       3.31818182       0.00000000       0.00000000      -1.58250856
2
Properties=species:S:1:pos:R:3:forces:R:3 energy=-5.682934306140144 pbc="F F F"
Ru       0.00000000       0.00000000       0.00000000       0.00000000       0.00000000       1.47381568
Ru       0.00000000       0.00000000       3.37777778       0.00000000       0.00000000      -1.47381568
2
Properties=species:S:1:pos:R:3:forces:R:3 energy=-5.5986641363540715 pbc="F F F"
Ru       0.00000000       0.00000000       0.00000000       0.00000000       0.00000000       1.35273659
Ru       0.00000000       0.00000000       3.43737374       0.00000000       0.00000000      -1.35273659
2
Properties=species:S:1:pos:R:3:forces:R:3 energy=-5.521800321548791 pbc="F F F"
Ru       0.00000000       0.00000000       0.00000000       0.00000000       0.00000000       1.22657180
Ru       0.00000000       0.00000000       3.49696970       0.00000000       0.00000000      -1.22657180
2
Properties=species:S:1:pos:R:3:forces:R:3 energy=-5.452413330909271 pbc="F F F"
Ru       0.00000000       0.00000000       0.00000000       0.00000000       0.00000000       1.10305905
Ru       0.00000000       0.00000000       3.55656566       0.00000000       0.00000000      -1.10305905
2
Properties=species:S:1:pos:R:3:forces:R:3 energy=-5.390133504923978 pbc="F F F"
Ru       0.00000000       0.00000000       0.00000000       0.00000000       0.00000000       0.98908263
Ru       0.00000000       0.00000000       3.61616162       0.00000000       0.00000000      -0.98908263
2
Properties=species:S:1:pos:R:3:forces:R:3 energy=-5.334240318968127 pbc="F F F"
Ru       0.00000000       0.00000000       0.00000000       0.00000000       0.00000000       0.88922435
Ru       0.00000000       0.00000000       3.67575758       0.00000000       0.00000000      -0.88922435
2
Properties=species:S:1:pos:R:3:forces:R:3 energy=-5.283836574586241 pbc="F F F"
Ru       0.00000000       0.00000000       0.00000000       0.00000000       0.00000000       0.80478519
Ru       0.00000000       0.00000000       3.73535354       0.00000000       0.00000000      -0.80478519
2
Properties=species:S:1:pos:R:3:forces:R:3 energy=-5.2380467130648105 pbc="F F F"
Ru       0.00000000       0.00000000       0.00000000       0.00000000       0.00000000       0.73383868
Ru       0.00000000       0.00000000       3.79494949       0.00000000       0.00000000      -0.73383868
2
Properties=species:S:1:pos:R:3:forces:R:3 energy=-5.1961805479756 pbc="F F F"
Ru       0.00000000       0.00000000       0.00000000       0.00000000       0.00000000       0.67234832
Ru       0.00000000       0.00000000       3.85454545       0.00000000       0.00000000      -0.67234832
2
Properties=species:S:1:pos:R:3:forces:R:3 energy=-5.157810919940343 pbc="F F F"
Ru       0.00000000       0.00000000       0.00000000       0.00000000       0.00000000       0.61581182
Ru       0.00000000       0.00000000       3.91414141       0.00000000       0.00000000      -0.61581182
2
Properties=species:S:1:pos:R:3:forces:R:3 energy=-5.122754203328057 pbc="F F F"
Ru       0.00000000       0.00000000       0.00000000       0.00000000       0.00000000       0.56066400
Ru       0.00000000       0.00000000       3.97373737       0.00000000       0.00000000      -0.56066400
2
Properties=species:S:1:pos:R:3:forces:R:3 energy=-5.090994069330532 pbc="F F F"
Ru       0.00000000       0.00000000       0.00000000       0.00000000       0.00000000       0.50507385
Ru       0.00000000       0.00000000       4.03333333       0.00000000       0.00000000      -0.50507385
2
Properties=species:S:1:pos:R:3:forces:R:3 energy=-5.062563548793141 pbc="F F F"
Ru       0.00000000       0.00000000       0.00000000       0.00000000       0.00000000       0.44903505
Ru       0.00000000       0.00000000       4.09292929       0.00000000       0.00000000      -0.44903505
2
Properties=species:S:1:pos:R:3:forces:R:3 energy=-5.037453065999756 pbc="F F F"
Ru       0.00000000       0.00000000       0.00000000       0.00000000       0.00000000       0.39400044
Ru       0.00000000       0.00000000       4.15252525       0.00000000       0.00000000      -0.39400044
2
Properties=species:S:1:pos:R:3:forces:R:3 energy=-5.015536383193403 pbc="F F F"
Ru       0.00000000       0.00000000       0.00000000       0.00000000       0.00000000       0.34228885
Ru       0.00000000       0.00000000       4.21212121       0.00000000       0.00000000      -0.34228885
2
Properties=species:S:1:pos:R:3:forces:R:3 energy=-4.996538099621777 pbc="F F F"
Ru       0.00000000       0.00000000       0.00000000       0.00000000       0.00000000       0.29645878
Ru       0.00000000       0.00000000       4.27171717       0.00000000       0.00000000      -0.29645878
2
Properties=species:S:1:pos:R:3:forces:R:3 energy=-4.980038751026157 pbc="F F F"
Ru       0.00000000       0.00000000       0.00000000       0.00000000       0.00000000       0.25874853
Ru       0.00000000       0.00000000       4.33131313       0.00000000       0.00000000      -0.25874853
2
Properties=species:S:1:pos:R:3:forces:R:3 energy=-4.965506631018128 pbc="F F F"
Ru       0.00000000       0.00000000       0.00000000       0.00000000       0.00000000       0.23059015
Ru       0.00000000       0.00000000       4.39090909       0.00000000       0.00000000      -0.23059015
2
Properties=species:S:1:pos:R:3:forces:R:3 energy=-4.952357300689685 pbc="F F F"
Ru       0.00000000       0.00000000       0.00000000       0.00000000       0.00000000       0.21229118
Ru       0.00000000       0.00000000       4.45050505       0.00000000       0.00000000      -0.21229118
2
Properties=species:S:1:pos:R:3:forces:R:3 energy=-4.940025833442443 pbc="F F F"
Ru       0.00000000       0.00000000       0.00000000       0.00000000       0.00000000       0.20289376
Ru       0.00000000       0.00000000       4.51010101       0.00000000       0.00000000      -0.20289376
2
Properties=species:S:1:pos:R:3:forces:R:3 energy=-4.9280381948415535 pbc="F F F"
Ru       0.00000000       0.00000000       0.00000000       0.00000000       0.00000000       0.20029612
Ru       0.00000000       0.00000000       4.56969697       0.00000000       0.00000000      -0.20029612
2
Properties=species:S:1:pos:R:3:forces:R:3 energy=-4.916073660766087 pbc="F F F"
Ru       0.00000000       0.00000000       0.00000000       0.00000000       0.00000000       0.20163719
Ru       0.00000000       0.00000000       4.62929293       0.00000000       0.00000000      -0.20163719
2
Properties=species:S:1:pos:R:3:forces:R:3 energy=-4.903987976521354 pbc="F F F"
Ru       0.00000000       0.00000000       0.00000000       0.00000000       0.00000000       0.20386662
Ru       0.00000000       0.00000000       4.68888889       0.00000000       0.00000000      -0.20386662
2
Properties=species:S:1:pos:R:3:forces:R:3 energy=-4.89180948828866 pbc="F F F"
Ru       0.00000000       0.00000000       0.00000000       0.00000000       0.00000000       0.20435861
Ru       0.00000000       0.00000000       4.74848485       0.00000000       0.00000000      -0.20435861
2
Properties=species:S:1:pos:R:3:forces:R:3 energy=-4.879699391410955 pbc="F F F"
Ru       0.00000000       0.00000000       0.00000000       0.00000000       0.00000000       0.20140523
Ru       0.00000000       0.00000000       4.80808081       0.00000000       0.00000000      -0.20140523
2
Properties=species:S:1:pos:R:3:forces:R:3 energy=-4.867883602867833 pbc="F F F"
Ru       0.00000000       0.00000000       0.00000000       0.00000000       0.00000000       0.19445455
Ru       0.00000000       0.00000000       4.86767677       0.00000000       0.00000000      -0.19445455
2
Properties=species:S:1:pos:R:3:forces:R:3 energy=-4.856590693249412 pbc="F F F"
Ru       0.00000000       0.00000000       0.00000000       0.00000000       0.00000000       0.18404131
Ru       0.00000000       0.00000000       4.92727273       0.00000000       0.00000000      -0.18404131
2
Properties=species:S:1:pos:R:3:forces:R:3 energy=-4.845990778740174 pbc="F F F"
Ru       0.00000000       0.00000000       0.00000000       0.00000000       0.00000000       0.17143531
Ru       0.00000000       0.00000000       4.98686869       0.00000000       0.00000000      -0.17143531
2
Properties=species:S:1:pos:R:3:forces:R:3 energy=-4.83617225588461 pbc="F F F"
Ru       0.00000000       0.00000000       0.00000000       0.00000000       0.00000000       0.15808170
Ru       0.00000000       0.00000000       5.04646465       0.00000000       0.00000000      -0.15808170
2
Properties=species:S:1:pos:R:3:forces:R:3 energy=-4.827143621820745 pbc="F F F"
Ru       0.00000000       0.00000000       0.00000000       0.00000000       0.00000000       0.14499684
Ru       0.00000000       0.00000000       5.10606061       0.00000000       0.00000000      -0.14499684
2
Properties=species:S:1:pos:R:3:forces:R:3 energy=-4.818877490602422 pbc="F F F"
Ru       0.00000000       0.00000000       0.00000000       0.00000000       0.00000000       0.13246547
Ru       0.00000000       0.00000000       5.16565657       0.00000000       0.00000000      -0.13246547
2
Properties=species:S:1:pos:R:3:forces:R:3 energy=-4.81134728906964 pbc="F F F"
Ru       0.00000000       0.00000000       0.00000000       0.00000000       0.00000000       0.12028173
Ru       0.00000000       0.00000000       5.22525253       0.00000000       0.00000000      -0.12028173
2
Properties=species:S:1:pos:R:3:forces:R:3 energy=-4.804540178969157 pbc="F F F"
Ru       0.00000000       0.00000000       0.00000000       0.00000000       0.00000000       0.10813867
Ru       0.00000000       0.00000000       5.28484848       0.00000000       0.00000000      -0.10813867
2
Properties=species:S:1:pos:R:3:forces:R:3 energy=-4.7984681350829055 pbc="F F F"
Ru       0.00000000       0.00000000       0.00000000       0.00000000       0.00000000       0.09546992
Ru       0.00000000       0.00000000       5.34444444       0.00000000       0.00000000      -0.09546992
2
Properties=species:S:1:pos:R:3:forces:R:3 energy=-4.793186545044982 pbc="F F F"
Ru       0.00000000       0.00000000       0.00000000       0.00000000       0.00000000       0.08153781
Ru       0.00000000       0.00000000       5.40404040       0.00000000       0.00000000      -0.08153781
2
Properties=species:S:1:pos:R:3:forces:R:3 energy=-4.788767137329583 pbc="F F F"
Ru       0.00000000       0.00000000       0.00000000       0.00000000       0.00000000       0.06674336
Ru       0.00000000       0.00000000       5.46363636       0.00000000       0.00000000      -0.06674336
2
Properties=species:S:1:pos:R:3:forces:R:3 energy=-4.785205497017073 pbc="F F F"
Ru       0.00000000       0.00000000       0.00000000       0.00000000       0.00000000       0.05328333
Ru       0.00000000       0.00000000       5.52323232       0.00000000       0.00000000      -0.05328333
2
Properties=species:S:1:pos:R:3:forces:R:3 energy=-4.7823415258554 pbc="F F F"
Ru       0.00000000       0.00000000       0.00000000       0.00000000       0.00000000       0.04355910
Ru       0.00000000       0.00000000       5.58282828       0.00000000       0.00000000      -0.04355910
2
Properties=species:S:1:pos:R:3:forces:R:3 energy=-4.779933828856779 pbc="F F F"
Ru       0.00000000       0.00000000       0.00000000       0.00000000       0.00000000       0.03774298
Ru       0.00000000       0.00000000       5.64242424       0.00000000       0.00000000      -0.03774298
2
Properties=species:S:1:pos:R:3:forces:R:3 energy=-4.777817642431724 pbc="F F F"
Ru       0.00000000       0.00000000       0.00000000       0.00000000       0.00000000       0.03317126
Ru       0.00000000       0.00000000       5.70202020       0.00000000       0.00000000      -0.03317126
2
Properties=species:S:1:pos:R:3:forces:R:3 energy=-4.776004999494617 pbc="F F F"
Ru       0.00000000       0.00000000       0.00000000       0.00000000       0.00000000       0.02748046
Ru       0.00000000       0.00000000       5.76161616       0.00000000       0.00000000      -0.02748046
2
Properties=species:S:1:pos:R:3:forces:R:3 energy=-4.774556944232922 pbc="F F F"
Ru       0.00000000       0.00000000       0.00000000       0.00000000       0.00000000       0.02110320
Ru       0.00000000       0.00000000       5.82121212       0.00000000       0.00000000      -0.02110320
2
Properties=species:S:1:pos:R:3:forces:R:3 energy=-4.773471551402726 pbc="F F F"
Ru       0.00000000       0.00000000       0.00000000       0.00000000       0.00000000       0.01561694
Ru       0.00000000       0.00000000       5.88080808       0.00000000       0.00000000      -0.01561694
2
Properties=species:S:1:pos:R:3:forces:R:3 energy=-4.772659599714126 pbc="F F F"
Ru       0.00000000       0.00000000       0.00000000       0.00000000       0.00000000       0.01189542
Ru       0.00000000       0.00000000       5.94040404       0.00000000       0.00000000      -0.01189542
2
Properties=species:S:1:pos:R:3:forces:R:3 energy=-4.772012320721552 pbc="F F F"
Ru       0.00000000       0.00000000       0.00000000       0.00000000       0.00000000       0.01020642
Ru       0.00000000       0.00000000       6.00000000       0.00000000       0.00000000      -0.01020642
