2
Properties=species:S:1:pos:R:3:forces:R:3 energy=6725.481526111008 pbc="F F F"
S        0.00000000       0.00000000       0.00000000       0.00000000       0.00000000 -141092.68750000
S        0.00000000       0.00000000       0.10000000       0.00000000       0.00000000  141092.68750000
2
Properties=species:S:1:pos:R:3:forces:R:3 energy=2319.680744861008 pbc="F F F"
S        0.00000000       0.00000000       0.00000000       0.00000000       0.00000000  -35700.58593750
S        0.00000000       0.00000000       0.15959596       0.00000000       0.00000000   35700.58593750
2
Properties=species:S:1:pos:R:3:forces:R:3 energy=1028.2711989625705 pbc="F F F"
S        0.00000000       0.00000000       0.00000000       0.00000000       0.00000000  -12471.51757812
S        0.00000000       0.00000000       0.21919192       0.00000000       0.00000000   12471.51757812
2
Properties=species:S:1:pos:R:3:forces:R:3 energy=537.2168166383517 pbc="F F F"
S        0.00000000       0.00000000       0.00000000       0.00000000       0.00000000   -5238.25781250
S        0.00000000       0.00000000       0.27878788       0.00000000       0.00000000    5238.25781250
2
Properties=species:S:1:pos:R:3:forces:R:3 energy=319.4602553653905 pbc="F F F"
S        0.00000000       0.00000000       0.00000000       0.00000000       0.00000000   -2467.22631836
S        0.00000000       0.00000000       0.33838384       0.00000000       0.00000000    2467.22631836
2
Properties=species:S:1:pos:R:3:forces:R:3 energy=213.56094813025305 pbc="F F F"
S        0.00000000       0.00000000       0.00000000       0.00000000       0.00000000   -1239.05932617
S        0.00000000       0.00000000       0.39797980       0.00000000       0.00000000    1239.05932617
2
Properties=species:S:1:pos:R:3:forces:R:3 energy=159.65648343708375 pbc="F F F"
S        0.00000000       0.00000000       0.00000000       0.00000000       0.00000000    -637.35729980
S        0.00000000       0.00000000       0.45757576       0.00000000       0.00000000     637.35729980
2
Properties=species:S:1:pos:R:3:forces:R:3 energy=131.9370163310186 pbc="F F F"
S        0.00000000       0.00000000       0.00000000       0.00000000       0.00000000    -325.74511719
S        0.00000000       0.00000000       0.51717172       0.00000000       0.00000000     325.74511719
2
Properties=species:S:1:pos:R:3:forces:R:3 energy=117.96732038746704 pbc="F F F"
S        0.00000000       0.00000000       0.00000000       0.00000000       0.00000000    -161.30503845
S        0.00000000       0.00000000       0.57676768       0.00000000       0.00000000     161.30503845
2
Properties=species:S:1:pos:R:3:forces:R:3 energy=110.88548767278725 pbc="F F F"
S        0.00000000       0.00000000       0.00000000       0.00000000       0.00000000     -89.51377106
S        0.00000000       0.00000000       0.63636364       0.00000000       0.00000000      89.51377106
2
Properties=species:S:1:pos:R:3:forces:R:3 energy=105.96193447842309 pbc="F F F"
S        0.00000000       0.00000000       0.00000000       0.00000000       0.00000000     -84.82860565
S        0.00000000       0.00000000       0.69595960       0.00000000       0.00000000      84.82860565
2
Properties=species:S:1:pos:R:3:forces:R:3 energy=99.95460304843108 pbc="F F F"
S        0.00000000       0.00000000       0.00000000       0.00000000       0.00000000    -121.50560760
S        0.00000000       0.00000000       0.75555556       0.00000000       0.00000000     121.50560760
2
Properties=species:S:1:pos:R:3:forces:R:3 energy=91.15731668835518 pbc="F F F"
S        0.00000000       0.00000000       0.00000000       0.00000000       0.00000000    -174.31596375
S        0.00000000       0.00000000       0.81515152       0.00000000       0.00000000     174.31596375
2
Properties=species:S:1:pos:R:3:forces:R:3 energy=79.41110940343434 pbc="F F F"
S        0.00000000       0.00000000       0.00000000       0.00000000       0.00000000    -215.11891174
S        0.00000000       0.00000000       0.87474747       0.00000000       0.00000000     215.11891174
2
Properties=species:S:1:pos:R:3:forces:R:3 energy=66.28077010706261 pbc="F F F"
S        0.00000000       0.00000000       0.00000000       0.00000000       0.00000000    -219.57655334
S        0.00000000       0.00000000       0.93434343       0.00000000       0.00000000     219.57655334
2
Properties=species:S:1:pos:R:3:forces:R:3 energy=53.62048974603325 pbc="F F F"
S        0.00000000       0.00000000       0.00000000       0.00000000       0.00000000    -204.30578613
S        0.00000000       0.00000000       0.99393939       0.00000000       0.00000000     204.30578613
2
Properties=species:S:1:pos:R:3:forces:R:3 energy=42.002137349879156 pbc="F F F"
S        0.00000000       0.00000000       0.00000000       0.00000000       0.00000000    -184.89379883
S        0.00000000       0.00000000       1.05353535       0.00000000       0.00000000     184.89379883
2
Properties=species:S:1:pos:R:3:forces:R:3 energy=31.654160062783237 pbc="F F F"
S        0.00000000       0.00000000       0.00000000       0.00000000       0.00000000    -162.05487061
S        0.00000000       0.00000000       1.11313131       0.00000000       0.00000000     162.05487061
2
Properties=species:S:1:pos:R:3:forces:R:3 energy=22.700964905229124 pbc="F F F"
S        0.00000000       0.00000000       0.00000000       0.00000000       0.00000000    -138.28611755
S        0.00000000       0.00000000       1.17272727       0.00000000       0.00000000     138.28611755
2
Properties=species:S:1:pos:R:3:forces:R:3 energy=15.202749000832828 pbc="F F F"
S        0.00000000       0.00000000       0.00000000       0.00000000       0.00000000    -113.10429382
S        0.00000000       0.00000000       1.23232323       0.00000000       0.00000000     113.10429382
2
Properties=species:S:1:pos:R:3:forces:R:3 energy=9.206987499011179 pbc="F F F"
S        0.00000000       0.00000000       0.00000000       0.00000000       0.00000000     -88.61814117
S        0.00000000       0.00000000       1.29191919       0.00000000       0.00000000      88.61814117
2
Properties=species:S:1:pos:R:3:forces:R:3 energy=4.555124280554743 pbc="F F F"
S        0.00000000       0.00000000       0.00000000       0.00000000       0.00000000     -68.25093842
S        0.00000000       0.00000000       1.35151515       0.00000000       0.00000000      68.25093842
2
Properties=species:S:1:pos:R:3:forces:R:3 energy=0.9938172416750409 pbc="F F F"
S        0.00000000       0.00000000       0.00000000       0.00000000       0.00000000     -51.79605865
S        0.00000000       0.00000000       1.41111111       0.00000000       0.00000000      51.79605865
2
Properties=species:S:1:pos:R:3:forces:R:3 energy=-1.6730175511148462 pbc="F F F"
S        0.00000000       0.00000000       0.00000000       0.00000000       0.00000000     -38.14682388
S        0.00000000       0.00000000       1.47070707       0.00000000       0.00000000      38.14682388
2
Properties=species:S:1:pos:R:3:forces:R:3 energy=-3.6102485196324308 pbc="F F F"
S        0.00000000       0.00000000       0.00000000       0.00000000       0.00000000     -27.35920715
S        0.00000000       0.00000000       1.53030303       0.00000000       0.00000000      27.35920715
2
Properties=species:S:1:pos:R:3:forces:R:3 energy=-4.9874980793026005 pbc="F F F"
S        0.00000000       0.00000000       0.00000000       0.00000000       0.00000000     -19.24162102
S        0.00000000       0.00000000       1.58989899       0.00000000       0.00000000      19.24162102
2
Properties=species:S:1:pos:R:3:forces:R:3 energy=-5.941884823249552 pbc="F F F"
S        0.00000000       0.00000000       0.00000000       0.00000000       0.00000000     -13.06434250
S        0.00000000       0.00000000       1.64949495       0.00000000       0.00000000      13.06434250
2
Properties=species:S:1:pos:R:3:forces:R:3 energy=-6.574935697922531 pbc="F F F"
S        0.00000000       0.00000000       0.00000000       0.00000000       0.00000000      -8.41353035
S        0.00000000       0.00000000       1.70909091       0.00000000       0.00000000       8.41353035
2
Properties=species:S:1:pos:R:3:forces:R:3 energy=-6.96913599432284 pbc="F F F"
S        0.00000000       0.00000000       0.00000000       0.00000000       0.00000000      -4.98659182
S        0.00000000       0.00000000       1.76868687       0.00000000       0.00000000       4.98659182
2
Properties=species:S:1:pos:R:3:forces:R:3 energy=-7.1855322971130136 pbc="F F F"
S        0.00000000       0.00000000       0.00000000       0.00000000       0.00000000      -2.38179851
S        0.00000000       0.00000000       1.82828283       0.00000000       0.00000000       2.38179851
2
Properties=species:S:1:pos:R:3:forces:R:3 energy=-7.263525092131226 pbc="F F F"
S        0.00000000       0.00000000       0.00000000       0.00000000       0.00000000      -0.31326506
S        0.00000000       0.00000000       1.88787879       0.00000000       0.00000000       0.31326506
2
Properties=species:S:1:pos:R:3:forces:R:3 energy=-7.231760693430253 pbc="F F F"
S        0.00000000       0.00000000       0.00000000       0.00000000       0.00000000       1.30638051
S        0.00000000       0.00000000       1.94747475       0.00000000       0.00000000      -1.30638051
2
Properties=species:S:1:pos:R:3:forces:R:3 energy=-7.116097698323129 pbc="F F F"
S        0.00000000       0.00000000       0.00000000       0.00000000       0.00000000       2.51127267
S        0.00000000       0.00000000       2.00707071       0.00000000       0.00000000      -2.51127267
2
Properties=species:S:1:pos:R:3:forces:R:3 energy=-6.93908446889242 pbc="F F F"
S        0.00000000       0.00000000       0.00000000       0.00000000       0.00000000       3.38203120
S        0.00000000       0.00000000       2.06666667       0.00000000       0.00000000      -3.38203120
2
Properties=species:S:1:pos:R:3:forces:R:3 energy=-6.717715120484611 pbc="F F F"
S        0.00000000       0.00000000       0.00000000       0.00000000       0.00000000       4.01317978
S        0.00000000       0.00000000       2.12626263       0.00000000       0.00000000      -4.01317978
2
Properties=species:S:1:pos:R:3:forces:R:3 energy=-6.464349826928902 pbc="F F F"
S        0.00000000       0.00000000       0.00000000       0.00000000       0.00000000       4.46209097
S        0.00000000       0.00000000       2.18585859       0.00000000       0.00000000      -4.46209097
2
Properties=species:S:1:pos:R:3:forces:R:3 energy=-6.188756678430323 pbc="F F F"
S        0.00000000       0.00000000       0.00000000       0.00000000       0.00000000       4.76662302
S        0.00000000       0.00000000       2.24545455       0.00000000       0.00000000      -4.76662302
2
Properties=species:S:1:pos:R:3:forces:R:3 energy=-5.8980010648525 pbc="F F F"
S        0.00000000       0.00000000       0.00000000       0.00000000       0.00000000       4.98054600
S        0.00000000       0.00000000       2.30505051       0.00000000       0.00000000      -4.98054600
2
Properties=species:S:1:pos:R:3:forces:R:3 energy=-5.5960133776523096 pbc="F F F"
S        0.00000000       0.00000000       0.00000000       0.00000000       0.00000000       5.14741325
S        0.00000000       0.00000000       2.36464646       0.00000000       0.00000000      -5.14741325
2
Properties=species:S:1:pos:R:3:forces:R:3 energy=-5.285445751921469 pbc="F F F"
S        0.00000000       0.00000000       0.00000000       0.00000000       0.00000000       5.26432371
S        0.00000000       0.00000000       2.42424242       0.00000000       0.00000000      -5.26432371
2
Properties=species:S:1:pos:R:3:forces:R:3 energy=-4.970147091832246 pbc="F F F"
S        0.00000000       0.00000000       0.00000000       0.00000000       0.00000000       5.30117321
S        0.00000000       0.00000000       2.48383838       0.00000000       0.00000000      -5.30117321
2
Properties=species:S:1:pos:R:3:forces:R:3 energy=-4.655604624694072 pbc="F F F"
S        0.00000000       0.00000000       0.00000000       0.00000000       0.00000000       5.23721552
S        0.00000000       0.00000000       2.54343434       0.00000000       0.00000000      -5.23721552
2
Properties=species:S:1:pos:R:3:forces:R:3 energy=-4.347974546367881 pbc="F F F"
S        0.00000000       0.00000000       0.00000000       0.00000000       0.00000000       5.06995773
S        0.00000000       0.00000000       2.60303030       0.00000000       0.00000000      -5.06995773
2
Properties=species:S:1:pos:R:3:forces:R:3 energy=-4.053205554506595 pbc="F F F"
S        0.00000000       0.00000000       0.00000000       0.00000000       0.00000000       4.80722618
S        0.00000000       0.00000000       2.66262626       0.00000000       0.00000000      -4.80722618
2
Properties=species:S:1:pos:R:3:forces:R:3 energy=-3.7766206098877073 pbc="F F F"
S        0.00000000       0.00000000       0.00000000       0.00000000       0.00000000       4.46252298
S        0.00000000       0.00000000       2.72222222       0.00000000       0.00000000      -4.46252298
2
Properties=species:S:1:pos:R:3:forces:R:3 energy=-3.5225765843718264 pbc="F F F"
S        0.00000000       0.00000000       0.00000000       0.00000000       0.00000000       4.05423594
S        0.00000000       0.00000000       2.78181818       0.00000000       0.00000000      -4.05423594
2
Properties=species:S:1:pos:R:3:forces:R:3 energy=-3.2942163131364923 pbc="F F F"
S        0.00000000       0.00000000       0.00000000       0.00000000       0.00000000       3.60433412
S        0.00000000       0.00000000       2.84141414       0.00000000       0.00000000      -3.60433412
2
Properties=species:S:1:pos:R:3:forces:R:3 energy=-3.093335300805973 pbc="F F F"
S        0.00000000       0.00000000       0.00000000       0.00000000       0.00000000       3.13596487
S        0.00000000       0.00000000       2.90101010       0.00000000       0.00000000      -3.13596487
2
Properties=species:S:1:pos:R:3:forces:R:3 energy=-2.9203661654609823 pbc="F F F"
S        0.00000000       0.00000000       0.00000000       0.00000000       0.00000000       2.67099571
S        0.00000000       0.00000000       2.96060606       0.00000000       0.00000000      -2.67099571
2
Properties=species:S:1:pos:R:3:forces:R:3 energy=-2.7745251659406476 pbc="F F F"
S        0.00000000       0.00000000       0.00000000       0.00000000       0.00000000       2.22846222
S        0.00000000       0.00000000       3.02020202       0.00000000       0.00000000      -2.22846222
2
Properties=species:S:1:pos:R:3:forces:R:3 energy=-2.6539987153430054 pbc="F F F"
S        0.00000000       0.00000000       0.00000000       0.00000000       0.00000000       1.82366014
S        0.00000000       0.00000000       3.07979798       0.00000000       0.00000000      -1.82366014
2
Properties=species:S:1:pos:R:3:forces:R:3 energy=-2.5561916791441255 pbc="F F F"
S        0.00000000       0.00000000       0.00000000       0.00000000       0.00000000       1.46742809
S        0.00000000       0.00000000       3.13939394       0.00000000       0.00000000      -1.46742809
2
Properties=species:S:1:pos:R:3:forces:R:3 energy=-2.4780063144404276 pbc="F F F"
S        0.00000000       0.00000000       0.00000000       0.00000000       0.00000000       1.16573143
S        0.00000000       0.00000000       3.19898990       0.00000000       0.00000000      -1.16573143
2
Properties=species:S:1:pos:R:3:forces:R:3 energy=-2.41613487674157 pbc="F F F"
S        0.00000000       0.00000000       0.00000000       0.00000000       0.00000000       0.91982055
S        0.00000000       0.00000000       3.25858586       0.00000000       0.00000000      -0.91982055
2
Properties=species:S:1:pos:R:3:forces:R:3 energy=-2.3673132639965577 pbc="F F F"
S        0.00000000       0.00000000       0.00000000       0.00000000       0.00000000       0.72708178
S        0.00000000       0.00000000       3.31818182       0.00000000       0.00000000      -0.72708178
2
Properties=species:S:1:pos:R:3:forces:R:3 energy=-2.3285212810326255 pbc="F F F"
S        0.00000000       0.00000000       0.00000000       0.00000000       0.00000000       0.58218592
S        0.00000000       0.00000000       3.37777778       0.00000000       0.00000000      -0.58218592
2
Properties=species:S:1:pos:R:3:forces:R:3 energy=-2.2971081205877524 pbc="F F F"
S        0.00000000       0.00000000       0.00000000       0.00000000       0.00000000       0.47823066
S        0.00000000       0.00000000       3.43737374       0.00000000       0.00000000      -0.47823066
2
Properties=species:S:1:pos:R:3:forces:R:3 energy=-2.2708567236557333 pbc="F F F"
S        0.00000000       0.00000000       0.00000000       0.00000000       0.00000000       0.40766281
S        0.00000000       0.00000000       3.49696970       0.00000000       0.00000000      -0.40766281
2
Properties=species:S:1:pos:R:3:forces:R:3 energy=-2.2480041005022904 pbc="F F F"
S        0.00000000       0.00000000       0.00000000       0.00000000       0.00000000       0.36294824
S        0.00000000       0.00000000       3.55656566       0.00000000       0.00000000      -0.36294824
2
Properties=species:S:1:pos:R:3:forces:R:3 energy=-2.227222844137682 pbc="F F F"
S        0.00000000       0.00000000       0.00000000       0.00000000       0.00000000       0.33704850
S        0.00000000       0.00000000       3.61616162       0.00000000       0.00000000      -0.33704850
2
Properties=species:S:1:pos:R:3:forces:R:3 energy=-2.207581194036754 pbc="F F F"
S        0.00000000       0.00000000       0.00000000       0.00000000       0.00000000       0.32375485
S        0.00000000       0.00000000       3.67575758       0.00000000       0.00000000      -0.32375485
2
Properties=species:S:1:pos:R:3:forces:R:3 energy=-2.1884868826438755 pbc="F F F"
S        0.00000000       0.00000000       0.00000000       0.00000000       0.00000000       0.31790960
S        0.00000000       0.00000000       3.73535354       0.00000000       0.00000000      -0.31790960
2
Properties=species:S:1:pos:R:3:forces:R:3 energy=-2.1696214894842205 pbc="F F F"
S        0.00000000       0.00000000       0.00000000       0.00000000       0.00000000       0.31550774
S        0.00000000       0.00000000       3.79494949       0.00000000       0.00000000      -0.31550774
2
Properties=species:S:1:pos:R:3:forces:R:3 energy=-2.1508698922710274 pbc="F F F"
S        0.00000000       0.00000000       0.00000000       0.00000000       0.00000000       0.31368378
S        0.00000000       0.00000000       3.85454545       0.00000000       0.00000000      -0.31368378
2
Properties=species:S:1:pos:R:3:forces:R:3 energy=-2.132257941453967 pbc="F F F"
S        0.00000000       0.00000000       0.00000000       0.00000000       0.00000000       0.31062305
S        0.00000000       0.00000000       3.91414141       0.00000000       0.00000000      -0.31062305
2
Properties=species:S:1:pos:R:3:forces:R:3 energy=-2.1138898377442206 pbc="F F F"
S        0.00000000       0.00000000       0.00000000       0.00000000       0.00000000       0.30539387
S        0.00000000       0.00000000       3.97373737       0.00000000       0.00000000      -0.30539387
2
Properties=species:S:1:pos:R:3:forces:R:3 energy=-2.0959053664898013 pbc="F F F"
S        0.00000000       0.00000000       0.00000000       0.00000000       0.00000000       0.29776233
S        0.00000000       0.00000000       4.03333333       0.00000000       0.00000000      -0.29776233
2
Properties=species:S:1:pos:R:3:forces:R:3 energy=-2.078441897254636 pbc="F F F"
S        0.00000000       0.00000000       0.00000000       0.00000000       0.00000000       0.28797516
S        0.00000000       0.00000000       4.09292929       0.00000000       0.00000000      -0.28797516
2
Properties=species:S:1:pos:R:3:forces:R:3 energy=-2.061613105960313 pbc="F F F"
S        0.00000000       0.00000000       0.00000000       0.00000000       0.00000000       0.27656782
S        0.00000000       0.00000000       4.15252525       0.00000000       0.00000000      -0.27656782
2
Properties=species:S:1:pos:R:3:forces:R:3 energy=-2.045497023862818 pbc="F F F"
S        0.00000000       0.00000000       0.00000000       0.00000000       0.00000000       0.26418197
S        0.00000000       0.00000000       4.21212121       0.00000000       0.00000000      -0.26418197
2
Properties=species:S:1:pos:R:3:forces:R:3 energy=-2.030132197512691 pbc="F F F"
S        0.00000000       0.00000000       0.00000000       0.00000000       0.00000000       0.25143051
S        0.00000000       0.00000000       4.27171717       0.00000000       0.00000000      -0.25143051
2
Properties=species:S:1:pos:R:3:forces:R:3 energy=-2.0155255945820034 pbc="F F F"
S        0.00000000       0.00000000       0.00000000       0.00000000       0.00000000       0.23881230
S        0.00000000       0.00000000       4.33131313       0.00000000       0.00000000      -0.23881230
2
Properties=species:S:1:pos:R:3:forces:R:3 energy=-2.001658330661988 pbc="F F F"
S        0.00000000       0.00000000       0.00000000       0.00000000       0.00000000       0.22667314
S        0.00000000       0.00000000       4.39090909       0.00000000       0.00000000      -0.22667314
2
Properties=species:S:1:pos:R:3:forces:R:3 energy=-1.988494322023974 pbc="F F F"
S        0.00000000       0.00000000       0.00000000       0.00000000       0.00000000       0.21521692
S        0.00000000       0.00000000       4.45050505       0.00000000       0.00000000      -0.21521692
2
Properties=species:S:1:pos:R:3:forces:R:3 energy=-1.975990454047 pbc="F F F"
S        0.00000000       0.00000000       0.00000000       0.00000000       0.00000000       0.20454691
S        0.00000000       0.00000000       4.51010101       0.00000000       0.00000000      -0.20454691
2
Properties=species:S:1:pos:R:3:forces:R:3 energy=-1.9640973384471925 pbc="F F F"
S        0.00000000       0.00000000       0.00000000       0.00000000       0.00000000       0.19470578
S        0.00000000       0.00000000       4.56969697       0.00000000       0.00000000      -0.19470578
2
Properties=species:S:1:pos:R:3:forces:R:3 energy=-1.952765858285356 pbc="F F F"
S        0.00000000       0.00000000       0.00000000       0.00000000       0.00000000       0.18572068
S        0.00000000       0.00000000       4.62929293       0.00000000       0.00000000      -0.18572068
2
Properties=species:S:1:pos:R:3:forces:R:3 energy=-1.9419437211929977 pbc="F F F"
S        0.00000000       0.00000000       0.00000000       0.00000000       0.00000000       0.17762181
S        0.00000000       0.00000000       4.68888889       0.00000000       0.00000000      -0.17762181
2
Properties=species:S:1:pos:R:3:forces:R:3 energy=-1.9315762601592625 pbc="F F F"
S        0.00000000       0.00000000       0.00000000       0.00000000       0.00000000       0.17045733
S        0.00000000       0.00000000       4.74848485       0.00000000       0.00000000      -0.17045733
2
Properties=species:S:1:pos:R:3:forces:R:3 energy=-1.9216066965001337 pbc="F F F"
S        0.00000000       0.00000000       0.00000000       0.00000000       0.00000000       0.16429290
S        0.00000000       0.00000000       4.80808081       0.00000000       0.00000000      -0.16429290
2
Properties=species:S:1:pos:R:3:forces:R:3 energy=-1.91197276911219 pbc="F F F"
S        0.00000000       0.00000000       0.00000000       0.00000000       0.00000000       0.15918680
S        0.00000000       0.00000000       4.86767677       0.00000000       0.00000000      -0.15918680
2
Properties=species:S:1:pos:R:3:forces:R:3 energy=-1.9026109119454508 pbc="F F F"
S        0.00000000       0.00000000       0.00000000       0.00000000       0.00000000       0.15516353
S        0.00000000       0.00000000       4.92727273       0.00000000       0.00000000      -0.15516353
2
Properties=species:S:1:pos:R:3:forces:R:3 energy=-1.8934583328303636 pbc="F F F"
S        0.00000000       0.00000000       0.00000000       0.00000000       0.00000000       0.15215021
S        0.00000000       0.00000000       4.98686869       0.00000000       0.00000000      -0.15215021
2
Properties=species:S:1:pos:R:3:forces:R:3 energy=-1.8844609101972916 pbc="F F F"
S        0.00000000       0.00000000       0.00000000       0.00000000       0.00000000       0.14994363
S        0.00000000       0.00000000       5.04646465       0.00000000       0.00000000      -0.14994363
2
Properties=species:S:1:pos:R:3:forces:R:3 energy=-1.875577014901379 pbc="F F F"
S        0.00000000       0.00000000       0.00000000       0.00000000       0.00000000       0.14823765
S        0.00000000       0.00000000       5.10606061       0.00000000       0.00000000      -0.14823765
2
Properties=species:S:1:pos:R:3:forces:R:3 energy=-1.8667856655554844 pbc="F F F"
S        0.00000000       0.00000000       0.00000000       0.00000000       0.00000000       0.14678349
S        0.00000000       0.00000000       5.16565657       0.00000000       0.00000000      -0.14678349
2
Properties=species:S:1:pos:R:3:forces:R:3 energy=-1.8580750832504498 pbc="F F F"
S        0.00000000       0.00000000       0.00000000       0.00000000       0.00000000       0.14561355
S        0.00000000       0.00000000       5.22525253       0.00000000       0.00000000      -0.14561355
2
Properties=species:S:1:pos:R:3:forces:R:3 energy=-1.8494217198276288 pbc="F F F"
S        0.00000000       0.00000000       0.00000000       0.00000000       0.00000000       0.14485298
S        0.00000000       0.00000000       5.28484848       0.00000000       0.00000000      -0.14485298
2
Properties=species:S:1:pos:R:3:forces:R:3 energy=-1.8408117313901162 pbc="F F F"
S        0.00000000       0.00000000       0.00000000       0.00000000       0.00000000       0.14395018
S        0.00000000       0.00000000       5.34444444       0.00000000       0.00000000      -0.14395018
2
Properties=species:S:1:pos:R:3:forces:R:3 energy=-1.8322934398936173 pbc="F F F"
S        0.00000000       0.00000000       0.00000000       0.00000000       0.00000000       0.14153951
S        0.00000000       0.00000000       5.40404040       0.00000000       0.00000000      -0.14153951
2
Properties=species:S:1:pos:R:3:forces:R:3 energy=-1.823992826394311 pbc="F F F"
S        0.00000000       0.00000000       0.00000000       0.00000000       0.00000000       0.13646220
S        0.00000000       0.00000000       5.46363636       0.00000000       0.00000000      -0.13646220
2
Properties=species:S:1:pos:R:3:forces:R:3 energy=-1.8160911280179484 pbc="F F F"
S        0.00000000       0.00000000       0.00000000       0.00000000       0.00000000       0.12839010
S        0.00000000       0.00000000       5.52323232       0.00000000       0.00000000      -0.12839010
2
Properties=species:S:1:pos:R:3:forces:R:3 energy=-1.808742705135218 pbc="F F F"
S        0.00000000       0.00000000       0.00000000       0.00000000       0.00000000       0.11781811
S        0.00000000       0.00000000       5.58282828       0.00000000       0.00000000      -0.11781811
2
Properties=species:S:1:pos:R:3:forces:R:3 energy=-1.8020925558218328 pbc="F F F"
S        0.00000000       0.00000000       0.00000000       0.00000000       0.00000000       0.10494924
S        0.00000000       0.00000000       5.64242424       0.00000000       0.00000000      -0.10494924
2
Properties=species:S:1:pos:R:3:forces:R:3 energy=-1.7963024367501519 pbc="F F F"
S        0.00000000       0.00000000       0.00000000       0.00000000       0.00000000       0.08845878
S        0.00000000       0.00000000       5.70202020       0.00000000       0.00000000      -0.08845878
2
Properties=species:S:1:pos:R:3:forces:R:3 energy=-1.7916464545862127 pbc="F F F"
S        0.00000000       0.00000000       0.00000000       0.00000000       0.00000000       0.06729481
S        0.00000000       0.00000000       5.76161616       0.00000000       0.00000000      -0.06729481
2
Properties=species:S:1:pos:R:3:forces:R:3 energy=-1.788333685536712 pbc="F F F"
S        0.00000000       0.00000000       0.00000000       0.00000000       0.00000000       0.04372229
S        0.00000000       0.00000000       5.82121212       0.00000000       0.00000000      -0.04372229
2
Properties=species:S:1:pos:R:3:forces:R:3 energy=-1.7863943324573737 pbc="F F F"
S        0.00000000       0.00000000       0.00000000       0.00000000       0.00000000       0.02235229
S        0.00000000       0.00000000       5.88080808       0.00000000       0.00000000      -0.02235229
2
Properties=species:S:1:pos:R:3:forces:R:3 energy=-1.7855352309187023 pbc="F F F"
S        0.00000000       0.00000000       0.00000000       0.00000000       0.00000000       0.00755938
S        0.00000000       0.00000000       5.94040404       0.00000000       0.00000000      -0.00755938
2
Properties=species:S:1:pos:R:3:forces:R:3 energy=-1.785301504328204 pbc="F F F"
S        0.00000000       0.00000000       0.00000000       0.00000000       0.00000000       0.00211222
S        0.00000000       0.00000000       6.00000000       0.00000000       0.00000000      -0.00211222
