2
Properties=species:S:1:pos:R:3:forces:R:3 energy=108677.60660308978 pbc="F F F"
U        0.00000000       0.00000000       0.00000000       0.00000000       0.00000000 -2809487.00000000
U        0.00000000       0.00000000       0.10000000       0.00000000       0.00000000 2809487.00000000
2
Properties=species:S:1:pos:R:3:forces:R:3 energy=29011.34488433977 pbc="F F F"
U        0.00000000       0.00000000       0.00000000       0.00000000       0.00000000 -560816.37500000
U        0.00000000       0.00000000       0.15959596       0.00000000       0.00000000  560816.37500000
2
Properties=species:S:1:pos:R:3:forces:R:3 energy=10188.049962464771 pbc="F F F"
U        0.00000000       0.00000000       0.00000000       0.00000000       0.00000000 -164082.32812500
U        0.00000000       0.00000000       0.21919192       0.00000000       0.00000000  164082.32812500
2
Properties=species:S:1:pos:R:3:forces:R:3 energy=4154.873204652272 pbc="F F F"
U        0.00000000       0.00000000       0.00000000       0.00000000       0.00000000  -58637.96875000
U        0.00000000       0.00000000       0.27878788       0.00000000       0.00000000   58637.96875000
2
Properties=species:S:1:pos:R:3:forces:R:3 energy=1878.6588491835216 pbc="F F F"
U        0.00000000       0.00000000       0.00000000       0.00000000       0.00000000  -23600.95117188
U        0.00000000       0.00000000       0.33838384       0.00000000       0.00000000   23600.95117188
2
Properties=species:S:1:pos:R:3:forces:R:3 energy=927.3172964491467 pbc="F F F"
U        0.00000000       0.00000000       0.00000000       0.00000000       0.00000000  -10327.69433594
U        0.00000000       0.00000000       0.39797980       0.00000000       0.00000000   10327.69433594
2
Properties=species:S:1:pos:R:3:forces:R:3 energy=498.2471365370373 pbc="F F F"
U        0.00000000       0.00000000       0.00000000       0.00000000       0.00000000   -4833.82568359
U        0.00000000       0.00000000       0.45757576       0.00000000       0.00000000    4833.82568359
2
Properties=species:S:1:pos:R:3:forces:R:3 energy=292.1657156639424 pbc="F F F"
U        0.00000000       0.00000000       0.00000000       0.00000000       0.00000000   -2395.22412109
U        0.00000000       0.00000000       0.51717172       0.00000000       0.00000000    2395.22412109
2
Properties=species:S:1:pos:R:3:forces:R:3 energy=187.79805515415273 pbc="F F F"
U        0.00000000       0.00000000       0.00000000       0.00000000       0.00000000   -1244.17651367
U        0.00000000       0.00000000       0.57676768       0.00000000       0.00000000    1244.17651367
2
Properties=species:S:1:pos:R:3:forces:R:3 energy=132.66660072439316 pbc="F F F"
U        0.00000000       0.00000000       0.00000000       0.00000000       0.00000000    -669.34527588
U        0.00000000       0.00000000       0.63636364       0.00000000       0.00000000     669.34527588
2
Properties=species:S:1:pos:R:3:forces:R:3 energy=102.69917067300352 pbc="F F F"
U        0.00000000       0.00000000       0.00000000       0.00000000       0.00000000    -367.32925415
U        0.00000000       0.00000000       0.69595960       0.00000000       0.00000000     367.32925415
2
Properties=species:S:1:pos:R:3:forces:R:3 energy=86.20979087889005 pbc="F F F"
U        0.00000000       0.00000000       0.00000000       0.00000000       0.00000000    -202.14179993
U        0.00000000       0.00000000       0.75555556       0.00000000       0.00000000     202.14179993
2
Properties=species:S:1:pos:R:3:forces:R:3 energy=77.17206367498848 pbc="F F F"
U        0.00000000       0.00000000       0.00000000       0.00000000       0.00000000    -110.11031342
U        0.00000000       0.00000000       0.81515152       0.00000000       0.00000000     110.11031342
2
Properties=species:S:1:pos:R:3:forces:R:3 energy=72.2633953469914 pbc="F F F"
U        0.00000000       0.00000000       0.00000000       0.00000000       0.00000000     -59.92035294
U        0.00000000       0.00000000       0.87474747       0.00000000       0.00000000      59.92035294
2
Properties=species:S:1:pos:R:3:forces:R:3 energy=69.53289637085291 pbc="F F F"
U        0.00000000       0.00000000       0.00000000       0.00000000       0.00000000     -34.97833252
U        0.00000000       0.00000000       0.93434343       0.00000000       0.00000000      34.97833252
2
Properties=species:S:1:pos:R:3:forces:R:3 energy=67.78116489110427 pbc="F F F"
U        0.00000000       0.00000000       0.00000000       0.00000000       0.00000000     -25.93564796
U        0.00000000       0.00000000       0.99393939       0.00000000       0.00000000      25.93564796
2
Properties=species:S:1:pos:R:3:forces:R:3 energy=66.22638635789272 pbc="F F F"
U        0.00000000       0.00000000       0.00000000       0.00000000       0.00000000     -27.80900002
U        0.00000000       0.00000000       1.05353535       0.00000000       0.00000000      27.80900002
2
Properties=species:S:1:pos:R:3:forces:R:3 energy=64.30044560019972 pbc="F F F"
U        0.00000000       0.00000000       0.00000000       0.00000000       0.00000000     -38.05962372
U        0.00000000       0.00000000       1.11313131       0.00000000       0.00000000      38.05962372
2
Properties=species:S:1:pos:R:3:forces:R:3 energy=61.56307319849559 pbc="F F F"
U        0.00000000       0.00000000       0.00000000       0.00000000       0.00000000     -54.68189621
U        0.00000000       0.00000000       1.17272727       0.00000000       0.00000000      54.68189621
2
Properties=species:S:1:pos:R:3:forces:R:3 energy=57.705026916916445 pbc="F F F"
U        0.00000000       0.00000000       0.00000000       0.00000000       0.00000000     -75.20041656
U        0.00000000       0.00000000       1.23232323       0.00000000       0.00000000      75.20041656
2
Properties=species:S:1:pos:R:3:forces:R:3 energy=52.58352273818025 pbc="F F F"
U        0.00000000       0.00000000       0.00000000       0.00000000       0.00000000     -96.52497101
U        0.00000000       0.00000000       1.29191919       0.00000000       0.00000000      96.52497101
2
Properties=species:S:1:pos:R:3:forces:R:3 energy=46.2510891196624 pbc="F F F"
U        0.00000000       0.00000000       0.00000000       0.00000000       0.00000000    -115.29853821
U        0.00000000       0.00000000       1.35151515       0.00000000       0.00000000     115.29853821
2
Properties=species:S:1:pos:R:3:forces:R:3 energy=38.94789183516856 pbc="F F F"
U        0.00000000       0.00000000       0.00000000       0.00000000       0.00000000    -128.73046875
U        0.00000000       0.00000000       1.41111111       0.00000000       0.00000000     128.73046875
2
Properties=species:S:1:pos:R:3:forces:R:3 energy=31.044797774253016 pbc="F F F"
U        0.00000000       0.00000000       0.00000000       0.00000000       0.00000000    -135.31335449
U        0.00000000       0.00000000       1.47070707       0.00000000       0.00000000     135.31335449
2
Properties=species:S:1:pos:R:3:forces:R:3 energy=22.947984609723186 pbc="F F F"
U        0.00000000       0.00000000       0.00000000       0.00000000       0.00000000    -135.49609375
U        0.00000000       0.00000000       1.53030303       0.00000000       0.00000000     135.49609375
2
Properties=species:S:1:pos:R:3:forces:R:3 energy=14.987347437138052 pbc="F F F"
U        0.00000000       0.00000000       0.00000000       0.00000000       0.00000000    -130.92172241
U        0.00000000       0.00000000       1.58989899       0.00000000       0.00000000     130.92172241
2
Properties=species:S:1:pos:R:3:forces:R:3 energy=7.456200439340769 pbc="F F F"
U        0.00000000       0.00000000       0.00000000       0.00000000       0.00000000    -120.46749878
U        0.00000000       0.00000000       1.64949495       0.00000000       0.00000000     120.46749878
2
Properties=species:S:1:pos:R:3:forces:R:3 energy=0.8406325464759601 pbc="F F F"
U        0.00000000       0.00000000       0.00000000       0.00000000       0.00000000     -99.63211060
U        0.00000000       0.00000000       1.70909091       0.00000000       0.00000000      99.63211060
2
Properties=species:S:1:pos:R:3:forces:R:3 energy=-4.269275338661996 pbc="F F F"
U        0.00000000       0.00000000       0.00000000       0.00000000       0.00000000     -71.73835754
U        0.00000000       0.00000000       1.76868687       0.00000000       0.00000000      71.73835754
2
Properties=species:S:1:pos:R:3:forces:R:3 energy=-7.837115956110071 pbc="F F F"
U        0.00000000       0.00000000       0.00000000       0.00000000       0.00000000     -49.72059250
U        0.00000000       0.00000000       1.82828283       0.00000000       0.00000000      49.72059250
2
Properties=species:S:1:pos:R:3:forces:R:3 energy=-10.360069539668617 pbc="F F F"
U        0.00000000       0.00000000       0.00000000       0.00000000       0.00000000     -35.62137222
U        0.00000000       0.00000000       1.88787879       0.00000000       0.00000000      35.62137222
2
Properties=species:S:1:pos:R:3:forces:R:3 energy=-12.1047740515166 pbc="F F F"
U        0.00000000       0.00000000       0.00000000       0.00000000       0.00000000     -23.03041458
U        0.00000000       0.00000000       1.94747475       0.00000000       0.00000000      23.03041458
2
Properties=species:S:1:pos:R:3:forces:R:3 energy=-13.15040514931106 pbc="F F F"
U        0.00000000       0.00000000       0.00000000       0.00000000       0.00000000     -12.69756794
U        0.00000000       0.00000000       2.00707071       0.00000000       0.00000000      12.69756794
2
Properties=species:S:1:pos:R:3:forces:R:3 energy=-13.700182807673695 pbc="F F F"
U        0.00000000       0.00000000       0.00000000       0.00000000       0.00000000      -6.36711025
U        0.00000000       0.00000000       2.06666667       0.00000000       0.00000000       6.36711025
2
Properties=species:S:1:pos:R:3:forces:R:3 energy=-13.964693206988697 pbc="F F F"
U        0.00000000       0.00000000       0.00000000       0.00000000       0.00000000      -2.82921958
U        0.00000000       0.00000000       2.12626263       0.00000000       0.00000000       2.82921958
2
Properties=species:S:1:pos:R:3:forces:R:3 energy=-14.062959201477469 pbc="F F F"
U        0.00000000       0.00000000       0.00000000       0.00000000       0.00000000      -0.60855472
U        0.00000000       0.00000000       2.18585859       0.00000000       0.00000000       0.60855472
2
Properties=species:S:1:pos:R:3:forces:R:3 energy=-14.04944083514374 pbc="F F F"
U        0.00000000       0.00000000       0.00000000       0.00000000       0.00000000       0.98049229
U        0.00000000       0.00000000       2.24545455       0.00000000       0.00000000      -0.98049229
2
Properties=species:S:1:pos:R:3:forces:R:3 energy=-13.955028027904817 pbc="F F F"
U        0.00000000       0.00000000       0.00000000       0.00000000       0.00000000       2.11580133
U        0.00000000       0.00000000       2.30505051       0.00000000       0.00000000      -2.11580133
2
Properties=species:S:1:pos:R:3:forces:R:3 energy=-13.805685874822927 pbc="F F F"
U        0.00000000       0.00000000       0.00000000       0.00000000       0.00000000       2.82722592
U        0.00000000       0.00000000       2.36464646       0.00000000       0.00000000      -2.82722592
2
Properties=species:S:1:pos:R:3:forces:R:3 energy=-13.625870694835303 pbc="F F F"
U        0.00000000       0.00000000       0.00000000       0.00000000       0.00000000       3.14518523
U        0.00000000       0.00000000       2.42424242       0.00000000       0.00000000      -3.14518523
2
Properties=species:S:1:pos:R:3:forces:R:3 energy=-13.437717500236602 pbc="F F F"
U        0.00000000       0.00000000       0.00000000       0.00000000       0.00000000       3.11568642
U        0.00000000       0.00000000       2.48383838       0.00000000       0.00000000      -3.11568642
2
Properties=species:S:1:pos:R:3:forces:R:3 energy=-13.260184563488371 pbc="F F F"
U        0.00000000       0.00000000       0.00000000       0.00000000       0.00000000       2.80161762
U        0.00000000       0.00000000       2.54343434       0.00000000       0.00000000      -2.80161762
2
Properties=species:S:1:pos:R:3:forces:R:3 energy=-13.107503620427174 pbc="F F F"
U        0.00000000       0.00000000       0.00000000       0.00000000       0.00000000       2.30193663
U        0.00000000       0.00000000       2.60303030       0.00000000       0.00000000      -2.30193663
2
Properties=species:S:1:pos:R:3:forces:R:3 energy=-12.986741426407825 pbc="F F F"
U        0.00000000       0.00000000       0.00000000       0.00000000       0.00000000       1.75577891
U        0.00000000       0.00000000       2.66262626       0.00000000       0.00000000      -1.75577891
2
Properties=species:S:1:pos:R:3:forces:R:3 energy=-12.896237688458289 pbc="F F F"
U        0.00000000       0.00000000       0.00000000       0.00000000       0.00000000       1.30824029
U        0.00000000       0.00000000       2.72222222       0.00000000       0.00000000      -1.30824029
2
Properties=species:S:1:pos:R:3:forces:R:3 energy=-12.826837760689552 pbc="F F F"
U        0.00000000       0.00000000       0.00000000       0.00000000       0.00000000       1.05788422
U        0.00000000       0.00000000       2.78181818       0.00000000       0.00000000      -1.05788422
2
Properties=species:S:1:pos:R:3:forces:R:3 energy=-12.765751894829382 pbc="F F F"
U        0.00000000       0.00000000       0.00000000       0.00000000       0.00000000       1.02633905
U        0.00000000       0.00000000       2.84141414       0.00000000       0.00000000      -1.02633905
2
Properties=species:S:1:pos:R:3:forces:R:3 energy=-12.701045243601959 pbc="F F F"
U        0.00000000       0.00000000       0.00000000       0.00000000       0.00000000       1.16799533
U        0.00000000       0.00000000       2.90101010       0.00000000       0.00000000      -1.16799533
2
Properties=species:S:1:pos:R:3:forces:R:3 energy=-12.624640990493846 pbc="F F F"
U        0.00000000       0.00000000       0.00000000       0.00000000       0.00000000       1.40529883
U        0.00000000       0.00000000       2.96060606       0.00000000       0.00000000      -1.40529883
2
Properties=species:S:1:pos:R:3:forces:R:3 energy=-12.533140474979911 pbc="F F F"
U        0.00000000       0.00000000       0.00000000       0.00000000       0.00000000       1.66375220
U        0.00000000       0.00000000       3.02020202       0.00000000       0.00000000      -1.66375220
2
Properties=species:S:1:pos:R:3:forces:R:3 energy=-12.426972270950934 pbc="F F F"
U        0.00000000       0.00000000       0.00000000       0.00000000       0.00000000       1.89089632
U        0.00000000       0.00000000       3.07979798       0.00000000       0.00000000      -1.89089632
2
Properties=species:S:1:pos:R:3:forces:R:3 energy=-12.308967283243296 pbc="F F F"
U        0.00000000       0.00000000       0.00000000       0.00000000       0.00000000       2.05781579
U        0.00000000       0.00000000       3.13939394       0.00000000       0.00000000      -2.05781579
2
Properties=species:S:1:pos:R:3:forces:R:3 energy=-12.18315942148657 pbc="F F F"
U        0.00000000       0.00000000       0.00000000       0.00000000       0.00000000       2.15134645
U        0.00000000       0.00000000       3.19898990       0.00000000       0.00000000      -2.15134645
2
Properties=species:S:1:pos:R:3:forces:R:3 energy=-12.05410748365171 pbc="F F F"
U        0.00000000       0.00000000       0.00000000       0.00000000       0.00000000       2.16632009
U        0.00000000       0.00000000       3.25858586       0.00000000       0.00000000      -2.16632009
2
Properties=species:S:1:pos:R:3:forces:R:3 energy=-11.926509162035087 pbc="F F F"
U        0.00000000       0.00000000       0.00000000       0.00000000       0.00000000       2.10320067
U        0.00000000       0.00000000       3.31818182       0.00000000       0.00000000      -2.10320067
2
Properties=species:S:1:pos:R:3:forces:R:3 energy=-11.804810112816469 pbc="F F F"
U        0.00000000       0.00000000       0.00000000       0.00000000       0.00000000       1.97069025
U        0.00000000       0.00000000       3.37777778       0.00000000       0.00000000      -1.97069025
2
Properties=species:S:1:pos:R:3:forces:R:3 energy=-11.692609281438122 pbc="F F F"
U        0.00000000       0.00000000       0.00000000       0.00000000       0.00000000       1.78873968
U        0.00000000       0.00000000       3.43737374       0.00000000       0.00000000      -1.78873968
2
Properties=species:S:1:pos:R:3:forces:R:3 energy=-11.592006044506979 pbc="F F F"
U        0.00000000       0.00000000       0.00000000       0.00000000       0.00000000       1.58677149
U        0.00000000       0.00000000       3.49696970       0.00000000       0.00000000      -1.58677149
2
Properties=species:S:1:pos:R:3:forces:R:3 energy=-11.503250920912668 pbc="F F F"
U        0.00000000       0.00000000       0.00000000       0.00000000       0.00000000       1.39593053
U        0.00000000       0.00000000       3.55656566       0.00000000       0.00000000      -1.39593053
2
Properties=species:S:1:pos:R:3:forces:R:3 energy=-11.424928908707146 pbc="F F F"
U        0.00000000       0.00000000       0.00000000       0.00000000       0.00000000       1.23951411
U        0.00000000       0.00000000       3.61616162       0.00000000       0.00000000      -1.23951411
2
Properties=species:S:1:pos:R:3:forces:R:3 energy=-11.354624664940896 pbc="F F F"
U        0.00000000       0.00000000       0.00000000       0.00000000       0.00000000       1.12732136
U        0.00000000       0.00000000       3.67575758       0.00000000       0.00000000      -1.12732136
2
Properties=species:S:1:pos:R:3:forces:R:3 energy=-11.289736804144974 pbc="F F F"
U        0.00000000       0.00000000       0.00000000       0.00000000       0.00000000       1.05642319
U        0.00000000       0.00000000       3.73535354       0.00000000       0.00000000      -1.05642319
2
Properties=species:S:1:pos:R:3:forces:R:3 energy=-11.228093157649257 pbc="F F F"
U        0.00000000       0.00000000       0.00000000       0.00000000       0.00000000       1.01637340
U        0.00000000       0.00000000       3.79494949       0.00000000       0.00000000      -1.01637340
2
Properties=species:S:1:pos:R:3:forces:R:3 energy=-11.168221325648677 pbc="F F F"
U        0.00000000       0.00000000       0.00000000       0.00000000       0.00000000       0.99512655
U        0.00000000       0.00000000       3.85454545       0.00000000       0.00000000      -0.99512655
2
Properties=species:S:1:pos:R:3:forces:R:3 energy=-11.109306103983759 pbc="F F F"
U        0.00000000       0.00000000       0.00000000       0.00000000       0.00000000       0.98287606
U        0.00000000       0.00000000       3.91414141       0.00000000       0.00000000      -0.98287606
2
Properties=species:S:1:pos:R:3:forces:R:3 energy=-11.051021599447083 pbc="F F F"
U        0.00000000       0.00000000       0.00000000       0.00000000       0.00000000       0.97313768
U        0.00000000       0.00000000       3.97373737       0.00000000       0.00000000      -0.97313768
2
Properties=species:S:1:pos:R:3:forces:R:3 energy=-10.993345130243041 pbc="F F F"
U        0.00000000       0.00000000       0.00000000       0.00000000       0.00000000       0.96198279
U        0.00000000       0.00000000       4.03333333       0.00000000       0.00000000      -0.96198279
2
Properties=species:S:1:pos:R:3:forces:R:3 energy=-10.936439128763725 pbc="F F F"
U        0.00000000       0.00000000       0.00000000       0.00000000       0.00000000       0.94688541
U        0.00000000       0.00000000       4.09292929       0.00000000       0.00000000      -0.94688541
2
Properties=species:S:1:pos:R:3:forces:R:3 energy=-10.880595834814201 pbc="F F F"
U        0.00000000       0.00000000       0.00000000       0.00000000       0.00000000       0.92617530
U        0.00000000       0.00000000       4.15252525       0.00000000       0.00000000      -0.92617530
2
Properties=species:S:1:pos:R:3:forces:R:3 energy=-10.826173469125418 pbc="F F F"
U        0.00000000       0.00000000       0.00000000       0.00000000       0.00000000       0.89916569
U        0.00000000       0.00000000       4.21212121       0.00000000       0.00000000      -0.89916569
2
Properties=species:S:1:pos:R:3:forces:R:3 energy=-10.773535185526649 pbc="F F F"
U        0.00000000       0.00000000       0.00000000       0.00000000       0.00000000       0.86651683
U        0.00000000       0.00000000       4.27171717       0.00000000       0.00000000      -0.86651683
2
Properties=species:S:1:pos:R:3:forces:R:3 energy=-10.72296334162734 pbc="F F F"
U        0.00000000       0.00000000       0.00000000       0.00000000       0.00000000       0.83030093
U        0.00000000       0.00000000       4.33131313       0.00000000       0.00000000      -0.83030093
2
Properties=species:S:1:pos:R:3:forces:R:3 energy=-10.674580337513191 pbc="F F F"
U        0.00000000       0.00000000       0.00000000       0.00000000       0.00000000       0.79360133
U        0.00000000       0.00000000       4.39090909       0.00000000       0.00000000      -0.79360133
2
Properties=species:S:1:pos:R:3:forces:R:3 energy=-10.628314365834154 pbc="F F F"
U        0.00000000       0.00000000       0.00000000       0.00000000       0.00000000       0.75977761
U        0.00000000       0.00000000       4.45050505       0.00000000       0.00000000      -0.75977761
2
Properties=species:S:1:pos:R:3:forces:R:3 energy=-10.583907098219749 pbc="F F F"
U        0.00000000       0.00000000       0.00000000       0.00000000       0.00000000       0.73164070
U        0.00000000       0.00000000       4.51010101       0.00000000       0.00000000      -0.73164070
2
Properties=species:S:1:pos:R:3:forces:R:3 energy=-10.540962290990992 pbc="F F F"
U        0.00000000       0.00000000       0.00000000       0.00000000       0.00000000       0.71078587
U        0.00000000       0.00000000       4.56969697       0.00000000       0.00000000      -0.71078587
2
Properties=species:S:1:pos:R:3:forces:R:3 energy=-10.499040325630595 pbc="F F F"
U        0.00000000       0.00000000       0.00000000       0.00000000       0.00000000       0.69725168
U        0.00000000       0.00000000       4.62929293       0.00000000       0.00000000      -0.69725168
2
Properties=species:S:1:pos:R:3:forces:R:3 energy=-10.457739296442446 pbc="F F F"
U        0.00000000       0.00000000       0.00000000       0.00000000       0.00000000       0.68958271
U        0.00000000       0.00000000       4.68888889       0.00000000       0.00000000      -0.68958271
2
Properties=species:S:1:pos:R:3:forces:R:3 energy=-10.416781807585684 pbc="F F F"
U        0.00000000       0.00000000       0.00000000       0.00000000       0.00000000       0.68518525
U        0.00000000       0.00000000       4.74848485       0.00000000       0.00000000      -0.68518525
2
Properties=species:S:1:pos:R:3:forces:R:3 energy=-10.376068328151264 pbc="F F F"
U        0.00000000       0.00000000       0.00000000       0.00000000       0.00000000       0.68093985
U        0.00000000       0.00000000       4.80808081       0.00000000       0.00000000      -0.68093985
2
Properties=species:S:1:pos:R:3:forces:R:3 energy=-10.335677394902584 pbc="F F F"
U        0.00000000       0.00000000       0.00000000       0.00000000       0.00000000       0.67377913
U        0.00000000       0.00000000       4.86767677       0.00000000       0.00000000      -0.67377913
2
Properties=species:S:1:pos:R:3:forces:R:3 energy=-10.295866420229967 pbc="F F F"
U        0.00000000       0.00000000       0.00000000       0.00000000       0.00000000       0.66113460
U        0.00000000       0.00000000       4.92727273       0.00000000       0.00000000      -0.66113460
2
Properties=species:S:1:pos:R:3:forces:R:3 energy=-10.25702025709403 pbc="F F F"
U        0.00000000       0.00000000       0.00000000       0.00000000       0.00000000       0.64125699
U        0.00000000       0.00000000       4.98686869       0.00000000       0.00000000      -0.64125699
2
Properties=species:S:1:pos:R:3:forces:R:3 energy=-10.219591085865526 pbc="F F F"
U        0.00000000       0.00000000       0.00000000       0.00000000       0.00000000       0.61376679
U        0.00000000       0.00000000       5.04646465       0.00000000       0.00000000      -0.61376679
2
Properties=species:S:1:pos:R:3:forces:R:3 energy=-10.183980082682373 pbc="F F F"
U        0.00000000       0.00000000       0.00000000       0.00000000       0.00000000       0.58069617
U        0.00000000       0.00000000       5.10606061       0.00000000       0.00000000      -0.58069617
2
Properties=species:S:1:pos:R:3:forces:R:3 energy=-10.150377297199173 pbc="F F F"
U        0.00000000       0.00000000       0.00000000       0.00000000       0.00000000       0.54736042
U        0.00000000       0.00000000       5.16565657       0.00000000       0.00000000      -0.54736042
2
Properties=species:S:1:pos:R:3:forces:R:3 energy=-10.118608874627244 pbc="F F F"
U        0.00000000       0.00000000       0.00000000       0.00000000       0.00000000       0.52023923
U        0.00000000       0.00000000       5.22525253       0.00000000       0.00000000      -0.52023923
2
Properties=species:S:1:pos:R:3:forces:R:3 energy=-10.088227642123401 pbc="F F F"
U        0.00000000       0.00000000       0.00000000       0.00000000       0.00000000       0.49996555
U        0.00000000       0.00000000       5.28484848       0.00000000       0.00000000      -0.49996555
2
Properties=species:S:1:pos:R:3:forces:R:3 energy=-10.05906527988351 pbc="F F F"
U        0.00000000       0.00000000       0.00000000       0.00000000       0.00000000       0.47714850
U        0.00000000       0.00000000       5.34444444       0.00000000       0.00000000      -0.47714850
2
Properties=species:S:1:pos:R:3:forces:R:3 energy=-10.031615501812704 pbc="F F F"
U        0.00000000       0.00000000       0.00000000       0.00000000       0.00000000       0.44171005
U        0.00000000       0.00000000       5.40404040       0.00000000       0.00000000      -0.44171005
2
Properties=species:S:1:pos:R:3:forces:R:3 energy=-10.006597279024117 pbc="F F F"
U        0.00000000       0.00000000       0.00000000       0.00000000       0.00000000       0.39749721
U        0.00000000       0.00000000       5.46363636       0.00000000       0.00000000      -0.39749721
2
Properties=species:S:1:pos:R:3:forces:R:3 energy=-9.984042053140842 pbc="F F F"
U        0.00000000       0.00000000       0.00000000       0.00000000       0.00000000       0.36344939
U        0.00000000       0.00000000       5.52323232       0.00000000       0.00000000      -0.36344939
2
Properties=species:S:1:pos:R:3:forces:R:3 energy=-9.96268812142679 pbc="F F F"
U        0.00000000       0.00000000       0.00000000       0.00000000       0.00000000       0.35860288
U        0.00000000       0.00000000       5.58282828       0.00000000       0.00000000      -0.35860288
2
Properties=species:S:1:pos:R:3:forces:R:3 energy=-9.940780541454965 pbc="F F F"
U        0.00000000       0.00000000       0.00000000       0.00000000       0.00000000       0.37867218
U        0.00000000       0.00000000       5.64242424       0.00000000       0.00000000      -0.37867218
2
Properties=species:S:1:pos:R:3:forces:R:3 energy=-9.91774681290911 pbc="F F F"
U        0.00000000       0.00000000       0.00000000       0.00000000       0.00000000       0.38816139
U        0.00000000       0.00000000       5.70202020       0.00000000       0.00000000      -0.38816139
2
Properties=species:S:1:pos:R:3:forces:R:3 energy=-9.895527139213511 pbc="F F F"
U        0.00000000       0.00000000       0.00000000       0.00000000       0.00000000       0.34866127
U        0.00000000       0.00000000       5.76161616       0.00000000       0.00000000      -0.34866127
2
Properties=species:S:1:pos:R:3:forces:R:3 energy=-9.87724483447352 pbc="F F F"
U        0.00000000       0.00000000       0.00000000       0.00000000       0.00000000       0.25773627
U        0.00000000       0.00000000       5.82121212       0.00000000       0.00000000      -0.25773627
2
Properties=species:S:1:pos:R:3:forces:R:3 energy=-9.865187502653681 pbc="F F F"
U        0.00000000       0.00000000       0.00000000       0.00000000       0.00000000       0.14890137
U        0.00000000       0.00000000       5.88080808       0.00000000       0.00000000      -0.14890137
2
Properties=species:S:1:pos:R:3:forces:R:3 energy=-9.858979604350342 pbc="F F F"
U        0.00000000       0.00000000       0.00000000       0.00000000       0.00000000       0.06469021
U        0.00000000       0.00000000       5.94040404       0.00000000       0.00000000      -0.06469021
2
Properties=species:S:1:pos:R:3:forces:R:3 energy=-9.85639219281055 pbc="F F F"
U        0.00000000       0.00000000       0.00000000       0.00000000       0.00000000       0.03283592
U        0.00000000       0.00000000       6.00000000       0.00000000       0.00000000      -0.03283592
