2
Properties=species:S:1:pos:R:3:forces:R:3 energy=47640.978123182176 pbc="F F F"
Xe       0.00000000       0.00000000       0.00000000       0.00000000       0.00000000 -1160125.75000000
Xe       0.00000000       0.00000000       0.10000000       0.00000000       0.00000000 1160125.75000000
2
Properties=species:S:1:pos:R:3:forces:R:3 energy=13724.608005994676 pbc="F F F"
Xe       0.00000000       0.00000000       0.00000000       0.00000000       0.00000000 -249648.82812500
Xe       0.00000000       0.00000000       0.15959596       0.00000000       0.00000000  249648.82812500
2
Properties=species:S:1:pos:R:3:forces:R:3 energy=5142.893650525926 pbc="F F F"
Xe       0.00000000       0.00000000       0.00000000       0.00000000       0.00000000  -77457.19531250
Xe       0.00000000       0.00000000       0.21919192       0.00000000       0.00000000   77457.19531250
2
Properties=species:S:1:pos:R:3:forces:R:3 energy=2223.168064591594 pbc="F F F"
Xe       0.00000000       0.00000000       0.00000000       0.00000000       0.00000000  -29398.86718750
Xe       0.00000000       0.00000000       0.27878788       0.00000000       0.00000000   29398.86718750
2
Properties=species:S:1:pos:R:3:forces:R:3 energy=1051.3162579541367 pbc="F F F"
Xe       0.00000000       0.00000000       0.00000000       0.00000000       0.00000000  -12587.06835938
Xe       0.00000000       0.00000000       0.33838384       0.00000000       0.00000000   12587.06835938
2
Properties=species:S:1:pos:R:3:forces:R:3 energy=530.7038922378163 pbc="F F F"
Xe       0.00000000       0.00000000       0.00000000       0.00000000       0.00000000   -5838.17382812
Xe       0.00000000       0.00000000       0.39797980       0.00000000       0.00000000    5838.17382812
2
Properties=species:S:1:pos:R:3:forces:R:3 energy=282.4802289235772 pbc="F F F"
Xe       0.00000000       0.00000000       0.00000000       0.00000000       0.00000000   -2876.05615234
Xe       0.00000000       0.00000000       0.45757576       0.00000000       0.00000000    2876.05615234
2
Properties=species:S:1:pos:R:3:forces:R:3 energy=157.3748517579898 pbc="F F F"
Xe       0.00000000       0.00000000       0.00000000       0.00000000       0.00000000   -1489.55651855
Xe       0.00000000       0.00000000       0.51717172       0.00000000       0.00000000    1489.55651855
2
Properties=species:S:1:pos:R:3:forces:R:3 energy=91.2692838828817 pbc="F F F"
Xe       0.00000000       0.00000000       0.00000000       0.00000000       0.00000000    -806.03637695
Xe       0.00000000       0.00000000       0.57676768       0.00000000       0.00000000     806.03637695
2
Properties=species:S:1:pos:R:3:forces:R:3 energy=54.8485686458851 pbc="F F F"
Xe       0.00000000       0.00000000       0.00000000       0.00000000       0.00000000    -453.56259155
Xe       0.00000000       0.00000000       0.63636364       0.00000000       0.00000000     453.56259155
2
Properties=species:S:1:pos:R:3:forces:R:3 energy=34.02220237338002 pbc="F F F"
Xe       0.00000000       0.00000000       0.00000000       0.00000000       0.00000000    -264.18594360
Xe       0.00000000       0.00000000       0.69595960       0.00000000       0.00000000     264.18594360
2
Properties=species:S:1:pos:R:3:forces:R:3 energy=21.72463333923216 pbc="F F F"
Xe       0.00000000       0.00000000       0.00000000       0.00000000       0.00000000    -158.37947083
Xe       0.00000000       0.00000000       0.75555556       0.00000000       0.00000000     158.37947083
2
Properties=species:S:1:pos:R:3:forces:R:3 energy=14.27070855494113 pbc="F F F"
Xe       0.00000000       0.00000000       0.00000000       0.00000000       0.00000000     -97.16416168
Xe       0.00000000       0.00000000       0.81515152       0.00000000       0.00000000      97.16416168
2
Properties=species:S:1:pos:R:3:forces:R:3 energy=9.656427413770407 pbc="F F F"
Xe       0.00000000       0.00000000       0.00000000       0.00000000       0.00000000     -60.75576401
Xe       0.00000000       0.00000000       0.87474747       0.00000000       0.00000000      60.75576401
2
Properties=species:S:1:pos:R:3:forces:R:3 energy=6.747920788926924 pbc="F F F"
Xe       0.00000000       0.00000000       0.00000000       0.00000000       0.00000000     -38.64747620
Xe       0.00000000       0.00000000       0.93434343       0.00000000       0.00000000      38.64747620
2
Properties=species:S:1:pos:R:3:forces:R:3 energy=4.883994425609358 pbc="F F F"
Xe       0.00000000       0.00000000       0.00000000       0.00000000       0.00000000     -24.97366524
Xe       0.00000000       0.00000000       0.99393939       0.00000000       0.00000000      24.97366524
2
Properties=species:S:1:pos:R:3:forces:R:3 energy=3.671501884952862 pbc="F F F"
Xe       0.00000000       0.00000000       0.00000000       0.00000000       0.00000000     -16.36609077
Xe       0.00000000       0.00000000       1.05353535       0.00000000       0.00000000      16.36609077
2
Properties=species:S:1:pos:R:3:forces:R:3 energy=2.8724166525380483 pbc="F F F"
Xe       0.00000000       0.00000000       0.00000000       0.00000000       0.00000000     -10.84716225
Xe       0.00000000       0.00000000       1.11313131       0.00000000       0.00000000      10.84716225
2
Properties=species:S:1:pos:R:3:forces:R:3 energy=2.341572686898189 pbc="F F F"
Xe       0.00000000       0.00000000       0.00000000       0.00000000       0.00000000      -7.20766354
Xe       0.00000000       0.00000000       1.17272727       0.00000000       0.00000000       7.20766354
2
Properties=species:S:1:pos:R:3:forces:R:3 energy=1.9908811318240016 pbc="F F F"
Xe       0.00000000       0.00000000       0.00000000       0.00000000       0.00000000      -4.70899487
Xe       0.00000000       0.00000000       1.23232323       0.00000000       0.00000000       4.70899487
2
Properties=species:S:1:pos:R:3:forces:R:3 energy=1.765769105631495 pbc="F F F"
Xe       0.00000000       0.00000000       0.00000000       0.00000000       0.00000000      -2.94874597
Xe       0.00000000       0.00000000       1.29191919       0.00000000       0.00000000       2.94874597
2
Properties=species:S:1:pos:R:3:forces:R:3 energy=1.6287783754223715 pbc="F F F"
Xe       0.00000000       0.00000000       0.00000000       0.00000000       0.00000000      -1.72422707
Xe       0.00000000       0.00000000       1.35151515       0.00000000       0.00000000       1.72422707
2
Properties=species:S:1:pos:R:3:forces:R:3 energy=1.552872151117484 pbc="F F F"
Xe       0.00000000       0.00000000       0.00000000       0.00000000       0.00000000      -0.87216264
Xe       0.00000000       0.00000000       1.41111111       0.00000000       0.00000000       0.87216264
2
Properties=species:S:1:pos:R:3:forces:R:3 energy=1.5201911175134415 pbc="F F F"
Xe       0.00000000       0.00000000       0.00000000       0.00000000       0.00000000      -0.25579864
Xe       0.00000000       0.00000000       1.47070707       0.00000000       0.00000000       0.25579864
2
Properties=species:S:1:pos:R:3:forces:R:3 energy=1.5191189847466708 pbc="F F F"
Xe       0.00000000       0.00000000       0.00000000       0.00000000       0.00000000       0.19418868
Xe       0.00000000       0.00000000       1.53030303       0.00000000       0.00000000      -0.19418868
2
Properties=species:S:1:pos:R:3:forces:R:3 energy=1.5402146063358968 pbc="F F F"
Xe       0.00000000       0.00000000       0.00000000       0.00000000       0.00000000       0.48599556
Xe       0.00000000       0.00000000       1.58989899       0.00000000       0.00000000      -0.48599556
2
Properties=species:S:1:pos:R:3:forces:R:3 energy=1.5734683868865975 pbc="F F F"
Xe       0.00000000       0.00000000       0.00000000       0.00000000       0.00000000       0.59776926
Xe       0.00000000       0.00000000       1.64949495       0.00000000       0.00000000      -0.59776926
2
Properties=species:S:1:pos:R:3:forces:R:3 energy=1.607446214840163 pbc="F F F"
Xe       0.00000000       0.00000000       0.00000000       0.00000000       0.00000000       0.50829673
Xe       0.00000000       0.00000000       1.70909091       0.00000000       0.00000000      -0.50829673
2
Properties=species:S:1:pos:R:3:forces:R:3 energy=1.6301562648964394 pbc="F F F"
Xe       0.00000000       0.00000000       0.00000000       0.00000000       0.00000000       0.22396646
Xe       0.00000000       0.00000000       1.76868687       0.00000000       0.00000000      -0.22396646
2
Properties=species:S:1:pos:R:3:forces:R:3 energy=1.6311127587379004 pbc="F F F"
Xe       0.00000000       0.00000000       0.00000000       0.00000000       0.00000000      -0.21198322
Xe       0.00000000       0.00000000       1.82828283       0.00000000       0.00000000       0.21198322
2
Properties=species:S:1:pos:R:3:forces:R:3 energy=1.6032193209170376 pbc="F F F"
Xe       0.00000000       0.00000000       0.00000000       0.00000000       0.00000000      -0.73178655
Xe       0.00000000       0.00000000       1.88787879       0.00000000       0.00000000       0.73178655
2
Properties=species:S:1:pos:R:3:forces:R:3 energy=1.5437377273962256 pbc="F F F"
Xe       0.00000000       0.00000000       0.00000000       0.00000000       0.00000000      -1.25938654
Xe       0.00000000       0.00000000       1.94747475       0.00000000       0.00000000       1.25938654
2
Properties=species:S:1:pos:R:3:forces:R:3 energy=1.454383727641768 pbc="F F F"
Xe       0.00000000       0.00000000       0.00000000       0.00000000       0.00000000      -1.72343087
Xe       0.00000000       0.00000000       2.00707071       0.00000000       0.00000000       1.72343087
2
Properties=species:S:1:pos:R:3:forces:R:3 energy=1.3406890396740418 pbc="F F F"
Xe       0.00000000       0.00000000       0.00000000       0.00000000       0.00000000      -2.06903315
Xe       0.00000000       0.00000000       2.06666667       0.00000000       0.00000000       2.06903315
2
Properties=species:S:1:pos:R:3:forces:R:3 energy=1.2107540791100397 pbc="F F F"
Xe       0.00000000       0.00000000       0.00000000       0.00000000       0.00000000      -2.26534224
Xe       0.00000000       0.00000000       2.12626263       0.00000000       0.00000000       2.26534224
2
Properties=species:S:1:pos:R:3:forces:R:3 energy=1.0737688166342676 pbc="F F F"
Xe       0.00000000       0.00000000       0.00000000       0.00000000       0.00000000      -2.30678654
Xe       0.00000000       0.00000000       2.18585859       0.00000000       0.00000000       2.30678654
2
Properties=species:S:1:pos:R:3:forces:R:3 energy=0.9385593060646077 pbc="F F F"
Xe       0.00000000       0.00000000       0.00000000       0.00000000       0.00000000      -2.21015573
Xe       0.00000000       0.00000000       2.24545455       0.00000000       0.00000000       2.21015573
2
Properties=species:S:1:pos:R:3:forces:R:3 energy=0.8124149318721184 pbc="F F F"
Xe       0.00000000       0.00000000       0.00000000       0.00000000       0.00000000      -2.00918150
Xe       0.00000000       0.00000000       2.30505051       0.00000000       0.00000000       2.00918150
2
Properties=species:S:1:pos:R:3:forces:R:3 energy=0.7002967872224829 pbc="F F F"
Xe       0.00000000       0.00000000       0.00000000       0.00000000       0.00000000      -1.74708080
Xe       0.00000000       0.00000000       2.36464646       0.00000000       0.00000000       1.74708080
2
Properties=species:S:1:pos:R:3:forces:R:3 energy=0.6045071630529077 pbc="F F F"
Xe       0.00000000       0.00000000       0.00000000       0.00000000       0.00000000      -1.46814752
Xe       0.00000000       0.00000000       2.42424242       0.00000000       0.00000000       1.46814752
2
Properties=species:S:1:pos:R:3:forces:R:3 energy=0.5248826861281278 pbc="F F F"
Xe       0.00000000       0.00000000       0.00000000       0.00000000       0.00000000      -1.21001136
Xe       0.00000000       0.00000000       2.48383838       0.00000000       0.00000000       1.21001136
2
Properties=species:S:1:pos:R:3:forces:R:3 energy=0.4593549381544092 pbc="F F F"
Xe       0.00000000       0.00000000       0.00000000       0.00000000       0.00000000      -0.99816412
Xe       0.00000000       0.00000000       2.54343434       0.00000000       0.00000000       0.99816412
2
Properties=species:S:1:pos:R:3:forces:R:3 energy=0.4047529194478036 pbc="F F F"
Xe       0.00000000       0.00000000       0.00000000       0.00000000       0.00000000      -0.84414226
Xe       0.00000000       0.00000000       2.60303030       0.00000000       0.00000000       0.84414226
2
Properties=species:S:1:pos:R:3:forces:R:3 energy=0.35760134344509253 pbc="F F F"
Xe       0.00000000       0.00000000       0.00000000       0.00000000       0.00000000      -0.74710703
Xe       0.00000000       0.00000000       2.66262626       0.00000000       0.00000000       0.74710703
2
Properties=species:S:1:pos:R:3:forces:R:3 energy=0.3147660745192274 pbc="F F F"
Xe       0.00000000       0.00000000       0.00000000       0.00000000       0.00000000      -0.69709718
Xe       0.00000000       0.00000000       2.72222222       0.00000000       0.00000000       0.69709718
2
Properties=species:S:1:pos:R:3:forces:R:3 energy=0.27389153854091314 pbc="F F F"
Xe       0.00000000       0.00000000       0.00000000       0.00000000       0.00000000      -0.67829955
Xe       0.00000000       0.00000000       2.78181818       0.00000000       0.00000000       0.67829955
2
Properties=species:S:1:pos:R:3:forces:R:3 energy=0.23366541255886797 pbc="F F F"
Xe       0.00000000       0.00000000       0.00000000       0.00000000       0.00000000      -0.67224401
Xe       0.00000000       0.00000000       2.84141414       0.00000000       0.00000000       0.67224401
2
Properties=species:S:1:pos:R:3:forces:R:3 energy=0.19386232356996058 pbc="F F F"
Xe       0.00000000       0.00000000       0.00000000       0.00000000       0.00000000      -0.66150934
Xe       0.00000000       0.00000000       2.90101010       0.00000000       0.00000000       0.66150934
2
Properties=species:S:1:pos:R:3:forces:R:3 energy=0.15516476671795598 pbc="F F F"
Xe       0.00000000       0.00000000       0.00000000       0.00000000       0.00000000      -0.63363504
Xe       0.00000000       0.00000000       2.96060606       0.00000000       0.00000000       0.63363504
2
Properties=species:S:1:pos:R:3:forces:R:3 energy=0.11877972505049816 pbc="F F F"
Xe       0.00000000       0.00000000       0.00000000       0.00000000       0.00000000      -0.58378816
Xe       0.00000000       0.00000000       3.02020202       0.00000000       0.00000000       0.58378816
2
Properties=species:S:1:pos:R:3:forces:R:3 energy=0.08596353907482383 pbc="F F F"
Xe       0.00000000       0.00000000       0.00000000       0.00000000       0.00000000      -0.51492733
Xe       0.00000000       0.00000000       3.07979798       0.00000000       0.00000000       0.51492733
2
Properties=species:S:1:pos:R:3:forces:R:3 energy=0.05761454849349818 pbc="F F F"
Xe       0.00000000       0.00000000       0.00000000       0.00000000       0.00000000      -0.43556702
Xe       0.00000000       0.00000000       3.13939394       0.00000000       0.00000000       0.43556702
2
Properties=species:S:1:pos:R:3:forces:R:3 energy=0.03404432694090514 pbc="F F F"
Xe       0.00000000       0.00000000       0.00000000       0.00000000       0.00000000      -0.35631481
Xe       0.00000000       0.00000000       3.19898990       0.00000000       0.00000000       0.35631481
2
Properties=species:S:1:pos:R:3:forces:R:3 energy=0.014952885690057975 pbc="F F F"
Xe       0.00000000       0.00000000       0.00000000       0.00000000       0.00000000      -0.28659481
Xe       0.00000000       0.00000000       3.25858586       0.00000000       0.00000000       0.28659481
2
Properties=species:S:1:pos:R:3:forces:R:3 energy=-0.00042824169883496493 pbc="F F F"
Xe       0.00000000       0.00000000       0.00000000       0.00000000       0.00000000      -0.23247655
Xe       0.00000000       0.00000000       3.31818182       0.00000000       0.00000000       0.23247655
2
Properties=species:S:1:pos:R:3:forces:R:3 energy=-0.01310683220375141 pbc="F F F"
Xe       0.00000000       0.00000000       0.00000000       0.00000000       0.00000000      -0.19586918
Xe       0.00000000       0.00000000       3.37777778       0.00000000       0.00000000       0.19586918
2
Properties=species:S:1:pos:R:3:forces:R:3 energy=-0.02408602460806735 pbc="F F F"
Xe       0.00000000       0.00000000       0.00000000       0.00000000       0.00000000      -0.17486748
Xe       0.00000000       0.00000000       3.43737374       0.00000000       0.00000000       0.17486748
2
Properties=species:S:1:pos:R:3:forces:R:3 energy=-0.034169147068821515 pbc="F F F"
Xe       0.00000000       0.00000000       0.00000000       0.00000000       0.00000000      -0.16487508
Xe       0.00000000       0.00000000       3.49696970       0.00000000       0.00000000       0.16487508
2
Properties=species:S:1:pos:R:3:forces:R:3 energy=-0.043841872267752095 pbc="F F F"
Xe       0.00000000       0.00000000       0.00000000       0.00000000       0.00000000      -0.16012672
Xe       0.00000000       0.00000000       3.55656566       0.00000000       0.00000000       0.16012672
2
Properties=species:S:1:pos:R:3:forces:R:3 energy=-0.05325024732814792 pbc="F F F"
Xe       0.00000000       0.00000000       0.00000000       0.00000000       0.00000000      -0.15519373
Xe       0.00000000       0.00000000       3.61616162       0.00000000       0.00000000       0.15519373
2
Properties=species:S:1:pos:R:3:forces:R:3 energy=-0.062255910828615 pbc="F F F"
Xe       0.00000000       0.00000000       0.00000000       0.00000000       0.00000000      -0.14611591
Xe       0.00000000       0.00000000       3.67575758       0.00000000       0.00000000       0.14611591
2
Properties=species:S:1:pos:R:3:forces:R:3 energy=-0.07054339571085994 pbc="F F F"
Xe       0.00000000       0.00000000       0.00000000       0.00000000       0.00000000      -0.13093325
Xe       0.00000000       0.00000000       3.73535354       0.00000000       0.00000000       0.13093325
2
Properties=species:S:1:pos:R:3:forces:R:3 energy=-0.07773940655578862 pbc="F F F"
Xe       0.00000000       0.00000000       0.00000000       0.00000000       0.00000000      -0.10961980
Xe       0.00000000       0.00000000       3.79494949       0.00000000       0.00000000       0.10961980
2
Properties=species:S:1:pos:R:3:forces:R:3 energy=-0.08351498771620047 pbc="F F F"
Xe       0.00000000       0.00000000       0.00000000       0.00000000       0.00000000      -0.08359123
Xe       0.00000000       0.00000000       3.85454545       0.00000000       0.00000000       0.08359123
2
Properties=species:S:1:pos:R:3:forces:R:3 energy=-0.08765266831635535 pbc="F F F"
Xe       0.00000000       0.00000000       0.00000000       0.00000000       0.00000000      -0.05504466
Xe       0.00000000       0.00000000       3.91414141       0.00000000       0.00000000       0.05504466
2
Properties=species:S:1:pos:R:3:forces:R:3 energy=-0.09007302222686271 pbc="F F F"
Xe       0.00000000       0.00000000       0.00000000       0.00000000       0.00000000      -0.02633718
Xe       0.00000000       0.00000000       3.97373737       0.00000000       0.00000000       0.02633718
2
Properties=species:S:1:pos:R:3:forces:R:3 energy=-0.09083024335775666 pbc="F F F"
Xe       0.00000000       0.00000000       0.00000000       0.00000000       0.00000000       0.00045845
Xe       0.00000000       0.00000000       4.03333333       0.00000000       0.00000000      -0.00045845
2
Properties=species:S:1:pos:R:3:forces:R:3 energy=-0.09008727797430699 pbc="F F F"
Xe       0.00000000       0.00000000       0.00000000       0.00000000       0.00000000       0.02380240
Xe       0.00000000       0.00000000       4.09292929       0.00000000       0.00000000      -0.02380240
2
Properties=species:S:1:pos:R:3:forces:R:3 energy=-0.08808078291755944 pbc="F F F"
Xe       0.00000000       0.00000000       0.00000000       0.00000000       0.00000000       0.04275706
Xe       0.00000000       0.00000000       4.15252525       0.00000000       0.00000000      -0.04275706
2
Properties=species:S:1:pos:R:3:forces:R:3 energy=-0.08508603583856914 pbc="F F F"
Xe       0.00000000       0.00000000       0.00000000       0.00000000       0.00000000       0.05694487
Xe       0.00000000       0.00000000       4.21212121       0.00000000       0.00000000      -0.05694487
2
Properties=species:S:1:pos:R:3:forces:R:3 energy=-0.0813868265882298 pbc="F F F"
Xe       0.00000000       0.00000000       0.00000000       0.00000000       0.00000000       0.06644180
Xe       0.00000000       0.00000000       4.27171717       0.00000000       0.00000000      -0.06644180
2
Properties=species:S:1:pos:R:3:forces:R:3 energy=-0.07725197920787524 pbc="F F F"
Xe       0.00000000       0.00000000       0.00000000       0.00000000       0.00000000       0.07165266
Xe       0.00000000       0.00000000       4.33131313       0.00000000       0.00000000      -0.07165266
2
Properties=species:S:1:pos:R:3:forces:R:3 energy=-0.0729192459508858 pbc="F F F"
Xe       0.00000000       0.00000000       0.00000000       0.00000000       0.00000000       0.07319845
Xe       0.00000000       0.00000000       4.39090909       0.00000000       0.00000000      -0.07319845
2
Properties=species:S:1:pos:R:3:forces:R:3 energy=-0.06858544090006419 pbc="F F F"
Xe       0.00000000       0.00000000       0.00000000       0.00000000       0.00000000       0.07181995
Xe       0.00000000       0.00000000       4.45050505       0.00000000       0.00000000      -0.07181995
2
Properties=species:S:1:pos:R:3:forces:R:3 energy=-0.06440139105783708 pbc="F F F"
Xe       0.00000000       0.00000000       0.00000000       0.00000000       0.00000000       0.06830410
Xe       0.00000000       0.00000000       4.51010101       0.00000000       0.00000000      -0.06830410
2
Properties=species:S:1:pos:R:3:forces:R:3 energy=-0.06047112101213204 pbc="F F F"
Xe       0.00000000       0.00000000       0.00000000       0.00000000       0.00000000       0.06342408
Xe       0.00000000       0.00000000       4.56969697       0.00000000       0.00000000      -0.06342408
2
Properties=species:S:1:pos:R:3:forces:R:3 energy=-0.0568546524167974 pbc="F F F"
Xe       0.00000000       0.00000000       0.00000000       0.00000000       0.00000000       0.05788560
Xe       0.00000000       0.00000000       4.62929293       0.00000000       0.00000000      -0.05788560
2
Properties=species:S:1:pos:R:3:forces:R:3 energy=-0.05357292225973 pbc="F F F"
Xe       0.00000000       0.00000000       0.00000000       0.00000000       0.00000000       0.05228053
Xe       0.00000000       0.00000000       4.68888889       0.00000000       0.00000000      -0.05228053
2
Properties=species:S:1:pos:R:3:forces:R:3 energy=-0.05061574559564873 pbc="F F F"
Xe       0.00000000       0.00000000       0.00000000       0.00000000       0.00000000       0.04704961
Xe       0.00000000       0.00000000       4.74848485       0.00000000       0.00000000      -0.04704961
2
Properties=species:S:1:pos:R:3:forces:R:3 energy=-0.04795210644379541 pbc="F F F"
Xe       0.00000000       0.00000000       0.00000000       0.00000000       0.00000000       0.04246121
Xe       0.00000000       0.00000000       4.80808081       0.00000000       0.00000000      -0.04246121
2
Properties=species:S:1:pos:R:3:forces:R:3 energy=-0.04554007465221851 pbc="F F F"
Xe       0.00000000       0.00000000       0.00000000       0.00000000       0.00000000       0.03860408
Xe       0.00000000       0.00000000       4.86767677       0.00000000       0.00000000      -0.03860408
2
Properties=species:S:1:pos:R:3:forces:R:3 energy=-0.043337716043119714 pbc="F F F"
Xe       0.00000000       0.00000000       0.00000000       0.00000000       0.00000000       0.03539843
Xe       0.00000000       0.00000000       4.92727273       0.00000000       0.00000000      -0.03539843
2
Properties=species:S:1:pos:R:3:forces:R:3 energy=-0.04131210978326336 pbc="F F F"
Xe       0.00000000       0.00000000       0.00000000       0.00000000       0.00000000       0.03263060
Xe       0.00000000       0.00000000       4.98686869       0.00000000       0.00000000      -0.03263060
2
Properties=species:S:1:pos:R:3:forces:R:3 energy=-0.039445193010481154 pbc="F F F"
Xe       0.00000000       0.00000000       0.00000000       0.00000000       0.00000000       0.03003312
Xe       0.00000000       0.00000000       5.04646465       0.00000000       0.00000000      -0.03003312
2
Properties=species:S:1:pos:R:3:forces:R:3 energy=-0.037732712266200556 pbc="F F F"
Xe       0.00000000       0.00000000       0.00000000       0.00000000       0.00000000       0.02743325
Xe       0.00000000       0.00000000       5.10606061       0.00000000       0.00000000      -0.02743325
2
Properties=species:S:1:pos:R:3:forces:R:3 energy=-0.03617305231429705 pbc="F F F"
Xe       0.00000000       0.00000000       0.00000000       0.00000000       0.00000000       0.02495690
Xe       0.00000000       0.00000000       5.16565657       0.00000000       0.00000000      -0.02495690
2
Properties=species:S:1:pos:R:3:forces:R:3 energy=-0.03474585988114741 pbc="F F F"
Xe       0.00000000       0.00000000       0.00000000       0.00000000       0.00000000       0.02309014
Xe       0.00000000       0.00000000       5.22525253       0.00000000       0.00000000      -0.02309014
2
Properties=species:S:1:pos:R:3:forces:R:3 energy=-0.03339998285130163 pbc="F F F"
Xe       0.00000000       0.00000000       0.00000000       0.00000000       0.00000000       0.02224843
Xe       0.00000000       0.00000000       5.28484848       0.00000000       0.00000000      -0.02224843
2
Properties=species:S:1:pos:R:3:forces:R:3 energy=-0.03208059269473689 pbc="F F F"
Xe       0.00000000       0.00000000       0.00000000       0.00000000       0.00000000       0.02205798
Xe       0.00000000       0.00000000       5.34444444       0.00000000       0.00000000      -0.02205798
2
Properties=species:S:1:pos:R:3:forces:R:3 energy=-0.030776972167825448 pbc="F F F"
Xe       0.00000000       0.00000000       0.00000000       0.00000000       0.00000000       0.02158407
Xe       0.00000000       0.00000000       5.40404040       0.00000000       0.00000000      -0.02158407
2
Properties=species:S:1:pos:R:3:forces:R:3 energy=-0.029519974780352332 pbc="F F F"
Xe       0.00000000       0.00000000       0.00000000       0.00000000       0.00000000       0.02053312
Xe       0.00000000       0.00000000       5.46363636       0.00000000       0.00000000      -0.02053312
2
Properties=species:S:1:pos:R:3:forces:R:3 energy=-0.02832861671543063 pbc="F F F"
Xe       0.00000000       0.00000000       0.00000000       0.00000000       0.00000000       0.01954085
Xe       0.00000000       0.00000000       5.52323232       0.00000000       0.00000000      -0.01954085
2
Properties=species:S:1:pos:R:3:forces:R:3 energy=-0.02717793024208038 pbc="F F F"
Xe       0.00000000       0.00000000       0.00000000       0.00000000       0.00000000       0.01916767
Xe       0.00000000       0.00000000       5.58282828       0.00000000       0.00000000      -0.01916767
2
Properties=species:S:1:pos:R:3:forces:R:3 energy=-0.026043154971394096 pbc="F F F"
Xe       0.00000000       0.00000000       0.00000000       0.00000000       0.00000000       0.01880249
Xe       0.00000000       0.00000000       5.64242424       0.00000000       0.00000000      -0.01880249
2
Properties=species:S:1:pos:R:3:forces:R:3 energy=-0.024964105444206665 pbc="F F F"
Xe       0.00000000       0.00000000       0.00000000       0.00000000       0.00000000       0.01709142
Xe       0.00000000       0.00000000       5.70202020       0.00000000       0.00000000      -0.01709142
2
Properties=species:S:1:pos:R:3:forces:R:3 energy=-0.024038005490959587 pbc="F F F"
Xe       0.00000000       0.00000000       0.00000000       0.00000000       0.00000000       0.01383799
Xe       0.00000000       0.00000000       5.76161616       0.00000000       0.00000000      -0.01383799
2
Properties=species:S:1:pos:R:3:forces:R:3 energy=-0.023320684102516316 pbc="F F F"
Xe       0.00000000       0.00000000       0.00000000       0.00000000       0.00000000       0.01028913
Xe       0.00000000       0.00000000       5.82121212       0.00000000       0.00000000      -0.01028913
2
Properties=species:S:1:pos:R:3:forces:R:3 energy=-0.022796262081545785 pbc="F F F"
Xe       0.00000000       0.00000000       0.00000000       0.00000000       0.00000000       0.00749901
Xe       0.00000000       0.00000000       5.88080808       0.00000000       0.00000000      -0.00749901
2
Properties=species:S:1:pos:R:3:forces:R:3 energy=-0.022406663088804644 pbc="F F F"
Xe       0.00000000       0.00000000       0.00000000       0.00000000       0.00000000       0.00571202
Xe       0.00000000       0.00000000       5.94040404       0.00000000       0.00000000      -0.00571202
2
Properties=species:S:1:pos:R:3:forces:R:3 energy=-0.02209562274055956 pbc="F F F"
Xe       0.00000000       0.00000000       0.00000000       0.00000000       0.00000000       0.00489970
Xe       0.00000000       0.00000000       6.00000000       0.00000000       0.00000000      -0.00489970
