2
Properties=species:S:1:pos:R:3:forces:R:3 energy=8332.379947242398 pbc="F F F"
Ag       0.00000000       0.00000000       0.00000000       0.00000000       0.00000000 -131510.81250000
Ag       0.00000000       0.00000000       0.18000000       0.00000000       0.00000000  131510.81250000
2
Properties=species:S:1:pos:R:3:forces:R:3 energy=3649.052798804897 pbc="F F F"
Ag       0.00000000       0.00000000       0.00000000       0.00000000       0.00000000  -45534.98828125
Ag       0.00000000       0.00000000       0.23878788       0.00000000       0.00000000   45534.98828125
2
Properties=species:S:1:pos:R:3:forces:R:3 energy=1897.893130836147 pbc="F F F"
Ag       0.00000000       0.00000000       0.00000000       0.00000000       0.00000000  -18643.23632812
Ag       0.00000000       0.00000000       0.29757576       0.00000000       0.00000000   18643.23632812
2
Properties=species:S:1:pos:R:3:forces:R:3 energy=1142.9918857221273 pbc="F F F"
Ag       0.00000000       0.00000000       0.00000000       0.00000000       0.00000000   -8551.71582031
Ag       0.00000000       0.00000000       0.35636364       0.00000000       0.00000000    8551.71582031
2
Properties=species:S:1:pos:R:3:forces:R:3 energy=781.0166660019005 pbc="F F F"
Ag       0.00000000       0.00000000       0.00000000       0.00000000       0.00000000   -4342.60693359
Ag       0.00000000       0.00000000       0.41515152       0.00000000       0.00000000    4342.60693359
2
Properties=species:S:1:pos:R:3:forces:R:3 energy=588.8194003927397 pbc="F F F"
Ag       0.00000000       0.00000000       0.00000000       0.00000000       0.00000000   -2411.95117188
Ag       0.00000000       0.00000000       0.47393939       0.00000000       0.00000000    2411.95117188
2
Properties=species:S:1:pos:R:3:forces:R:3 energy=479.49490701304694 pbc="F F F"
Ag       0.00000000       0.00000000       0.00000000       0.00000000       0.00000000   -1449.40197754
Ag       0.00000000       0.00000000       0.53272727       0.00000000       0.00000000    1449.40197754
2
Properties=species:S:1:pos:R:3:forces:R:3 energy=405.92670027345486 pbc="F F F"
Ag       0.00000000       0.00000000       0.00000000       0.00000000       0.00000000   -1115.60888672
Ag       0.00000000       0.00000000       0.59151515       0.00000000       0.00000000    1115.60888672
2
Properties=species:S:1:pos:R:3:forces:R:3 energy=343.62567496519324 pbc="F F F"
Ag       0.00000000       0.00000000       0.00000000       0.00000000       0.00000000   -1029.84667969
Ag       0.00000000       0.00000000       0.65030303       0.00000000       0.00000000    1029.84667969
2
Properties=species:S:1:pos:R:3:forces:R:3 energy=283.21396244542177 pbc="F F F"
Ag       0.00000000       0.00000000       0.00000000       0.00000000       0.00000000   -1025.51049805
Ag       0.00000000       0.00000000       0.70909091       0.00000000       0.00000000    1025.51049805
2
Properties=species:S:1:pos:R:3:forces:R:3 energy=223.91304406272516 pbc="F F F"
Ag       0.00000000       0.00000000       0.00000000       0.00000000       0.00000000    -986.89349365
Ag       0.00000000       0.00000000       0.76787879       0.00000000       0.00000000     986.89349365
2
Properties=species:S:1:pos:R:3:forces:R:3 energy=167.99965323771573 pbc="F F F"
Ag       0.00000000       0.00000000       0.00000000       0.00000000       0.00000000    -899.49780273
Ag       0.00000000       0.00000000       0.82666667       0.00000000       0.00000000     899.49780273
2
Properties=species:S:1:pos:R:3:forces:R:3 energy=121.48490602673589 pbc="F F F"
Ag       0.00000000       0.00000000       0.00000000       0.00000000       0.00000000    -665.43090820
Ag       0.00000000       0.00000000       0.88545455       0.00000000       0.00000000     665.43090820
2
Properties=species:S:1:pos:R:3:forces:R:3 energy=89.11254637378734 pbc="F F F"
Ag       0.00000000       0.00000000       0.00000000       0.00000000       0.00000000    -444.01406860
Ag       0.00000000       0.00000000       0.94424242       0.00000000       0.00000000     444.01406860
2
Properties=species:S:1:pos:R:3:forces:R:3 energy=67.71209550558662 pbc="F F F"
Ag       0.00000000       0.00000000       0.00000000       0.00000000       0.00000000    -296.75875854
Ag       0.00000000       0.00000000       1.00303030       0.00000000       0.00000000     296.75875854
2
Properties=species:S:1:pos:R:3:forces:R:3 energy=53.300059683726374 pbc="F F F"
Ag       0.00000000       0.00000000       0.00000000       0.00000000       0.00000000    -199.62219238
Ag       0.00000000       0.00000000       1.06181818       0.00000000       0.00000000     199.62219238
2
Properties=species:S:1:pos:R:3:forces:R:3 energy=43.5197457069086 pbc="F F F"
Ag       0.00000000       0.00000000       0.00000000       0.00000000       0.00000000    -138.58384705
Ag       0.00000000       0.00000000       1.12060606       0.00000000       0.00000000     138.58384705
2
Properties=species:S:1:pos:R:3:forces:R:3 energy=36.53843577149232 pbc="F F F"
Ag       0.00000000       0.00000000       0.00000000       0.00000000       0.00000000    -101.59726715
Ag       0.00000000       0.00000000       1.17939394       0.00000000       0.00000000     101.59726715
2
Properties=species:S:1:pos:R:3:forces:R:3 energy=31.33344779207426 pbc="F F F"
Ag       0.00000000       0.00000000       0.00000000       0.00000000       0.00000000     -77.22956085
Ag       0.00000000       0.00000000       1.23818182       0.00000000       0.00000000      77.22956085
2
Properties=species:S:1:pos:R:3:forces:R:3 energy=27.268107014385865 pbc="F F F"
Ag       0.00000000       0.00000000       0.00000000       0.00000000       0.00000000     -62.52910995
Ag       0.00000000       0.00000000       1.29696970       0.00000000       0.00000000      62.52910995
2
Properties=species:S:1:pos:R:3:forces:R:3 energy=23.84276644364402 pbc="F F F"
Ag       0.00000000       0.00000000       0.00000000       0.00000000       0.00000000     -54.86503983
Ag       0.00000000       0.00000000       1.35575758       0.00000000       0.00000000      54.86503983
2
Properties=species:S:1:pos:R:3:forces:R:3 energy=20.74759653266142 pbc="F F F"
Ag       0.00000000       0.00000000       0.00000000       0.00000000       0.00000000     -50.83300400
Ag       0.00000000       0.00000000       1.41454545       0.00000000       0.00000000      50.83300400
2
Properties=species:S:1:pos:R:3:forces:R:3 energy=17.833267341850693 pbc="F F F"
Ag       0.00000000       0.00000000       0.00000000       0.00000000       0.00000000     -48.48774719
Ag       0.00000000       0.00000000       1.47333333       0.00000000       0.00000000      48.48774719
2
Properties=species:S:1:pos:R:3:forces:R:3 energy=15.038663831234645 pbc="F F F"
Ag       0.00000000       0.00000000       0.00000000       0.00000000       0.00000000     -46.55098724
Ag       0.00000000       0.00000000       1.53212121       0.00000000       0.00000000      46.55098724
2
Properties=species:S:1:pos:R:3:forces:R:3 energy=12.373265780111943 pbc="F F F"
Ag       0.00000000       0.00000000       0.00000000       0.00000000       0.00000000     -43.96381760
Ag       0.00000000       0.00000000       1.59090909       0.00000000       0.00000000      43.96381760
2
Properties=species:S:1:pos:R:3:forces:R:3 energy=9.890319030691463 pbc="F F F"
Ag       0.00000000       0.00000000       0.00000000       0.00000000       0.00000000     -40.33833694
Ag       0.00000000       0.00000000       1.64969697       0.00000000       0.00000000      40.33833694
2
Properties=species:S:1:pos:R:3:forces:R:3 energy=7.647353358721777 pbc="F F F"
Ag       0.00000000       0.00000000       0.00000000       0.00000000       0.00000000     -35.85706329
Ag       0.00000000       0.00000000       1.70848485       0.00000000       0.00000000      35.85706329
2
Properties=species:S:1:pos:R:3:forces:R:3 energy=5.683145538878798 pbc="F F F"
Ag       0.00000000       0.00000000       0.00000000       0.00000000       0.00000000     -30.92976952
Ag       0.00000000       0.00000000       1.76727273       0.00000000       0.00000000      30.92976952
2
Properties=species:S:1:pos:R:3:forces:R:3 energy=4.010970166285999 pbc="F F F"
Ag       0.00000000       0.00000000       0.00000000       0.00000000       0.00000000     -25.98799706
Ag       0.00000000       0.00000000       1.82606061       0.00000000       0.00000000      25.98799706
2
Properties=species:S:1:pos:R:3:forces:R:3 energy=2.6215081722781988 pbc="F F F"
Ag       0.00000000       0.00000000       0.00000000       0.00000000       0.00000000     -21.35024261
Ag       0.00000000       0.00000000       1.88484848       0.00000000       0.00000000      21.35024261
2
Properties=species:S:1:pos:R:3:forces:R:3 energy=1.4916062501378529 pbc="F F F"
Ag       0.00000000       0.00000000       0.00000000       0.00000000       0.00000000     -17.17395782
Ag       0.00000000       0.00000000       1.94363636       0.00000000       0.00000000      17.17395782
2
Properties=species:S:1:pos:R:3:forces:R:3 energy=0.591732979507909 pbc="F F F"
Ag       0.00000000       0.00000000       0.00000000       0.00000000       0.00000000     -13.53372002
Ag       0.00000000       0.00000000       2.00242424       0.00000000       0.00000000      13.53372002
2
Properties=species:S:1:pos:R:3:forces:R:3 energy=-0.11073738183319769 pbc="F F F"
Ag       0.00000000       0.00000000       0.00000000       0.00000000       0.00000000     -10.45865917
Ag       0.00000000       0.00000000       2.06121212       0.00000000       0.00000000      10.45865917
2
Properties=species:S:1:pos:R:3:forces:R:3 energy=-0.6486329934806896 pbc="F F F"
Ag       0.00000000       0.00000000       0.00000000       0.00000000       0.00000000      -7.92754126
Ag       0.00000000       0.00000000       2.12000000       0.00000000       0.00000000       7.92754126
2
Properties=species:S:1:pos:R:3:forces:R:3 energy=-1.0523934565089257 pbc="F F F"
Ag       0.00000000       0.00000000       0.00000000       0.00000000       0.00000000      -5.88422585
Ag       0.00000000       0.00000000       2.17878788       0.00000000       0.00000000       5.88422585
2
Properties=species:S:1:pos:R:3:forces:R:3 energy=-1.3486732377985307 pbc="F F F"
Ag       0.00000000       0.00000000       0.00000000       0.00000000       0.00000000      -4.25918531
Ag       0.00000000       0.00000000       2.23757576       0.00000000       0.00000000       4.25918531
2
Properties=species:S:1:pos:R:3:forces:R:3 energy=-1.5599911365363646 pbc="F F F"
Ag       0.00000000       0.00000000       0.00000000       0.00000000       0.00000000      -2.98246717
Ag       0.00000000       0.00000000       2.29636364       0.00000000       0.00000000       2.98246717
2
Properties=species:S:1:pos:R:3:forces:R:3 energy=-1.7048990290527148 pbc="F F F"
Ag       0.00000000       0.00000000       0.00000000       0.00000000       0.00000000      -1.98980653
Ag       0.00000000       0.00000000       2.35515152       0.00000000       0.00000000       1.98980653
2
Properties=species:S:1:pos:R:3:forces:R:3 energy=-1.7983987448748064 pbc="F F F"
Ag       0.00000000       0.00000000       0.00000000       0.00000000       0.00000000      -1.22475016
Ag       0.00000000       0.00000000       2.41393939       0.00000000       0.00000000       1.22475016
2
Properties=species:S:1:pos:R:3:forces:R:3 energy=-1.852413275209936 pbc="F F F"
Ag       0.00000000       0.00000000       0.00000000       0.00000000       0.00000000      -0.63925231
Ag       0.00000000       0.00000000       2.47272727       0.00000000       0.00000000       0.63925231
2
Properties=species:S:1:pos:R:3:forces:R:3 energy=-1.8762963383094402 pbc="F F F"
Ag       0.00000000       0.00000000       0.00000000       0.00000000       0.00000000      -0.19376740
Ag       0.00000000       0.00000000       2.53151515       0.00000000       0.00000000       0.19376740
2
Properties=species:S:1:pos:R:3:forces:R:3 energy=-1.8773225063910566 pbc="F F F"
Ag       0.00000000       0.00000000       0.00000000       0.00000000       0.00000000       0.14291862
Ag       0.00000000       0.00000000       2.59030303       0.00000000       0.00000000      -0.14291862
2
Properties=species:S:1:pos:R:3:forces:R:3 energy=-1.86115519231975 pbc="F F F"
Ag       0.00000000       0.00000000       0.00000000       0.00000000       0.00000000       0.39456713
Ag       0.00000000       0.00000000       2.64909091       0.00000000       0.00000000      -0.39456713
2
Properties=species:S:1:pos:R:3:forces:R:3 energy=-1.832248947986593 pbc="F F F"
Ag       0.00000000       0.00000000       0.00000000       0.00000000       0.00000000       0.57880026
Ag       0.00000000       0.00000000       2.70787879       0.00000000       0.00000000      -0.57880026
2
Properties=species:S:1:pos:R:3:forces:R:3 energy=-1.7941686851889824 pbc="F F F"
Ag       0.00000000       0.00000000       0.00000000       0.00000000       0.00000000       0.70851558
Ag       0.00000000       0.00000000       2.76666667       0.00000000       0.00000000      -0.70851558
2
Properties=species:S:1:pos:R:3:forces:R:3 energy=-1.7498271708403348 pbc="F F F"
Ag       0.00000000       0.00000000       0.00000000       0.00000000       0.00000000       0.79312301
Ag       0.00000000       0.00000000       2.82545455       0.00000000       0.00000000      -0.79312301
2
Properties=species:S:1:pos:R:3:forces:R:3 energy=-1.7016614315393874 pbc="F F F"
Ag       0.00000000       0.00000000       0.00000000       0.00000000       0.00000000       0.83968699
Ag       0.00000000       0.00000000       2.88424242       0.00000000       0.00000000      -0.83968699
2
Properties=species:S:1:pos:R:3:forces:R:3 energy=-1.6517223279360511 pbc="F F F"
Ag       0.00000000       0.00000000       0.00000000       0.00000000       0.00000000       0.85457182
Ag       0.00000000       0.00000000       2.94303030       0.00000000       0.00000000      -0.85457182
2
Properties=species:S:1:pos:R:3:forces:R:3 energy=-1.6016419287138983 pbc="F F F"
Ag       0.00000000       0.00000000       0.00000000       0.00000000       0.00000000       0.84628135
Ag       0.00000000       0.00000000       3.00181818       0.00000000       0.00000000      -0.84628135
2
Properties=species:S:1:pos:R:3:forces:R:3 energy=-1.5524325026699093 pbc="F F F"
Ag       0.00000000       0.00000000       0.00000000       0.00000000       0.00000000       0.82713193
Ag       0.00000000       0.00000000       3.06060606       0.00000000       0.00000000      -0.82713193
2
Properties=species:S:1:pos:R:3:forces:R:3 energy=-1.504389564678859 pbc="F F F"
Ag       0.00000000       0.00000000       0.00000000       0.00000000       0.00000000       0.80771255
Ag       0.00000000       0.00000000       3.11939394       0.00000000       0.00000000      -0.80771255
2
Properties=species:S:1:pos:R:3:forces:R:3 energy=-1.4574385201612656 pbc="F F F"
Ag       0.00000000       0.00000000       0.00000000       0.00000000       0.00000000       0.78945619
Ag       0.00000000       0.00000000       3.17818182       0.00000000       0.00000000      -0.78945619
2
Properties=species:S:1:pos:R:3:forces:R:3 energy=-1.4116247287285217 pbc="F F F"
Ag       0.00000000       0.00000000       0.00000000       0.00000000       0.00000000       0.76842636
Ag       0.00000000       0.00000000       3.23696970       0.00000000       0.00000000      -0.76842636
2
Properties=species:S:1:pos:R:3:forces:R:3 energy=-1.3671859974498601 pbc="F F F"
Ag       0.00000000       0.00000000       0.00000000       0.00000000       0.00000000       0.74260342
Ag       0.00000000       0.00000000       3.29575758       0.00000000       0.00000000      -0.74260342
2
Properties=species:S:1:pos:R:3:forces:R:3 energy=-1.3243924155323785 pbc="F F F"
Ag       0.00000000       0.00000000       0.00000000       0.00000000       0.00000000       0.71273094
Ag       0.00000000       0.00000000       3.35454545       0.00000000       0.00000000      -0.71273094
2
Properties=species:S:1:pos:R:3:forces:R:3 energy=-1.283434595662884 pbc="F F F"
Ag       0.00000000       0.00000000       0.00000000       0.00000000       0.00000000       0.68037903
Ag       0.00000000       0.00000000       3.41333333       0.00000000       0.00000000      -0.68037903
2
Properties=species:S:1:pos:R:3:forces:R:3 energy=-1.2444181097557188 pbc="F F F"
Ag       0.00000000       0.00000000       0.00000000       0.00000000       0.00000000       0.64686900
Ag       0.00000000       0.00000000       3.47212121       0.00000000       0.00000000      -0.64686900
2
Properties=species:S:1:pos:R:3:forces:R:3 energy=-1.2073835793590004 pbc="F F F"
Ag       0.00000000       0.00000000       0.00000000       0.00000000       0.00000000       0.61309779
Ag       0.00000000       0.00000000       3.53090909       0.00000000       0.00000000      -0.61309779
2
Properties=species:S:1:pos:R:3:forces:R:3 energy=-1.1723267937883473 pbc="F F F"
Ag       0.00000000       0.00000000       0.00000000       0.00000000       0.00000000       0.57964385
Ag       0.00000000       0.00000000       3.58969697       0.00000000       0.00000000      -0.57964385
2
Properties=species:S:1:pos:R:3:forces:R:3 energy=-1.1392173563749217 pbc="F F F"
Ag       0.00000000       0.00000000       0.00000000       0.00000000       0.00000000       0.54689944
Ag       0.00000000       0.00000000       3.64848485       0.00000000       0.00000000      -0.54689944
2
Properties=species:S:1:pos:R:3:forces:R:3 energy=-1.1080056528422386 pbc="F F F"
Ag       0.00000000       0.00000000       0.00000000       0.00000000       0.00000000       0.51513571
Ag       0.00000000       0.00000000       3.70727273       0.00000000       0.00000000      -0.51513571
2
Properties=species:S:1:pos:R:3:forces:R:3 energy=-1.0786268165875748 pbc="F F F"
Ag       0.00000000       0.00000000       0.00000000       0.00000000       0.00000000       0.48454216
Ag       0.00000000       0.00000000       3.76606061       0.00000000       0.00000000      -0.48454216
2
Properties=species:S:1:pos:R:3:forces:R:3 energy=-1.0510096337170598 pbc="F F F"
Ag       0.00000000       0.00000000       0.00000000       0.00000000       0.00000000       0.45524269
Ag       0.00000000       0.00000000       3.82484848       0.00000000       0.00000000      -0.45524269
2
Properties=species:S:1:pos:R:3:forces:R:3 energy=-1.0250745932756444 pbc="F F F"
Ag       0.00000000       0.00000000       0.00000000       0.00000000       0.00000000       0.42730191
Ag       0.00000000       0.00000000       3.88363636       0.00000000       0.00000000      -0.42730191
2
Properties=species:S:1:pos:R:3:forces:R:3 energy=-1.000742085433725 pbc="F F F"
Ag       0.00000000       0.00000000       0.00000000       0.00000000       0.00000000       0.40074146
Ag       0.00000000       0.00000000       3.94242424       0.00000000       0.00000000      -0.40074146
2
Properties=species:S:1:pos:R:3:forces:R:3 energy=-0.9779306249392279 pbc="F F F"
Ag       0.00000000       0.00000000       0.00000000       0.00000000       0.00000000       0.37555009
Ag       0.00000000       0.00000000       4.00121212       0.00000000       0.00000000      -0.37555009
2
Properties=species:S:1:pos:R:3:forces:R:3 energy=-0.956560417644889 pbc="F F F"
Ag       0.00000000       0.00000000       0.00000000       0.00000000       0.00000000       0.35169983
Ag       0.00000000       0.00000000       4.06000000       0.00000000       0.00000000      -0.35169983
2
Properties=species:S:1:pos:R:3:forces:R:3 energy=-0.9365535171474315 pbc="F F F"
Ag       0.00000000       0.00000000       0.00000000       0.00000000       0.00000000       0.32916838
Ag       0.00000000       0.00000000       4.11878788       0.00000000       0.00000000      -0.32916838
2
Properties=species:S:1:pos:R:3:forces:R:3 energy=-0.9178324841430648 pbc="F F F"
Ag       0.00000000       0.00000000       0.00000000       0.00000000       0.00000000       0.30794317
Ag       0.00000000       0.00000000       4.17757576       0.00000000       0.00000000      -0.30794317
2
Properties=species:S:1:pos:R:3:forces:R:3 energy=-0.900320695370068 pbc="F F F"
Ag       0.00000000       0.00000000       0.00000000       0.00000000       0.00000000       0.28803033
Ag       0.00000000       0.00000000       4.23636364       0.00000000       0.00000000      -0.28803033
2
Properties=species:S:1:pos:R:3:forces:R:3 energy=-0.8839408243982955 pbc="F F F"
Ag       0.00000000       0.00000000       0.00000000       0.00000000       0.00000000       0.26943916
Ag       0.00000000       0.00000000       4.29515152       0.00000000       0.00000000      -0.26943916
2
Properties=species:S:1:pos:R:3:forces:R:3 energy=-0.8686154509308893 pbc="F F F"
Ag       0.00000000       0.00000000       0.00000000       0.00000000       0.00000000       0.25217503
Ag       0.00000000       0.00000000       4.35393939       0.00000000       0.00000000      -0.25217503
2
Properties=species:S:1:pos:R:3:forces:R:3 energy=-0.8542660604445487 pbc="F F F"
Ag       0.00000000       0.00000000       0.00000000       0.00000000       0.00000000       0.23621033
Ag       0.00000000       0.00000000       4.41272727       0.00000000       0.00000000      -0.23621033
2
Properties=species:S:1:pos:R:3:forces:R:3 energy=-0.8408184903869591 pbc="F F F"
Ag       0.00000000       0.00000000       0.00000000       0.00000000       0.00000000       0.22147377
Ag       0.00000000       0.00000000       4.47151515       0.00000000       0.00000000      -0.22147377
2
Properties=species:S:1:pos:R:3:forces:R:3 energy=-0.828204286660406 pbc="F F F"
Ag       0.00000000       0.00000000       0.00000000       0.00000000       0.00000000       0.20783509
Ag       0.00000000       0.00000000       4.53030303       0.00000000       0.00000000      -0.20783509
2
Properties=species:S:1:pos:R:3:forces:R:3 energy=-0.816364468217862 pbc="F F F"
Ag       0.00000000       0.00000000       0.00000000       0.00000000       0.00000000       0.19510466
Ag       0.00000000       0.00000000       4.58909091       0.00000000       0.00000000      -0.19510466
2
Properties=species:S:1:pos:R:3:forces:R:3 energy=-0.8052518625634931 pbc="F F F"
Ag       0.00000000       0.00000000       0.00000000       0.00000000       0.00000000       0.18304841
Ag       0.00000000       0.00000000       4.64787879       0.00000000       0.00000000      -0.18304841
2
Properties=species:S:1:pos:R:3:forces:R:3 energy=-0.7948339857825416 pbc="F F F"
Ag       0.00000000       0.00000000       0.00000000       0.00000000       0.00000000       0.17141384
Ag       0.00000000       0.00000000       4.70666667       0.00000000       0.00000000      -0.17141384
2
Properties=species:S:1:pos:R:3:forces:R:3 energy=-0.7850938136499093 pbc="F F F"
Ag       0.00000000       0.00000000       0.00000000       0.00000000       0.00000000       0.15998048
Ag       0.00000000       0.00000000       4.76545455       0.00000000       0.00000000      -0.15998048
2
Properties=species:S:1:pos:R:3:forces:R:3 energy=-0.7760226449118954 pbc="F F F"
Ag       0.00000000       0.00000000       0.00000000       0.00000000       0.00000000       0.14861286
Ag       0.00000000       0.00000000       4.82424242       0.00000000       0.00000000      -0.14861286
2
Properties=species:S:1:pos:R:3:forces:R:3 energy=-0.7676194456351043 pbc="F F F"
Ag       0.00000000       0.00000000       0.00000000       0.00000000       0.00000000       0.13732164
Ag       0.00000000       0.00000000       4.88303030       0.00000000       0.00000000      -0.13732164
2
Properties=species:S:1:pos:R:3:forces:R:3 energy=-0.7598722788997874 pbc="F F F"
Ag       0.00000000       0.00000000       0.00000000       0.00000000       0.00000000       0.12629703
Ag       0.00000000       0.00000000       4.94181818       0.00000000       0.00000000      -0.12629703
2
Properties=species:S:1:pos:R:3:forces:R:3 energy=-0.7527569598195667 pbc="F F F"
Ag       0.00000000       0.00000000       0.00000000       0.00000000       0.00000000       0.11592375
Ag       0.00000000       0.00000000       5.00060606       0.00000000       0.00000000      -0.11592375
2
Properties=species:S:1:pos:R:3:forces:R:3 energy=-0.7462193535459127 pbc="F F F"
Ag       0.00000000       0.00000000       0.00000000       0.00000000       0.00000000       0.10671295
Ag       0.00000000       0.00000000       5.05939394       0.00000000       0.00000000      -0.10671295
2
Properties=species:S:1:pos:R:3:forces:R:3 energy=-0.7401773311340443 pbc="F F F"
Ag       0.00000000       0.00000000       0.00000000       0.00000000       0.00000000       0.09916076
Ag       0.00000000       0.00000000       5.11818182       0.00000000       0.00000000      -0.09916076
2
Properties=species:S:1:pos:R:3:forces:R:3 energy=-0.7345231121310729 pbc="F F F"
Ag       0.00000000       0.00000000       0.00000000       0.00000000       0.00000000       0.09351366
Ag       0.00000000       0.00000000       5.17696970       0.00000000       0.00000000      -0.09351366
2
Properties=species:S:1:pos:R:3:forces:R:3 energy=-0.7291504765562175 pbc="F F F"
Ag       0.00000000       0.00000000       0.00000000       0.00000000       0.00000000       0.08947976
Ag       0.00000000       0.00000000       5.23575758       0.00000000       0.00000000      -0.08947976
2
Properties=species:S:1:pos:R:3:forces:R:3 energy=-0.7239909259132504 pbc="F F F"
Ag       0.00000000       0.00000000       0.00000000       0.00000000       0.00000000       0.08602048
Ag       0.00000000       0.00000000       5.29454545       0.00000000       0.00000000      -0.08602048
2
Properties=species:S:1:pos:R:3:forces:R:3 energy=-0.7190536838268271 pbc="F F F"
Ag       0.00000000       0.00000000       0.00000000       0.00000000       0.00000000       0.08171032
Ag       0.00000000       0.00000000       5.35333333       0.00000000       0.00000000      -0.08171032
2
Properties=species:S:1:pos:R:3:forces:R:3 energy=-0.7144062227466661 pbc="F F F"
Ag       0.00000000       0.00000000       0.00000000       0.00000000       0.00000000       0.07638159
Ag       0.00000000       0.00000000       5.41212121       0.00000000       0.00000000      -0.07638159
2
Properties=species:S:1:pos:R:3:forces:R:3 energy=-0.7100437424467797 pbc="F F F"
Ag       0.00000000       0.00000000       0.00000000       0.00000000       0.00000000       0.07247554
Ag       0.00000000       0.00000000       5.47090909       0.00000000       0.00000000      -0.07247554
2
Properties=species:S:1:pos:R:3:forces:R:3 energy=-0.7058502335212768 pbc="F F F"
Ag       0.00000000       0.00000000       0.00000000       0.00000000       0.00000000       0.07002410
Ag       0.00000000       0.00000000       5.52969697       0.00000000       0.00000000      -0.07002410
2
Properties=species:S:1:pos:R:3:forces:R:3 energy=-0.7018861270241828 pbc="F F F"
Ag       0.00000000       0.00000000       0.00000000       0.00000000       0.00000000       0.06399467
Ag       0.00000000       0.00000000       5.58848485       0.00000000       0.00000000      -0.06399467
2
Properties=species:S:1:pos:R:3:forces:R:3 energy=-0.6984001938076149 pbc="F F F"
Ag       0.00000000       0.00000000       0.00000000       0.00000000       0.00000000       0.05444773
Ag       0.00000000       0.00000000       5.64727273       0.00000000       0.00000000      -0.05444773
2
Properties=species:S:1:pos:R:3:forces:R:3 energy=-0.6954464868526107 pbc="F F F"
Ag       0.00000000       0.00000000       0.00000000       0.00000000       0.00000000       0.04689221
Ag       0.00000000       0.00000000       5.70606061       0.00000000       0.00000000      -0.04689221
2
Properties=species:S:1:pos:R:3:forces:R:3 energy=-0.6927545730379618 pbc="F F F"
Ag       0.00000000       0.00000000       0.00000000       0.00000000       0.00000000       0.04526708
Ag       0.00000000       0.00000000       5.76484848       0.00000000       0.00000000      -0.04526708
2
Properties=species:S:1:pos:R:3:forces:R:3 energy=-0.6901695306681679 pbc="F F F"
Ag       0.00000000       0.00000000       0.00000000       0.00000000       0.00000000       0.04123680
Ag       0.00000000       0.00000000       5.82363636       0.00000000       0.00000000      -0.04123680
2
Properties=species:S:1:pos:R:3:forces:R:3 energy=-0.6881116284134996 pbc="F F F"
Ag       0.00000000       0.00000000       0.00000000       0.00000000       0.00000000       0.02781577
Ag       0.00000000       0.00000000       5.88242424       0.00000000       0.00000000      -0.02781577
2
Properties=species:S:1:pos:R:3:forces:R:3 energy=-0.6869222086830994 pbc="F F F"
Ag       0.00000000       0.00000000       0.00000000       0.00000000       0.00000000       0.01329775
Ag       0.00000000       0.00000000       5.94121212       0.00000000       0.00000000      -0.01329775
2
Properties=species:S:1:pos:R:3:forces:R:3 energy=-0.6863757442039612 pbc="F F F"
Ag       0.00000000       0.00000000       0.00000000       0.00000000       0.00000000       0.00717060
Ag       0.00000000       0.00000000       6.00000000       0.00000000       0.00000000      -0.00717060
