2
Properties=species:S:1:pos:R:3:forces:R:3 energy=1255.607414685078 pbc="F F F"
Al       0.00000000       0.00000000       0.00000000       0.00000000       0.00000000  -17295.91406250
Al       0.00000000       0.00000000       0.18000000       0.00000000       0.00000000   17295.91406250
2
Properties=species:S:1:pos:R:3:forces:R:3 energy=608.9139942749218 pbc="F F F"
Al       0.00000000       0.00000000       0.00000000       0.00000000       0.00000000   -6696.78369141
Al       0.00000000       0.00000000       0.23878788       0.00000000       0.00000000    6696.78369141
2
Properties=species:S:1:pos:R:3:forces:R:3 energy=340.4133534057812 pbc="F F F"
Al       0.00000000       0.00000000       0.00000000       0.00000000       0.00000000   -3013.60644531
Al       0.00000000       0.00000000       0.29757576       0.00000000       0.00000000    3013.60644531
2
Properties=species:S:1:pos:R:3:forces:R:3 energy=213.9093250918044 pbc="F F F"
Al       0.00000000       0.00000000       0.00000000       0.00000000       0.00000000   -1493.80041504
Al       0.00000000       0.00000000       0.35636364       0.00000000       0.00000000    1493.80041504
2
Properties=species:S:1:pos:R:3:forces:R:3 energy=149.2933430488116 pbc="F F F"
Al       0.00000000       0.00000000       0.00000000       0.00000000       0.00000000    -789.02233887
Al       0.00000000       0.00000000       0.41515152       0.00000000       0.00000000     789.02233887
2
Properties=species:S:1:pos:R:3:forces:R:3 energy=114.18898057368992 pbc="F F F"
Al       0.00000000       0.00000000       0.00000000       0.00000000       0.00000000    -446.90911865
Al       0.00000000       0.00000000       0.47393939       0.00000000       0.00000000     446.90911865
2
Properties=species:S:1:pos:R:3:forces:R:3 energy=93.21594289197722 pbc="F F F"
Al       0.00000000       0.00000000       0.00000000       0.00000000       0.00000000    -287.27648926
Al       0.00000000       0.00000000       0.53272727       0.00000000       0.00000000     287.27648926
2
Properties=species:S:1:pos:R:3:forces:R:3 energy=78.66649684937664 pbc="F F F"
Al       0.00000000       0.00000000       0.00000000       0.00000000       0.00000000    -216.36012268
Al       0.00000000       0.00000000       0.59151515       0.00000000       0.00000000     216.36012268
2
Properties=species:S:1:pos:R:3:forces:R:3 energy=67.56382056548102 pbc="F F F"
Al       0.00000000       0.00000000       0.00000000       0.00000000       0.00000000    -159.25851440
Al       0.00000000       0.00000000       0.65030303       0.00000000       0.00000000     159.25851440
2
Properties=species:S:1:pos:R:3:forces:R:3 energy=59.8220261376905 pbc="F F F"
Al       0.00000000       0.00000000       0.00000000       0.00000000       0.00000000    -112.99341583
Al       0.00000000       0.00000000       0.70909091       0.00000000       0.00000000     112.99341583
2
Properties=species:S:1:pos:R:3:forces:R:3 energy=53.96815981396783 pbc="F F F"
Al       0.00000000       0.00000000       0.00000000       0.00000000       0.00000000     -94.79644012
Al       0.00000000       0.00000000       0.76787879       0.00000000       0.00000000      94.79644012
2
Properties=species:S:1:pos:R:3:forces:R:3 energy=48.38991693215561 pbc="F F F"
Al       0.00000000       0.00000000       0.00000000       0.00000000       0.00000000     -94.67078400
Al       0.00000000       0.00000000       0.82666667       0.00000000       0.00000000      94.67078400
2
Properties=species:S:1:pos:R:3:forces:R:3 energy=42.91936310620745 pbc="F F F"
Al       0.00000000       0.00000000       0.00000000       0.00000000       0.00000000     -90.70734406
Al       0.00000000       0.00000000       0.88545455       0.00000000       0.00000000      90.70734406
2
Properties=species:S:1:pos:R:3:forces:R:3 energy=37.80119597028056 pbc="F F F"
Al       0.00000000       0.00000000       0.00000000       0.00000000       0.00000000     -82.87339020
Al       0.00000000       0.00000000       0.94424242       0.00000000       0.00000000      82.87339020
2
Properties=species:S:1:pos:R:3:forces:R:3 energy=33.21760552913766 pbc="F F F"
Al       0.00000000       0.00000000       0.00000000       0.00000000       0.00000000     -72.96423340
Al       0.00000000       0.00000000       1.00303030       0.00000000       0.00000000      72.96423340
2
Properties=species:S:1:pos:R:3:forces:R:3 energy=29.19981134756397 pbc="F F F"
Al       0.00000000       0.00000000       0.00000000       0.00000000       0.00000000     -64.12502289
Al       0.00000000       0.00000000       1.06181818       0.00000000       0.00000000      64.12502289
2
Properties=species:S:1:pos:R:3:forces:R:3 energy=25.631827637561557 pbc="F F F"
Al       0.00000000       0.00000000       0.00000000       0.00000000       0.00000000     -57.59934616
Al       0.00000000       0.00000000       1.12060606       0.00000000       0.00000000      57.59934616
2
Properties=species:S:1:pos:R:3:forces:R:3 energy=22.376985366907757 pbc="F F F"
Al       0.00000000       0.00000000       0.00000000       0.00000000       0.00000000     -53.68965912
Al       0.00000000       0.00000000       1.17939394       0.00000000       0.00000000      53.68965912
2
Properties=species:S:1:pos:R:3:forces:R:3 energy=19.261324936595436 pbc="F F F"
Al       0.00000000       0.00000000       0.00000000       0.00000000       0.00000000     -52.55752182
Al       0.00000000       0.00000000       1.23818182       0.00000000       0.00000000      52.55752182
2
Properties=species:S:1:pos:R:3:forces:R:3 energy=16.207972725718825 pbc="F F F"
Al       0.00000000       0.00000000       0.00000000       0.00000000       0.00000000     -50.96370316
Al       0.00000000       0.00000000       1.29696970       0.00000000       0.00000000      50.96370316
2
Properties=species:S:1:pos:R:3:forces:R:3 energy=13.319512803204479 pbc="F F F"
Al       0.00000000       0.00000000       0.00000000       0.00000000       0.00000000     -46.91777039
Al       0.00000000       0.00000000       1.35575758       0.00000000       0.00000000      46.91777039
2
Properties=species:S:1:pos:R:3:forces:R:3 energy=10.721860924479342 pbc="F F F"
Al       0.00000000       0.00000000       0.00000000       0.00000000       0.00000000     -41.32769775
Al       0.00000000       0.00000000       1.41454545       0.00000000       0.00000000      41.32769775
2
Properties=species:S:1:pos:R:3:forces:R:3 energy=8.464738100793701 pbc="F F F"
Al       0.00000000       0.00000000       0.00000000       0.00000000       0.00000000     -35.48731613
Al       0.00000000       0.00000000       1.47333333       0.00000000       0.00000000      35.48731613
2
Properties=species:S:1:pos:R:3:forces:R:3 energy=6.541761204550327 pbc="F F F"
Al       0.00000000       0.00000000       0.00000000       0.00000000       0.00000000     -30.02852058
Al       0.00000000       0.00000000       1.53212121       0.00000000       0.00000000      30.02852058
2
Properties=species:S:1:pos:R:3:forces:R:3 energy=4.920836550761415 pbc="F F F"
Al       0.00000000       0.00000000       0.00000000       0.00000000       0.00000000     -25.23917580
Al       0.00000000       0.00000000       1.59090909       0.00000000       0.00000000      25.23917580
2
Properties=species:S:1:pos:R:3:forces:R:3 energy=3.5598292999250933 pbc="F F F"
Al       0.00000000       0.00000000       0.00000000       0.00000000       0.00000000     -21.18123245
Al       0.00000000       0.00000000       1.64969697       0.00000000       0.00000000      21.18123245
2
Properties=species:S:1:pos:R:3:forces:R:3 energy=2.4175642473203776 pbc="F F F"
Al       0.00000000       0.00000000       0.00000000       0.00000000       0.00000000     -17.77889442
Al       0.00000000       0.00000000       1.70848485       0.00000000       0.00000000      17.77889442
2
Properties=species:S:1:pos:R:3:forces:R:3 energy=1.459008271808248 pbc="F F F"
Al       0.00000000       0.00000000       0.00000000       0.00000000       0.00000000     -14.91011429
Al       0.00000000       0.00000000       1.76727273       0.00000000       0.00000000      14.91011429
2
Properties=species:S:1:pos:R:3:forces:R:3 energy=0.6564419247293595 pbc="F F F"
Al       0.00000000       0.00000000       0.00000000       0.00000000       0.00000000     -12.45337009
Al       0.00000000       0.00000000       1.82606061       0.00000000       0.00000000      12.45337009
2
Properties=species:S:1:pos:R:3:forces:R:3 energy=-0.011414009516908331 pbc="F F F"
Al       0.00000000       0.00000000       0.00000000       0.00000000       0.00000000     -10.31473732
Al       0.00000000       0.00000000       1.88484848       0.00000000       0.00000000      10.31473732
2
Properties=species:S:1:pos:R:3:forces:R:3 energy=-0.561442938241058 pbc="F F F"
Al       0.00000000       0.00000000       0.00000000       0.00000000       0.00000000      -8.43839550
Al       0.00000000       0.00000000       1.94363636       0.00000000       0.00000000       8.43839550
2
Properties=species:S:1:pos:R:3:forces:R:3 energy=-1.0081910615101017 pbc="F F F"
Al       0.00000000       0.00000000       0.00000000       0.00000000       0.00000000      -6.79839516
Al       0.00000000       0.00000000       2.00242424       0.00000000       0.00000000       6.79839516
2
Properties=species:S:1:pos:R:3:forces:R:3 energy=-1.3651316094219792 pbc="F F F"
Al       0.00000000       0.00000000       0.00000000       0.00000000       0.00000000      -5.38109827
Al       0.00000000       0.00000000       2.06121212       0.00000000       0.00000000       5.38109827
2
Properties=species:S:1:pos:R:3:forces:R:3 energy=-1.6449797606623813 pbc="F F F"
Al       0.00000000       0.00000000       0.00000000       0.00000000       0.00000000      -4.17305803
Al       0.00000000       0.00000000       2.12000000       0.00000000       0.00000000       4.17305803
2
Properties=species:S:1:pos:R:3:forces:R:3 energy=-1.8595669341850782 pbc="F F F"
Al       0.00000000       0.00000000       0.00000000       0.00000000       0.00000000      -3.15799785
Al       0.00000000       0.00000000       2.17878788       0.00000000       0.00000000       3.15799785
2
Properties=species:S:1:pos:R:3:forces:R:3 energy=-2.01970721637093 pbc="F F F"
Al       0.00000000       0.00000000       0.00000000       0.00000000       0.00000000      -2.31759524
Al       0.00000000       0.00000000       2.23757576       0.00000000       0.00000000       2.31759524
2
Properties=species:S:1:pos:R:3:forces:R:3 energy=-2.1350958540698923 pbc="F F F"
Al       0.00000000       0.00000000       0.00000000       0.00000000       0.00000000      -1.63212132
Al       0.00000000       0.00000000       2.29636364       0.00000000       0.00000000       1.63212132
2
Properties=species:S:1:pos:R:3:forces:R:3 energy=-2.21422655620024 pbc="F F F"
Al       0.00000000       0.00000000       0.00000000       0.00000000       0.00000000      -1.08042681
Al       0.00000000       0.00000000       2.35515152       0.00000000       0.00000000       1.08042681
2
Properties=species:S:1:pos:R:3:forces:R:3 energy=-2.2643132060915088 pbc="F F F"
Al       0.00000000       0.00000000       0.00000000       0.00000000       0.00000000      -0.64025801
Al       0.00000000       0.00000000       2.41393939       0.00000000       0.00000000       0.64025801
2
Properties=species:S:1:pos:R:3:forces:R:3 energy=-2.291254347451591 pbc="F F F"
Al       0.00000000       0.00000000       0.00000000       0.00000000       0.00000000      -0.28933659
Al       0.00000000       0.00000000       2.47272727       0.00000000       0.00000000       0.28933659
2
Properties=species:S:1:pos:R:3:forces:R:3 energy=-2.2996742637182654 pbc="F F F"
Al       0.00000000       0.00000000       0.00000000       0.00000000       0.00000000      -0.00700113
Al       0.00000000       0.00000000       2.53151515       0.00000000       0.00000000       0.00700113
2
Properties=species:S:1:pos:R:3:forces:R:3 energy=-2.293077171523433 pbc="F F F"
Al       0.00000000       0.00000000       0.00000000       0.00000000       0.00000000       0.22416122
Al       0.00000000       0.00000000       2.59030303       0.00000000       0.00000000      -0.22416122
2
Properties=species:S:1:pos:R:3:forces:R:3 energy=-2.274058545597617 pbc="F F F"
Al       0.00000000       0.00000000       0.00000000       0.00000000       0.00000000       0.41740665
Al       0.00000000       0.00000000       2.64909091       0.00000000       0.00000000      -0.41740665
2
Properties=species:S:1:pos:R:3:forces:R:3 energy=-2.2445694850094533 pbc="F F F"
Al       0.00000000       0.00000000       0.00000000       0.00000000       0.00000000       0.58145833
Al       0.00000000       0.00000000       2.70787879       0.00000000       0.00000000      -0.58145833
2
Properties=species:S:1:pos:R:3:forces:R:3 energy=-2.2061748602363935 pbc="F F F"
Al       0.00000000       0.00000000       0.00000000       0.00000000       0.00000000       0.72079587
Al       0.00000000       0.00000000       2.76666667       0.00000000       0.00000000      -0.72079587
2
Properties=species:S:1:pos:R:3:forces:R:3 energy=-2.1602800103584703 pbc="F F F"
Al       0.00000000       0.00000000       0.00000000       0.00000000       0.00000000       0.83664542
Al       0.00000000       0.00000000       2.82545455       0.00000000       0.00000000      -0.83664542
2
Properties=species:S:1:pos:R:3:forces:R:3 energy=-2.1082702506297313 pbc="F F F"
Al       0.00000000       0.00000000       0.00000000       0.00000000       0.00000000       0.92883337
Al       0.00000000       0.00000000       2.88424242       0.00000000       0.00000000      -0.92883337
2
Properties=species:S:1:pos:R:3:forces:R:3 energy=-2.051514537670652 pbc="F F F"
Al       0.00000000       0.00000000       0.00000000       0.00000000       0.00000000       0.99857378
Al       0.00000000       0.00000000       2.94303030       0.00000000       0.00000000      -0.99857378
2
Properties=species:S:1:pos:R:3:forces:R:3 energy=-1.9912155437406167 pbc="F F F"
Al       0.00000000       0.00000000       0.00000000       0.00000000       0.00000000       1.05030823
Al       0.00000000       0.00000000       3.00181818       0.00000000       0.00000000      -1.05030823
2
Properties=species:S:1:pos:R:3:forces:R:3 energy=-1.9282854121828363 pbc="F F F"
Al       0.00000000       0.00000000       0.00000000       0.00000000       0.00000000       1.08853352
Al       0.00000000       0.00000000       3.06060606       0.00000000       0.00000000      -1.08853352
2
Properties=species:S:1:pos:R:3:forces:R:3 energy=-1.8634918314394924 pbc="F F F"
Al       0.00000000       0.00000000       0.00000000       0.00000000       0.00000000       1.11337781
Al       0.00000000       0.00000000       3.11939394       0.00000000       0.00000000      -1.11337781
2
Properties=species:S:1:pos:R:3:forces:R:3 energy=-1.7976758886999247 pbc="F F F"
Al       0.00000000       0.00000000       0.00000000       0.00000000       0.00000000       1.12317312
Al       0.00000000       0.00000000       3.17818182       0.00000000       0.00000000      -1.12317312
2
Properties=species:S:1:pos:R:3:forces:R:3 energy=-1.7317158588033428 pbc="F F F"
Al       0.00000000       0.00000000       0.00000000       0.00000000       0.00000000       1.11866248
Al       0.00000000       0.00000000       3.23696970       0.00000000       0.00000000      -1.11866248
2
Properties=species:S:1:pos:R:3:forces:R:3 energy=-1.6663697025882085 pbc="F F F"
Al       0.00000000       0.00000000       0.00000000       0.00000000       0.00000000       1.10285389
Al       0.00000000       0.00000000       3.29575758       0.00000000       0.00000000      -1.10285389
2
Properties=species:S:1:pos:R:3:forces:R:3 energy=-1.6021981002520391 pbc="F F F"
Al       0.00000000       0.00000000       0.00000000       0.00000000       0.00000000       1.07928371
Al       0.00000000       0.00000000       3.35454545       0.00000000       0.00000000      -1.07928371
2
Properties=species:S:1:pos:R:3:forces:R:3 energy=-1.5395643515142607 pbc="F F F"
Al       0.00000000       0.00000000       0.00000000       0.00000000       0.00000000       1.05099928
Al       0.00000000       0.00000000       3.41333333       0.00000000       0.00000000      -1.05099928
2
Properties=species:S:1:pos:R:3:forces:R:3 energy=-1.4786741607216174 pbc="F F F"
Al       0.00000000       0.00000000       0.00000000       0.00000000       0.00000000       1.02024531
Al       0.00000000       0.00000000       3.47212121       0.00000000       0.00000000      -1.02024531
2
Properties=species:S:1:pos:R:3:forces:R:3 energy=-1.419627487290887 pbc="F F F"
Al       0.00000000       0.00000000       0.00000000       0.00000000       0.00000000       0.98847222
Al       0.00000000       0.00000000       3.53090909       0.00000000       0.00000000      -0.98847222
2
Properties=species:S:1:pos:R:3:forces:R:3 energy=-1.3624576213983137 pbc="F F F"
Al       0.00000000       0.00000000       0.00000000       0.00000000       0.00000000       0.95646924
Al       0.00000000       0.00000000       3.58969697       0.00000000       0.00000000      -0.95646924
2
Properties=species:S:1:pos:R:3:forces:R:3 energy=-1.3071684866804056 pbc="F F F"
Al       0.00000000       0.00000000       0.00000000       0.00000000       0.00000000       0.92452538
Al       0.00000000       0.00000000       3.64848485       0.00000000       0.00000000      -0.92452538
2
Properties=species:S:1:pos:R:3:forces:R:3 energy=-1.2537558166582852 pbc="F F F"
Al       0.00000000       0.00000000       0.00000000       0.00000000       0.00000000       0.89261621
Al       0.00000000       0.00000000       3.70727273       0.00000000       0.00000000      -0.89261621
2
Properties=species:S:1:pos:R:3:forces:R:3 energy=-1.2022213419872811 pbc="F F F"
Al       0.00000000       0.00000000       0.00000000       0.00000000       0.00000000       0.86054224
Al       0.00000000       0.00000000       3.76606061       0.00000000       0.00000000      -0.86054224
2
Properties=species:S:1:pos:R:3:forces:R:3 energy=-1.1525846625407512 pbc="F F F"
Al       0.00000000       0.00000000       0.00000000       0.00000000       0.00000000       0.82804006
Al       0.00000000       0.00000000       3.82484848       0.00000000       0.00000000      -0.82804006
2
Properties=species:S:1:pos:R:3:forces:R:3 energy=-1.1048767284171372 pbc="F F F"
Al       0.00000000       0.00000000       0.00000000       0.00000000       0.00000000       0.79486549
Al       0.00000000       0.00000000       3.88363636       0.00000000       0.00000000      -0.79486549
2
Properties=species:S:1:pos:R:3:forces:R:3 energy=-1.0591445726335855 pbc="F F F"
Al       0.00000000       0.00000000       0.00000000       0.00000000       0.00000000       0.76082611
Al       0.00000000       0.00000000       3.94242424       0.00000000       0.00000000      -0.76082611
2
Properties=species:S:1:pos:R:3:forces:R:3 energy=-1.0154418579141118 pbc="F F F"
Al       0.00000000       0.00000000       0.00000000       0.00000000       0.00000000       0.72582757
Al       0.00000000       0.00000000       4.00121212       0.00000000       0.00000000      -0.72582757
2
Properties=species:S:1:pos:R:3:forces:R:3 energy=-0.9738239554306369 pbc="F F F"
Al       0.00000000       0.00000000       0.00000000       0.00000000       0.00000000       0.68987393
Al       0.00000000       0.00000000       4.06000000       0.00000000       0.00000000      -0.68987393
2
Properties=species:S:1:pos:R:3:forces:R:3 energy=-0.9343456703230199 pbc="F F F"
Al       0.00000000       0.00000000       0.00000000       0.00000000       0.00000000       0.65310037
Al       0.00000000       0.00000000       4.11878788       0.00000000       0.00000000      -0.65310037
2
Properties=species:S:1:pos:R:3:forces:R:3 energy=-0.8970463025239974 pbc="F F F"
Al       0.00000000       0.00000000       0.00000000       0.00000000       0.00000000       0.61576182
Al       0.00000000       0.00000000       4.17757576       0.00000000       0.00000000      -0.61576182
2
Properties=species:S:1:pos:R:3:forces:R:3 energy=-0.8619498218213206 pbc="F F F"
Al       0.00000000       0.00000000       0.00000000       0.00000000       0.00000000       0.57823849
Al       0.00000000       0.00000000       4.23636364       0.00000000       0.00000000      -0.57823849
2
Properties=species:S:1:pos:R:3:forces:R:3 energy=-0.8290529615999586 pbc="F F F"
Al       0.00000000       0.00000000       0.00000000       0.00000000       0.00000000       0.54100668
Al       0.00000000       0.00000000       4.29515152       0.00000000       0.00000000      -0.54100668
2
Properties=species:S:1:pos:R:3:forces:R:3 energy=-0.7983246438024532 pbc="F F F"
Al       0.00000000       0.00000000       0.00000000       0.00000000       0.00000000       0.50461078
Al       0.00000000       0.00000000       4.35393939       0.00000000       0.00000000      -0.50461078
2
Properties=species:S:1:pos:R:3:forces:R:3 energy=-0.7696970549032318 pbc="F F F"
Al       0.00000000       0.00000000       0.00000000       0.00000000       0.00000000       0.46958643
Al       0.00000000       0.00000000       4.41272727       0.00000000       0.00000000      -0.46958643
2
Properties=species:S:1:pos:R:3:forces:R:3 energy=-0.7430760424593755 pbc="F F F"
Al       0.00000000       0.00000000       0.00000000       0.00000000       0.00000000       0.43640751
Al       0.00000000       0.00000000       4.47151515       0.00000000       0.00000000      -0.43640751
2
Properties=species:S:1:pos:R:3:forces:R:3 energy=-0.7183429535990824 pbc="F F F"
Al       0.00000000       0.00000000       0.00000000       0.00000000       0.00000000       0.40539727
Al       0.00000000       0.00000000       4.53030303       0.00000000       0.00000000      -0.40539727
2
Properties=species:S:1:pos:R:3:forces:R:3 energy=-0.6953667785300913 pbc="F F F"
Al       0.00000000       0.00000000       0.00000000       0.00000000       0.00000000       0.37665930
Al       0.00000000       0.00000000       4.58909091       0.00000000       0.00000000      -0.37665930
2
Properties=species:S:1:pos:R:3:forces:R:3 energy=-0.67401562830957 pbc="F F F"
Al       0.00000000       0.00000000       0.00000000       0.00000000       0.00000000       0.35005602
Al       0.00000000       0.00000000       4.64787879       0.00000000       0.00000000      -0.35005602
2
Properties=species:S:1:pos:R:3:forces:R:3 energy=-0.654173613293971 pbc="F F F"
Al       0.00000000       0.00000000       0.00000000       0.00000000       0.00000000       0.32521480
Al       0.00000000       0.00000000       4.70666667       0.00000000       0.00000000      -0.32521480
2
Properties=species:S:1:pos:R:3:forces:R:3 energy=-0.6357535084180994 pbc="F F F"
Al       0.00000000       0.00000000       0.00000000       0.00000000       0.00000000       0.30163217
Al       0.00000000       0.00000000       4.76545455       0.00000000       0.00000000      -0.30163217
2
Properties=species:S:1:pos:R:3:forces:R:3 energy=-0.6186931725806527 pbc="F F F"
Al       0.00000000       0.00000000       0.00000000       0.00000000       0.00000000       0.27883756
Al       0.00000000       0.00000000       4.82424242       0.00000000       0.00000000      -0.27883756
2
Properties=species:S:1:pos:R:3:forces:R:3 energy=-0.602958644917926 pbc="F F F"
Al       0.00000000       0.00000000       0.00000000       0.00000000       0.00000000       0.25661483
Al       0.00000000       0.00000000       4.88303030       0.00000000       0.00000000      -0.25661483
2
Properties=species:S:1:pos:R:3:forces:R:3 energy=-0.5885069604249631 pbc="F F F"
Al       0.00000000       0.00000000       0.00000000       0.00000000       0.00000000       0.23518683
Al       0.00000000       0.00000000       4.94181818       0.00000000       0.00000000      -0.23518683
2
Properties=species:S:1:pos:R:3:forces:R:3 energy=-0.5752752819033395 pbc="F F F"
Al       0.00000000       0.00000000       0.00000000       0.00000000       0.00000000       0.21532050
Al       0.00000000       0.00000000       5.00060606       0.00000000       0.00000000      -0.21532050
2
Properties=species:S:1:pos:R:3:forces:R:3 energy=-0.5631364750779129 pbc="F F F"
Al       0.00000000       0.00000000       0.00000000       0.00000000       0.00000000       0.19818324
Al       0.00000000       0.00000000       5.05939394       0.00000000       0.00000000      -0.19818324
2
Properties=species:S:1:pos:R:3:forces:R:3 energy=-0.5518963925416989 pbc="F F F"
Al       0.00000000       0.00000000       0.00000000       0.00000000       0.00000000       0.18496382
Al       0.00000000       0.00000000       5.11818182       0.00000000       0.00000000      -0.18496382
2
Properties=species:S:1:pos:R:3:forces:R:3 energy=-0.5413012173825095 pbc="F F F"
Al       0.00000000       0.00000000       0.00000000       0.00000000       0.00000000       0.17622383
Al       0.00000000       0.00000000       5.17696970       0.00000000       0.00000000      -0.17622383
2
Properties=species:S:1:pos:R:3:forces:R:3 energy=-0.5311040437390526 pbc="F F F"
Al       0.00000000       0.00000000       0.00000000       0.00000000       0.00000000       0.17114393
Al       0.00000000       0.00000000       5.23575758       0.00000000       0.00000000      -0.17114393
2
Properties=species:S:1:pos:R:3:forces:R:3 energy=-0.5211608951319335 pbc="F F F"
Al       0.00000000       0.00000000       0.00000000       0.00000000       0.00000000       0.16693373
Al       0.00000000       0.00000000       5.29454545       0.00000000       0.00000000      -0.16693373
2
Properties=species:S:1:pos:R:3:forces:R:3 energy=-0.511539270441475 pbc="F F F"
Al       0.00000000       0.00000000       0.00000000       0.00000000       0.00000000       0.15960015
Al       0.00000000       0.00000000       5.35333333       0.00000000       0.00000000      -0.15960015
2
Properties=species:S:1:pos:R:3:forces:R:3 energy=-0.5024767456060871 pbc="F F F"
Al       0.00000000       0.00000000       0.00000000       0.00000000       0.00000000       0.14853382
Al       0.00000000       0.00000000       5.41212121       0.00000000       0.00000000      -0.14853382
2
Properties=species:S:1:pos:R:3:forces:R:3 energy=-0.4939892569405249 pbc="F F F"
Al       0.00000000       0.00000000       0.00000000       0.00000000       0.00000000       0.14177936
Al       0.00000000       0.00000000       5.47090909       0.00000000       0.00000000      -0.14177936
2
Properties=species:S:1:pos:R:3:forces:R:3 energy=-0.4856402484709037 pbc="F F F"
Al       0.00000000       0.00000000       0.00000000       0.00000000       0.00000000       0.14246912
Al       0.00000000       0.00000000       5.52969697       0.00000000       0.00000000      -0.14246912
2
Properties=species:S:1:pos:R:3:forces:R:3 energy=-0.47740879516289586 pbc="F F F"
Al       0.00000000       0.00000000       0.00000000       0.00000000       0.00000000       0.13512883
Al       0.00000000       0.00000000       5.58848485       0.00000000       0.00000000      -0.13512883
2
Properties=species:S:1:pos:R:3:forces:R:3 energy=-0.46998818792998814 pbc="F F F"
Al       0.00000000       0.00000000       0.00000000       0.00000000       0.00000000       0.11669913
Al       0.00000000       0.00000000       5.64727273       0.00000000       0.00000000      -0.11669913
2
Properties=species:S:1:pos:R:3:forces:R:3 energy=-0.463575465668337 pbc="F F F"
Al       0.00000000       0.00000000       0.00000000       0.00000000       0.00000000       0.10405824
Al       0.00000000       0.00000000       5.70606061       0.00000000       0.00000000      -0.10405824
2
Properties=species:S:1:pos:R:3:forces:R:3 energy=-0.45736107532848935 pbc="F F F"
Al       0.00000000       0.00000000       0.00000000       0.00000000       0.00000000       0.10905155
Al       0.00000000       0.00000000       5.76484848       0.00000000       0.00000000      -0.10905155
2
Properties=species:S:1:pos:R:3:forces:R:3 energy=-0.4509187135153541 pbc="F F F"
Al       0.00000000       0.00000000       0.00000000       0.00000000       0.00000000       0.10530805
Al       0.00000000       0.00000000       5.82363636       0.00000000       0.00000000      -0.10530805
2
Properties=species:S:1:pos:R:3:forces:R:3 energy=-0.4456762609993476 pbc="F F F"
Al       0.00000000       0.00000000       0.00000000       0.00000000       0.00000000       0.06936893
Al       0.00000000       0.00000000       5.88242424       0.00000000       0.00000000      -0.06936893
2
Properties=species:S:1:pos:R:3:forces:R:3 energy=-0.44289291057055963 pbc="F F F"
Al       0.00000000       0.00000000       0.00000000       0.00000000       0.00000000       0.02700358
Al       0.00000000       0.00000000       5.94121212       0.00000000       0.00000000      -0.02700358
2
Properties=species:S:1:pos:R:3:forces:R:3 energy=-0.44199816281888715 pbc="F F F"
Al       0.00000000       0.00000000       0.00000000       0.00000000       0.00000000       0.00916749
Al       0.00000000       0.00000000       6.00000000       0.00000000       0.00000000      -0.00916749
