2
Properties=species:S:1:pos:R:3:forces:R:3 energy=9065.134714038972 pbc="F F F"
Ar       0.00000000       0.00000000       0.00000000       0.00000000       0.00000000 -173913.81250000
Ar       0.00000000       0.00000000       0.10000000       0.00000000       0.00000000  173913.81250000
2
Properties=species:S:1:pos:R:3:forces:R:3 energy=3659.153757007721 pbc="F F F"
Ar       0.00000000       0.00000000       0.00000000       0.00000000       0.00000000  -43644.32031250
Ar       0.00000000       0.00000000       0.15959596       0.00000000       0.00000000   43644.32031250
2
Properties=species:S:1:pos:R:3:forces:R:3 energy=2065.022897632721 pbc="F F F"
Ar       0.00000000       0.00000000       0.00000000       0.00000000       0.00000000  -15895.91308594
Ar       0.00000000       0.00000000       0.21919192       0.00000000       0.00000000   15895.91308594
2
Properties=species:S:1:pos:R:3:forces:R:3 energy=1388.545358571805 pbc="F F F"
Ar       0.00000000       0.00000000       0.00000000       0.00000000       0.00000000   -8442.75585938
Ar       0.00000000       0.00000000       0.27878788       0.00000000       0.00000000    8442.75585938
2
Properties=species:S:1:pos:R:3:forces:R:3 energy=935.6697482265782 pbc="F F F"
Ar       0.00000000       0.00000000       0.00000000       0.00000000       0.00000000   -7448.13964844
Ar       0.00000000       0.00000000       0.33838384       0.00000000       0.00000000    7448.13964844
2
Properties=species:S:1:pos:R:3:forces:R:3 energy=434.6511020005991 pbc="F F F"
Ar       0.00000000       0.00000000       0.00000000       0.00000000       0.00000000   -9848.05664062
Ar       0.00000000       0.00000000       0.39797980       0.00000000       0.00000000    9848.05664062
2
Properties=species:S:1:pos:R:3:forces:R:3 energy=-291.51662257868156 pbc="F F F"
Ar       0.00000000       0.00000000       0.00000000       0.00000000       0.00000000  -14930.93261719
Ar       0.00000000       0.00000000       0.45757576       0.00000000       0.00000000   14930.93261719
2
Properties=species:S:1:pos:R:3:forces:R:3 energy=-1401.433156945489 pbc="F F F"
Ar       0.00000000       0.00000000       0.00000000       0.00000000       0.00000000  -22429.93554688
Ar       0.00000000       0.00000000       0.51717172       0.00000000       0.00000000   22429.93554688
2
Properties=species:S:1:pos:R:3:forces:R:3 energy=-2927.8955591847007 pbc="F F F"
Ar       0.00000000       0.00000000       0.00000000       0.00000000       0.00000000  -27909.80859375
Ar       0.00000000       0.00000000       0.57676768       0.00000000       0.00000000   27909.80859375
2
Properties=species:S:1:pos:R:3:forces:R:3 energy=-4004.4758812760956 pbc="F F F"
Ar       0.00000000       0.00000000       0.00000000       0.00000000       0.00000000   -3508.00170898
Ar       0.00000000       0.00000000       0.63636364       0.00000000       0.00000000    3508.00170898
2
Properties=species:S:1:pos:R:3:forces:R:3 energy=-4247.450246230118 pbc="F F F"
Ar       0.00000000       0.00000000       0.00000000       0.00000000       0.00000000    -527.62963867
Ar       0.00000000       0.00000000       0.69595960       0.00000000       0.00000000     527.62963867
2
Properties=species:S:1:pos:R:3:forces:R:3 energy=-3908.5305680665033 pbc="F F F"
Ar       0.00000000       0.00000000       0.00000000       0.00000000       0.00000000   10489.41796875
Ar       0.00000000       0.00000000       0.75555556       0.00000000       0.00000000  -10489.41796875
2
Properties=species:S:1:pos:R:3:forces:R:3 energy=-3096.5857432078533 pbc="F F F"
Ar       0.00000000       0.00000000       0.00000000       0.00000000       0.00000000   14833.01757812
Ar       0.00000000       0.00000000       0.81515152       0.00000000       0.00000000  -14833.01757812
2
Properties=species:S:1:pos:R:3:forces:R:3 energy=-2175.7761719640134 pbc="F F F"
Ar       0.00000000       0.00000000       0.00000000       0.00000000       0.00000000   15243.20507812
Ar       0.00000000       0.00000000       0.87474747       0.00000000       0.00000000  -15243.20507812
2
Properties=species:S:1:pos:R:3:forces:R:3 energy=-1336.0364245587853 pbc="F F F"
Ar       0.00000000       0.00000000       0.00000000       0.00000000       0.00000000   12667.18359375
Ar       0.00000000       0.00000000       0.93434343       0.00000000       0.00000000  -12667.18359375
2
Properties=species:S:1:pos:R:3:forces:R:3 energy=-691.3245086811231 pbc="F F F"
Ar       0.00000000       0.00000000       0.00000000       0.00000000       0.00000000    8769.33691406
Ar       0.00000000       0.00000000       0.99393939       0.00000000       0.00000000   -8769.33691406
2
Properties=species:S:1:pos:R:3:forces:R:3 energy=-284.09077208886595 pbc="F F F"
Ar       0.00000000       0.00000000       0.00000000       0.00000000       0.00000000    4956.49414062
Ar       0.00000000       0.00000000       1.05353535       0.00000000       0.00000000   -4956.49414062
2
Properties=species:S:1:pos:R:3:forces:R:3 energy=-89.20020483582282 pbc="F F F"
Ar       0.00000000       0.00000000       0.00000000       0.00000000       0.00000000    1995.97766113
Ar       0.00000000       0.00000000       1.11313131       0.00000000       0.00000000   -1995.97766113
2
Properties=species:S:1:pos:R:3:forces:R:3 energy=-13.631263210109847 pbc="F F F"
Ar       0.00000000       0.00000000       0.00000000       0.00000000       0.00000000     709.99230957
Ar       0.00000000       0.00000000       1.17272727       0.00000000       0.00000000    -709.99230957
2
Properties=species:S:1:pos:R:3:forces:R:3 energy=9.180722647600737 pbc="F F F"
Ar       0.00000000       0.00000000       0.00000000       0.00000000       0.00000000     121.26608276
Ar       0.00000000       0.00000000       1.23232323       0.00000000       0.00000000    -121.26608276
2
Properties=species:S:1:pos:R:3:forces:R:3 energy=10.736320471302472 pbc="F F F"
Ar       0.00000000       0.00000000       0.00000000       0.00000000       0.00000000      91.32659149
Ar       0.00000000       0.00000000       1.29191919       0.00000000       0.00000000     -91.32659149
2
Properties=species:S:1:pos:R:3:forces:R:3 energy=24.095162906034627 pbc="F F F"
Ar       0.00000000       0.00000000       0.00000000       0.00000000       0.00000000     130.80867004
Ar       0.00000000       0.00000000       1.35151515       0.00000000       0.00000000    -130.80867004
2
Properties=species:S:1:pos:R:3:forces:R:3 energy=25.66762880705852 pbc="F F F"
Ar       0.00000000       0.00000000       0.00000000       0.00000000       0.00000000     -44.39142990
Ar       0.00000000       0.00000000       1.41111111       0.00000000       0.00000000      44.39142990
2
Properties=species:S:1:pos:R:3:forces:R:3 energy=21.47249649050186 pbc="F F F"
Ar       0.00000000       0.00000000       0.00000000       0.00000000       0.00000000     -83.41798401
Ar       0.00000000       0.00000000       1.47070707       0.00000000       0.00000000      83.41798401
2
Properties=species:S:1:pos:R:3:forces:R:3 energy=16.598786251278113 pbc="F F F"
Ar       0.00000000       0.00000000       0.00000000       0.00000000       0.00000000     -76.57875824
Ar       0.00000000       0.00000000       1.53030303       0.00000000       0.00000000      76.57875824
2
Properties=species:S:1:pos:R:3:forces:R:3 energy=12.535212917332688 pbc="F F F"
Ar       0.00000000       0.00000000       0.00000000       0.00000000       0.00000000     -59.44120407
Ar       0.00000000       0.00000000       1.58989899       0.00000000       0.00000000      59.44120407
2
Properties=species:S:1:pos:R:3:forces:R:3 energy=9.485853930379472 pbc="F F F"
Ar       0.00000000       0.00000000       0.00000000       0.00000000       0.00000000     -43.45393372
Ar       0.00000000       0.00000000       1.64949495       0.00000000       0.00000000      43.45393372
2
Properties=species:S:1:pos:R:3:forces:R:3 energy=7.278090717395296 pbc="F F F"
Ar       0.00000000       0.00000000       0.00000000       0.00000000       0.00000000     -31.29660606
Ar       0.00000000       0.00000000       1.70909091       0.00000000       0.00000000      31.29660606
2
Properties=species:S:1:pos:R:3:forces:R:3 energy=5.684070838672705 pbc="F F F"
Ar       0.00000000       0.00000000       0.00000000       0.00000000       0.00000000     -22.72156143
Ar       0.00000000       0.00000000       1.76868687       0.00000000       0.00000000      22.72156143
2
Properties=species:S:1:pos:R:3:forces:R:3 energy=4.516981883730511 pbc="F F F"
Ar       0.00000000       0.00000000       0.00000000       0.00000000       0.00000000     -16.81315804
Ar       0.00000000       0.00000000       1.82828283       0.00000000       0.00000000      16.81315804
2
Properties=species:S:1:pos:R:3:forces:R:3 energy=3.6439208547191155 pbc="F F F"
Ar       0.00000000       0.00000000       0.00000000       0.00000000       0.00000000     -12.73321629
Ar       0.00000000       0.00000000       1.88787879       0.00000000       0.00000000      12.73321629
2
Properties=species:S:1:pos:R:3:forces:R:3 energy=2.9751481452163073 pbc="F F F"
Ar       0.00000000       0.00000000       0.00000000       0.00000000       0.00000000      -9.87493038
Ar       0.00000000       0.00000000       1.94747475       0.00000000       0.00000000       9.87493038
2
Properties=species:S:1:pos:R:3:forces:R:3 energy=2.450755664376264 pbc="F F F"
Ar       0.00000000       0.00000000       0.00000000       0.00000000       0.00000000      -7.83425331
Ar       0.00000000       0.00000000       2.00707071       0.00000000       0.00000000       7.83425331
2
Properties=species:S:1:pos:R:3:forces:R:3 energy=2.0304217474152426 pbc="F F F"
Ar       0.00000000       0.00000000       0.00000000       0.00000000       0.00000000      -6.34765005
Ar       0.00000000       0.00000000       2.06666667       0.00000000       0.00000000       6.34765005
2
Properties=species:S:1:pos:R:3:forces:R:3 energy=1.6866579461907099 pbc="F F F"
Ar       0.00000000       0.00000000       0.00000000       0.00000000       0.00000000      -5.24096584
Ar       0.00000000       0.00000000       2.12626263       0.00000000       0.00000000       5.24096584
2
Properties=species:S:1:pos:R:3:forces:R:3 energy=1.400574939399874 pbc="F F F"
Ar       0.00000000       0.00000000       0.00000000       0.00000000       0.00000000      -4.39565134
Ar       0.00000000       0.00000000       2.18585859       0.00000000       0.00000000       4.39565134
2
Properties=species:S:1:pos:R:3:forces:R:3 energy=1.159176009621459 pbc="F F F"
Ar       0.00000000       0.00000000       0.00000000       0.00000000       0.00000000      -3.73003340
Ar       0.00000000       0.00000000       2.24545455       0.00000000       0.00000000       3.73003340
2
Properties=species:S:1:pos:R:3:forces:R:3 energy=0.9535397852275699 pbc="F F F"
Ar       0.00000000       0.00000000       0.00000000       0.00000000       0.00000000      -3.18796158
Ar       0.00000000       0.00000000       2.30505051       0.00000000       0.00000000       3.18796158
2
Properties=species:S:1:pos:R:3:forces:R:3 energy=0.7775045838917449 pbc="F F F"
Ar       0.00000000       0.00000000       0.00000000       0.00000000       0.00000000      -2.73159838
Ar       0.00000000       0.00000000       2.36464646       0.00000000       0.00000000       2.73159838
2
Properties=species:S:1:pos:R:3:forces:R:3 energy=0.6267408055091825 pbc="F F F"
Ar       0.00000000       0.00000000       0.00000000       0.00000000       0.00000000      -2.33669496
Ar       0.00000000       0.00000000       2.42424242       0.00000000       0.00000000       2.33669496
2
Properties=species:S:1:pos:R:3:forces:R:3 energy=0.4980582444450524 pbc="F F F"
Ar       0.00000000       0.00000000       0.00000000       0.00000000       0.00000000      -1.98890531
Ar       0.00000000       0.00000000       2.48383838       0.00000000       0.00000000       1.98890531
2
Properties=species:S:1:pos:R:3:forces:R:3 energy=0.3888985195542781 pbc="F F F"
Ar       0.00000000       0.00000000       0.00000000       0.00000000       0.00000000      -1.68058956
Ar       0.00000000       0.00000000       2.54343434       0.00000000       0.00000000       1.68058956
2
Properties=species:S:1:pos:R:3:forces:R:3 energy=0.2970338443941547 pbc="F F F"
Ar       0.00000000       0.00000000       0.00000000       0.00000000       0.00000000      -1.40814495
Ar       0.00000000       0.00000000       2.60303030       0.00000000       0.00000000       1.40814495
2
Properties=species:S:1:pos:R:3:forces:R:3 energy=0.22038162099510417 pbc="F F F"
Ar       0.00000000       0.00000000       0.00000000       0.00000000       0.00000000      -1.16982698
Ar       0.00000000       0.00000000       2.66262626       0.00000000       0.00000000       1.16982698
2
Properties=species:S:1:pos:R:3:forces:R:3 energy=0.15694881576382338 pbc="F F F"
Ar       0.00000000       0.00000000       0.00000000       0.00000000       0.00000000      -0.96425837
Ar       0.00000000       0.00000000       2.72222222       0.00000000       0.00000000       0.96425837
2
Properties=species:S:1:pos:R:3:forces:R:3 energy=0.10483491314300822 pbc="F F F"
Ar       0.00000000       0.00000000       0.00000000       0.00000000       0.00000000      -0.78961229
Ar       0.00000000       0.00000000       2.78181818       0.00000000       0.00000000       0.78961229
2
Properties=species:S:1:pos:R:3:forces:R:3 energy=0.06226918916716745 pbc="F F F"
Ar       0.00000000       0.00000000       0.00000000       0.00000000       0.00000000      -0.64333606
Ar       0.00000000       0.00000000       2.84141414       0.00000000       0.00000000       0.64333606
2
Properties=species:S:1:pos:R:3:forces:R:3 energy=0.027653172852404997 pbc="F F F"
Ar       0.00000000       0.00000000       0.00000000       0.00000000       0.00000000      -0.52227533
Ar       0.00000000       0.00000000       2.90101010       0.00000000       0.00000000       0.52227533
2
Properties=species:S:1:pos:R:3:forces:R:3 energy=-0.00041356112349111296 pbc="F F F"
Ar       0.00000000       0.00000000       0.00000000       0.00000000       0.00000000      -0.42294961
Ar       0.00000000       0.00000000       2.96060606       0.00000000       0.00000000       0.42294961
2
Properties=species:S:1:pos:R:3:forces:R:3 energy=-0.023121387420835773 pbc="F F F"
Ar       0.00000000       0.00000000       0.00000000       0.00000000       0.00000000      -0.34187901
Ar       0.00000000       0.00000000       3.02020202       0.00000000       0.00000000       0.34187901
2
Properties=species:S:1:pos:R:3:forces:R:3 energy=-0.041460579553979054 pbc="F F F"
Ar       0.00000000       0.00000000       0.00000000       0.00000000       0.00000000      -0.27582660
Ar       0.00000000       0.00000000       3.07979798       0.00000000       0.00000000       0.27582660
2
Properties=species:S:1:pos:R:3:forces:R:3 energy=-0.056239498076974294 pbc="F F F"
Ar       0.00000000       0.00000000       0.00000000       0.00000000       0.00000000      -0.22196077
Ar       0.00000000       0.00000000       3.13939394       0.00000000       0.00000000       0.22196077
2
Properties=species:S:1:pos:R:3:forces:R:3 energy=-0.06811136955415444 pbc="F F F"
Ar       0.00000000       0.00000000       0.00000000       0.00000000       0.00000000      -0.17791291
Ar       0.00000000       0.00000000       3.19898990       0.00000000       0.00000000       0.17791291
2
Properties=species:S:1:pos:R:3:forces:R:3 energy=-0.07760215991660009 pbc="F F F"
Ar       0.00000000       0.00000000       0.00000000       0.00000000       0.00000000      -0.14177477
Ar       0.00000000       0.00000000       3.25858586       0.00000000       0.00000000       0.14177477
2
Properties=species:S:1:pos:R:3:forces:R:3 energy=-0.0851369135564727 pbc="F F F"
Ar       0.00000000       0.00000000       0.00000000       0.00000000       0.00000000      -0.11204813
Ar       0.00000000       0.00000000       3.31818182       0.00000000       0.00000000       0.11204813
2
Properties=species:S:1:pos:R:3:forces:R:3 energy=-0.09106174060980968 pbc="F F F"
Ar       0.00000000       0.00000000       0.00000000       0.00000000       0.00000000      -0.08758096
Ar       0.00000000       0.00000000       3.37777778       0.00000000       0.00000000       0.08758096
2
Properties=species:S:1:pos:R:3:forces:R:3 energy=-0.0956625850310336 pbc="F F F"
Ar       0.00000000       0.00000000       0.00000000       0.00000000       0.00000000      -0.06748934
Ar       0.00000000       0.00000000       3.43737374       0.00000000       0.00000000       0.06748934
2
Properties=species:S:1:pos:R:3:forces:R:3 energy=-0.09917904275658969 pbc="F F F"
Ar       0.00000000       0.00000000       0.00000000       0.00000000       0.00000000      -0.05108533
Ar       0.00000000       0.00000000       3.49696970       0.00000000       0.00000000       0.05108533
2
Properties=species:S:1:pos:R:3:forces:R:3 energy=-0.10181378358356429 pbc="F F F"
Ar       0.00000000       0.00000000       0.00000000       0.00000000       0.00000000      -0.03781389
Ar       0.00000000       0.00000000       3.55656566       0.00000000       0.00000000       0.03781389
2
Properties=species:S:1:pos:R:3:forces:R:3 energy=-0.10373896433665794 pbc="F F F"
Ar       0.00000000       0.00000000       0.00000000       0.00000000       0.00000000      -0.02720154
Ar       0.00000000       0.00000000       3.61616162       0.00000000       0.00000000       0.02720154
2
Properties=species:S:1:pos:R:3:forces:R:3 energy=-0.10510036784717863 pbc="F F F"
Ar       0.00000000       0.00000000       0.00000000       0.00000000       0.00000000      -0.01882469
Ar       0.00000000       0.00000000       3.67575758       0.00000000       0.00000000       0.01882469
2
Properties=species:S:1:pos:R:3:forces:R:3 energy=-0.10601935952688885 pbc="F F F"
Ar       0.00000000       0.00000000       0.00000000       0.00000000       0.00000000      -0.01229324
Ar       0.00000000       0.00000000       3.73535354       0.00000000       0.00000000       0.01229324
2
Properties=species:S:1:pos:R:3:forces:R:3 energy=-0.1065951746122403 pbc="F F F"
Ar       0.00000000       0.00000000       0.00000000       0.00000000       0.00000000      -0.00725020
Ar       0.00000000       0.00000000       3.79494949       0.00000000       0.00000000       0.00725020
2
Properties=species:S:1:pos:R:3:forces:R:3 energy=-0.10690672760250824 pbc="F F F"
Ar       0.00000000       0.00000000       0.00000000       0.00000000       0.00000000      -0.00337689
Ar       0.00000000       0.00000000       3.85454545       0.00000000       0.00000000       0.00337689
2
Properties=species:S:1:pos:R:3:forces:R:3 energy=-0.10701546287231735 pbc="F F F"
Ar       0.00000000       0.00000000       0.00000000       0.00000000       0.00000000      -0.00040314
Ar       0.00000000       0.00000000       3.91414141       0.00000000       0.00000000       0.00040314
2
Properties=species:S:1:pos:R:3:forces:R:3 energy=-0.10696833396593103 pbc="F F F"
Ar       0.00000000       0.00000000       0.00000000       0.00000000       0.00000000       0.00188684
Ar       0.00000000       0.00000000       3.97373737       0.00000000       0.00000000      -0.00188684
2
Properties=species:S:1:pos:R:3:forces:R:3 energy=-0.10680095789169124 pbc="F F F"
Ar       0.00000000       0.00000000       0.00000000       0.00000000       0.00000000       0.00365343
Ar       0.00000000       0.00000000       4.03333333       0.00000000       0.00000000      -0.00365343
2
Properties=species:S:1:pos:R:3:forces:R:3 energy=-0.10654105696727349 pbc="F F F"
Ar       0.00000000       0.00000000       0.00000000       0.00000000       0.00000000       0.00500755
Ar       0.00000000       0.00000000       4.09292929       0.00000000       0.00000000      -0.00500755
2
Properties=species:S:1:pos:R:3:forces:R:3 energy=-0.1062108440894215 pbc="F F F"
Ar       0.00000000       0.00000000       0.00000000       0.00000000       0.00000000       0.00602156
Ar       0.00000000       0.00000000       4.15252525       0.00000000       0.00000000      -0.00602156
2
Properties=species:S:1:pos:R:3:forces:R:3 energy=-0.10582915245406875 pbc="F F F"
Ar       0.00000000       0.00000000       0.00000000       0.00000000       0.00000000       0.00674125
Ar       0.00000000       0.00000000       4.21212121       0.00000000       0.00000000      -0.00674125
2
Properties=species:S:1:pos:R:3:forces:R:3 energy=-0.10541257301531357 pbc="F F F"
Ar       0.00000000       0.00000000       0.00000000       0.00000000       0.00000000       0.00719762
Ar       0.00000000       0.00000000       4.27171717       0.00000000       0.00000000      -0.00719762
2
Properties=species:S:1:pos:R:3:forces:R:3 energy=-0.10497600886122285 pbc="F F F"
Ar       0.00000000       0.00000000       0.00000000       0.00000000       0.00000000       0.00741552
Ar       0.00000000       0.00000000       4.33131313       0.00000000       0.00000000      -0.00741552
2
Properties=species:S:1:pos:R:3:forces:R:3 energy=-0.1045330163256358 pbc="F F F"
Ar       0.00000000       0.00000000       0.00000000       0.00000000       0.00000000       0.00741746
Ar       0.00000000       0.00000000       4.39090909       0.00000000       0.00000000      -0.00741746
2
Properties=species:S:1:pos:R:3:forces:R:3 energy=-0.10409572861747028 pbc="F F F"
Ar       0.00000000       0.00000000       0.00000000       0.00000000       0.00000000       0.00722735
Ar       0.00000000       0.00000000       4.45050505       0.00000000       0.00000000      -0.00722735
2
Properties=species:S:1:pos:R:3:forces:R:3 energy=-0.10367480298970443 pbc="F F F"
Ar       0.00000000       0.00000000       0.00000000       0.00000000       0.00000000       0.00687379
Ar       0.00000000       0.00000000       4.51010101       0.00000000       0.00000000      -0.00687379
2
Properties=species:S:1:pos:R:3:forces:R:3 energy=-0.10327893152291784 pbc="F F F"
Ar       0.00000000       0.00000000       0.00000000       0.00000000       0.00000000       0.00639380
Ar       0.00000000       0.00000000       4.56969697       0.00000000       0.00000000      -0.00639380
2
Properties=species:S:1:pos:R:3:forces:R:3 energy=-0.10291423670132521 pbc="F F F"
Ar       0.00000000       0.00000000       0.00000000       0.00000000       0.00000000       0.00583742
Ar       0.00000000       0.00000000       4.62929293       0.00000000       0.00000000      -0.00583742
2
Properties=species:S:1:pos:R:3:forces:R:3 energy=-0.10258339112932961 pbc="F F F"
Ar       0.00000000       0.00000000       0.00000000       0.00000000       0.00000000       0.00526956
Ar       0.00000000       0.00000000       4.68888889       0.00000000       0.00000000      -0.00526956
2
Properties=species:S:1:pos:R:3:forces:R:3 energy=-0.10228486934764484 pbc="F F F"
Ar       0.00000000       0.00000000       0.00000000       0.00000000       0.00000000       0.00476594
Ar       0.00000000       0.00000000       4.74848485       0.00000000       0.00000000      -0.00476594
2
Properties=species:S:1:pos:R:3:forces:R:3 energy=-0.10201257609622119 pbc="F F F"
Ar       0.00000000       0.00000000       0.00000000       0.00000000       0.00000000       0.00439990
Ar       0.00000000       0.00000000       4.80808081       0.00000000       0.00000000      -0.00439990
2
Properties=species:S:1:pos:R:3:forces:R:3 energy=-0.10175664040055138 pbc="F F F"
Ar       0.00000000       0.00000000       0.00000000       0.00000000       0.00000000       0.00422351
Ar       0.00000000       0.00000000       4.86767677       0.00000000       0.00000000      -0.00422351
2
Properties=species:S:1:pos:R:3:forces:R:3 energy=-0.10150524722656412 pbc="F F F"
Ar       0.00000000       0.00000000       0.00000000       0.00000000       0.00000000       0.00424251
Ar       0.00000000       0.00000000       4.92727273       0.00000000       0.00000000      -0.00424251
2
Properties=species:S:1:pos:R:3:forces:R:3 energy=-0.1012482252426659 pbc="F F F"
Ar       0.00000000       0.00000000       0.00000000       0.00000000       0.00000000       0.00439718
Ar       0.00000000       0.00000000       4.98686869       0.00000000       0.00000000      -0.00439718
2
Properties=species:S:1:pos:R:3:forces:R:3 energy=-0.10098097144182074 pbc="F F F"
Ar       0.00000000       0.00000000       0.00000000       0.00000000       0.00000000       0.00455981
Ar       0.00000000       0.00000000       5.04646465       0.00000000       0.00000000      -0.00455981
2
Properties=species:S:1:pos:R:3:forces:R:3 energy=-0.10070787266694717 pbc="F F F"
Ar       0.00000000       0.00000000       0.00000000       0.00000000       0.00000000       0.00456572
Ar       0.00000000       0.00000000       5.10606061       0.00000000       0.00000000      -0.00456572
2
Properties=species:S:1:pos:R:3:forces:R:3 energy=-0.10044250263982983 pbc="F F F"
Ar       0.00000000       0.00000000       0.00000000       0.00000000       0.00000000       0.00428717
Ar       0.00000000       0.00000000       5.16565657       0.00000000       0.00000000      -0.00428717
2
Properties=species:S:1:pos:R:3:forces:R:3 energy=-0.10020227276723172 pbc="F F F"
Ar       0.00000000       0.00000000       0.00000000       0.00000000       0.00000000       0.00374493
Ar       0.00000000       0.00000000       5.22525253       0.00000000       0.00000000      -0.00374493
2
Properties=species:S:1:pos:R:3:forces:R:3 energy=-0.09999636180434936 pbc="F F F"
Ar       0.00000000       0.00000000       0.00000000       0.00000000       0.00000000       0.00319892
Ar       0.00000000       0.00000000       5.28484848       0.00000000       0.00000000      -0.00319892
2
Properties=species:S:1:pos:R:3:forces:R:3 energy=-0.09981244683974448 pbc="F F F"
Ar       0.00000000       0.00000000       0.00000000       0.00000000       0.00000000       0.00307349
Ar       0.00000000       0.00000000       5.34444444       0.00000000       0.00000000      -0.00307349
2
Properties=species:S:1:pos:R:3:forces:R:3 energy=-0.09961935364915066 pbc="F F F"
Ar       0.00000000       0.00000000       0.00000000       0.00000000       0.00000000       0.00344127
Ar       0.00000000       0.00000000       5.40404040       0.00000000       0.00000000      -0.00344127
2
Properties=species:S:1:pos:R:3:forces:R:3 energy=-0.09941235372464412 pbc="F F F"
Ar       0.00000000       0.00000000       0.00000000       0.00000000       0.00000000       0.00329229
Ar       0.00000000       0.00000000       5.46363636       0.00000000       0.00000000      -0.00329229
2
Properties=species:S:1:pos:R:3:forces:R:3 energy=-0.09925484581833363 pbc="F F F"
Ar       0.00000000       0.00000000       0.00000000       0.00000000       0.00000000       0.00186941
Ar       0.00000000       0.00000000       5.52323232       0.00000000       0.00000000      -0.00186941
2
Properties=species:S:1:pos:R:3:forces:R:3 energy=-0.09917837679931932 pbc="F F F"
Ar       0.00000000       0.00000000       0.00000000       0.00000000       0.00000000       0.00095425
Ar       0.00000000       0.00000000       5.58282828       0.00000000       0.00000000      -0.00095425
2
Properties=species:S:1:pos:R:3:forces:R:3 energy=-0.09911294894878639 pbc="F F F"
Ar       0.00000000       0.00000000       0.00000000       0.00000000       0.00000000       0.00135837
Ar       0.00000000       0.00000000       5.64242424       0.00000000       0.00000000      -0.00135837
2
Properties=species:S:1:pos:R:3:forces:R:3 energy=-0.09902635037091201 pbc="F F F"
Ar       0.00000000       0.00000000       0.00000000       0.00000000       0.00000000       0.00123765
Ar       0.00000000       0.00000000       5.70202020       0.00000000       0.00000000      -0.00123765
2
Properties=species:S:1:pos:R:3:forces:R:3 energy=-0.09901912994559832 pbc="F F F"
Ar       0.00000000       0.00000000       0.00000000       0.00000000       0.00000000      -0.00139901
Ar       0.00000000       0.00000000       5.76161616       0.00000000       0.00000000       0.00139901
2
Properties=species:S:1:pos:R:3:forces:R:3 energy=-0.09919472905592926 pbc="F F F"
Ar       0.00000000       0.00000000       0.00000000       0.00000000       0.00000000      -0.00403312
Ar       0.00000000       0.00000000       5.82121212       0.00000000       0.00000000       0.00403312
2
Properties=species:S:1:pos:R:3:forces:R:3 energy=-0.09941979113766469 pbc="F F F"
Ar       0.00000000       0.00000000       0.00000000       0.00000000       0.00000000      -0.00296383
Ar       0.00000000       0.00000000       5.88080808       0.00000000       0.00000000       0.00296383
2
Properties=species:S:1:pos:R:3:forces:R:3 energy=-0.09951576251877384 pbc="F F F"
Ar       0.00000000       0.00000000       0.00000000       0.00000000       0.00000000      -0.00023499
Ar       0.00000000       0.00000000       5.94040404       0.00000000       0.00000000       0.00023499
2
Properties=species:S:1:pos:R:3:forces:R:3 energy=-0.09948092021619577 pbc="F F F"
Ar       0.00000000       0.00000000       0.00000000       0.00000000       0.00000000       0.00097438
Ar       0.00000000       0.00000000       6.00000000       0.00000000       0.00000000      -0.00097438
