2
Properties=species:S:1:pos:R:3:forces:R:3 energy=16768.090018988234 pbc="F F F"
Au       0.00000000       0.00000000       0.00000000       0.00000000       0.00000000 -285775.65625000
Au       0.00000000       0.00000000       0.18000000       0.00000000       0.00000000  285775.65625000
2
Properties=species:S:1:pos:R:3:forces:R:3 energy=6814.800956488235 pbc="F F F"
Au       0.00000000       0.00000000       0.00000000       0.00000000       0.00000000  -93723.07031250
Au       0.00000000       0.00000000       0.23878788       0.00000000       0.00000000   93723.07031250
2
Properties=species:S:1:pos:R:3:forces:R:3 energy=3297.503593206985 pbc="F F F"
Au       0.00000000       0.00000000       0.00000000       0.00000000       0.00000000  -36170.11328125
Au       0.00000000       0.00000000       0.29757576       0.00000000       0.00000000   36170.11328125
2
Properties=species:S:1:pos:R:3:forces:R:3 energy=1874.393363721133 pbc="F F F"
Au       0.00000000       0.00000000       0.00000000       0.00000000       0.00000000  -15488.77441406
Au       0.00000000       0.00000000       0.35636364       0.00000000       0.00000000   15488.77441406
2
Properties=species:S:1:pos:R:3:forces:R:3 energy=1242.114433063406 pbc="F F F"
Au       0.00000000       0.00000000       0.00000000       0.00000000       0.00000000   -7213.33496094
Au       0.00000000       0.00000000       0.41515152       0.00000000       0.00000000    7213.33496094
2
Properties=species:S:1:pos:R:3:forces:R:3 energy=936.1274945995149 pbc="F F F"
Au       0.00000000       0.00000000       0.00000000       0.00000000       0.00000000   -3720.14453125
Au       0.00000000       0.00000000       0.47393939       0.00000000       0.00000000    3720.14453125
2
Properties=species:S:1:pos:R:3:forces:R:3 energy=758.5336835897012 pbc="F F F"
Au       0.00000000       0.00000000       0.00000000       0.00000000       0.00000000   -2378.75488281
Au       0.00000000       0.00000000       0.53272727       0.00000000       0.00000000    2378.75488281
2
Properties=species:S:1:pos:R:3:forces:R:3 energy=637.0084150761954 pbc="F F F"
Au       0.00000000       0.00000000       0.00000000       0.00000000       0.00000000   -1899.47912598
Au       0.00000000       0.00000000       0.59151515       0.00000000       0.00000000    1899.47912598
2
Properties=species:S:1:pos:R:3:forces:R:3 energy=524.1049117310866 pbc="F F F"
Au       0.00000000       0.00000000       0.00000000       0.00000000       0.00000000   -1840.81909180
Au       0.00000000       0.00000000       0.65030303       0.00000000       0.00000000    1840.81909180
2
Properties=species:S:1:pos:R:3:forces:R:3 energy=420.49864963809694 pbc="F F F"
Au       0.00000000       0.00000000       0.00000000       0.00000000       0.00000000   -1670.44250488
Au       0.00000000       0.00000000       0.70909091       0.00000000       0.00000000    1670.44250488
2
Properties=species:S:1:pos:R:3:forces:R:3 energy=331.6782762803387 pbc="F F F"
Au       0.00000000       0.00000000       0.00000000       0.00000000       0.00000000   -1351.18017578
Au       0.00000000       0.00000000       0.76787879       0.00000000       0.00000000    1351.18017578
2
Properties=species:S:1:pos:R:3:forces:R:3 energy=258.01168107478014 pbc="F F F"
Au       0.00000000       0.00000000       0.00000000       0.00000000       0.00000000   -1157.18981934
Au       0.00000000       0.00000000       0.82666667       0.00000000       0.00000000    1157.18981934
2
Properties=species:S:1:pos:R:3:forces:R:3 energy=198.24883354185687 pbc="F F F"
Au       0.00000000       0.00000000       0.00000000       0.00000000       0.00000000    -854.39215088
Au       0.00000000       0.00000000       0.88545455       0.00000000       0.00000000     854.39215088
2
Properties=species:S:1:pos:R:3:forces:R:3 energy=156.20192853746593 pbc="F F F"
Au       0.00000000       0.00000000       0.00000000       0.00000000       0.00000000    -599.51489258
Au       0.00000000       0.00000000       0.94424242       0.00000000       0.00000000     599.51489258
2
Properties=species:S:1:pos:R:3:forces:R:3 energy=125.35699669090575 pbc="F F F"
Au       0.00000000       0.00000000       0.00000000       0.00000000       0.00000000    -463.17309570
Au       0.00000000       0.00000000       1.00303030       0.00000000       0.00000000     463.17309570
2
Properties=species:S:1:pos:R:3:forces:R:3 energy=100.85641780726802 pbc="F F F"
Au       0.00000000       0.00000000       0.00000000       0.00000000       0.00000000    -373.76397705
Au       0.00000000       0.00000000       1.06181818       0.00000000       0.00000000     373.76397705
2
Properties=species:S:1:pos:R:3:forces:R:3 energy=81.24679230754516 pbc="F F F"
Au       0.00000000       0.00000000       0.00000000       0.00000000       0.00000000    -294.21441650
Au       0.00000000       0.00000000       1.12060606       0.00000000       0.00000000     294.21441650
2
Properties=species:S:1:pos:R:3:forces:R:3 energy=66.07908461373022 pbc="F F F"
Au       0.00000000       0.00000000       0.00000000       0.00000000       0.00000000    -224.22511292
Au       0.00000000       0.00000000       1.17939394       0.00000000       0.00000000     224.22511292
2
Properties=species:S:1:pos:R:3:forces:R:3 energy=54.54084442142574 pbc="F F F"
Au       0.00000000       0.00000000       0.00000000       0.00000000       0.00000000    -171.31365967
Au       0.00000000       0.00000000       1.23818182       0.00000000       0.00000000     171.31365967
2
Properties=species:S:1:pos:R:3:forces:R:3 energy=45.637553558308404 pbc="F F F"
Au       0.00000000       0.00000000       0.00000000       0.00000000       0.00000000    -133.59469604
Au       0.00000000       0.00000000       1.29696970       0.00000000       0.00000000     133.59469604
2
Properties=species:S:1:pos:R:3:forces:R:3 energy=38.61726284078835 pbc="F F F"
Au       0.00000000       0.00000000       0.00000000       0.00000000       0.00000000    -107.09928131
Au       0.00000000       0.00000000       1.35575758       0.00000000       0.00000000     107.09928131
2
Properties=species:S:1:pos:R:3:forces:R:3 energy=32.838176308860504 pbc="F F F"
Au       0.00000000       0.00000000       0.00000000       0.00000000       0.00000000     -90.97977448
Au       0.00000000       0.00000000       1.41454545       0.00000000       0.00000000      90.97977448
2
Properties=species:S:1:pos:R:3:forces:R:3 energy=27.794627407134815 pbc="F F F"
Au       0.00000000       0.00000000       0.00000000       0.00000000       0.00000000     -81.32226562
Au       0.00000000       0.00000000       1.47333333       0.00000000       0.00000000      81.32226562
2
Properties=species:S:1:pos:R:3:forces:R:3 energy=23.220468727994334 pbc="F F F"
Au       0.00000000       0.00000000       0.00000000       0.00000000       0.00000000     -74.57610321
Au       0.00000000       0.00000000       1.53212121       0.00000000       0.00000000      74.57610321
2
Properties=species:S:1:pos:R:3:forces:R:3 energy=19.01238513345741 pbc="F F F"
Au       0.00000000       0.00000000       0.00000000       0.00000000       0.00000000     -68.56130981
Au       0.00000000       0.00000000       1.59090909       0.00000000       0.00000000      68.56130981
2
Properties=species:S:1:pos:R:3:forces:R:3 energy=15.172449223910656 pbc="F F F"
Au       0.00000000       0.00000000       0.00000000       0.00000000       0.00000000     -61.91999054
Au       0.00000000       0.00000000       1.64969697       0.00000000       0.00000000      61.91999054
2
Properties=species:S:1:pos:R:3:forces:R:3 energy=11.749254837254451 pbc="F F F"
Au       0.00000000       0.00000000       0.00000000       0.00000000       0.00000000     -54.42555237
Au       0.00000000       0.00000000       1.70848485       0.00000000       0.00000000      54.42555237
2
Properties=species:S:1:pos:R:3:forces:R:3 energy=8.78123536522218 pbc="F F F"
Au       0.00000000       0.00000000       0.00000000       0.00000000       0.00000000     -46.52766037
Au       0.00000000       0.00000000       1.76727273       0.00000000       0.00000000      46.52766037
2
Properties=species:S:1:pos:R:3:forces:R:3 energy=6.276150755860121 pbc="F F F"
Au       0.00000000       0.00000000       0.00000000       0.00000000       0.00000000     -38.75818634
Au       0.00000000       0.00000000       1.82606061       0.00000000       0.00000000      38.75818634
2
Properties=species:S:1:pos:R:3:forces:R:3 energy=4.213088783241303 pbc="F F F"
Au       0.00000000       0.00000000       0.00000000       0.00000000       0.00000000     -31.55011368
Au       0.00000000       0.00000000       1.88484848       0.00000000       0.00000000      31.55011368
2
Properties=species:S:1:pos:R:3:forces:R:3 energy=2.550320001811704 pbc="F F F"
Au       0.00000000       0.00000000       0.00000000       0.00000000       0.00000000     -25.16722107
Au       0.00000000       0.00000000       1.94363636       0.00000000       0.00000000      25.16722107
2
Properties=species:S:1:pos:R:3:forces:R:3 energy=1.2362737749990163 pbc="F F F"
Au       0.00000000       0.00000000       0.00000000       0.00000000       0.00000000     -19.68741417
Au       0.00000000       0.00000000       2.00242424       0.00000000       0.00000000      19.68741417
2
Properties=species:S:1:pos:R:3:forces:R:3 energy=0.21841829498454823 pbc="F F F"
Au       0.00000000       0.00000000       0.00000000       0.00000000       0.00000000     -15.08127689
Au       0.00000000       0.00000000       2.06121212       0.00000000       0.00000000      15.08127689
2
Properties=species:S:1:pos:R:3:forces:R:3 energy=-0.5527106080598044 pbc="F F F"
Au       0.00000000       0.00000000       0.00000000       0.00000000       0.00000000     -11.28082943
Au       0.00000000       0.00000000       2.12000000       0.00000000       0.00000000      11.28082943
2
Properties=species:S:1:pos:R:3:forces:R:3 energy=-1.1221622437764796 pbc="F F F"
Au       0.00000000       0.00000000       0.00000000       0.00000000       0.00000000      -8.20603085
Au       0.00000000       0.00000000       2.17878788       0.00000000       0.00000000       8.20603085
2
Properties=species:S:1:pos:R:3:forces:R:3 energy=-1.5300668950264684 pbc="F F F"
Au       0.00000000       0.00000000       0.00000000       0.00000000       0.00000000      -5.77005386
Au       0.00000000       0.00000000       2.23757576       0.00000000       0.00000000       5.77005386
2
Properties=species:S:1:pos:R:3:forces:R:3 energy=-1.8112737818607967 pbc="F F F"
Au       0.00000000       0.00000000       0.00000000       0.00000000       0.00000000      -3.87977743
Au       0.00000000       0.00000000       2.29636364       0.00000000       0.00000000       3.87977743
2
Properties=species:S:1:pos:R:3:forces:R:3 energy=-1.995055655149349 pbc="F F F"
Au       0.00000000       0.00000000       0.00000000       0.00000000       0.00000000      -2.43987823
Au       0.00000000       0.00000000       2.35515152       0.00000000       0.00000000       2.43987823
2
Properties=species:S:1:pos:R:3:forces:R:3 energy=-2.1051961844937064 pbc="F F F"
Au       0.00000000       0.00000000       0.00000000       0.00000000       0.00000000      -1.36018002
Au       0.00000000       0.00000000       2.41393939       0.00000000       0.00000000       1.36018002
2
Properties=species:S:1:pos:R:3:forces:R:3 energy=-2.1604886455313794 pbc="F F F"
Au       0.00000000       0.00000000       0.00000000       0.00000000       0.00000000      -0.56206024
Au       0.00000000       0.00000000       2.47272727       0.00000000       0.00000000       0.56206024
2
Properties=species:S:1:pos:R:3:forces:R:3 energy=-2.1755210948413173 pbc="F F F"
Au       0.00000000       0.00000000       0.00000000       0.00000000       0.00000000       0.01911192
Au       0.00000000       0.00000000       2.53151515       0.00000000       0.00000000      -0.01911192
2
Properties=species:S:1:pos:R:3:forces:R:3 energy=-2.161482855969794 pbc="F F F"
Au       0.00000000       0.00000000       0.00000000       0.00000000       0.00000000       0.43453714
Au       0.00000000       0.00000000       2.59030303       0.00000000       0.00000000      -0.43453714
2
Properties=species:S:1:pos:R:3:forces:R:3 energy=-2.126892147431401 pbc="F F F"
Au       0.00000000       0.00000000       0.00000000       0.00000000       0.00000000       0.72406638
Au       0.00000000       0.00000000       2.64909091       0.00000000       0.00000000      -0.72406638
2
Properties=species:S:1:pos:R:3:forces:R:3 energy=-2.0782097694760493 pbc="F F F"
Au       0.00000000       0.00000000       0.00000000       0.00000000       0.00000000       0.91845727
Au       0.00000000       0.00000000       2.70787879       0.00000000       0.00000000      -0.91845727
2
Properties=species:S:1:pos:R:3:forces:R:3 energy=-2.0202997663181104 pbc="F F F"
Au       0.00000000       0.00000000       0.00000000       0.00000000       0.00000000       1.04141188
Au       0.00000000       0.00000000       2.76666667       0.00000000       0.00000000      -1.04141188
2
Properties=species:S:1:pos:R:3:forces:R:3 energy=-1.9568022076166016 pbc="F F F"
Au       0.00000000       0.00000000       0.00000000       0.00000000       0.00000000       1.11126840
Au       0.00000000       0.00000000       2.82545455       0.00000000       0.00000000      -1.11126840
2
Properties=species:S:1:pos:R:3:forces:R:3 energy=-1.8903971978697223 pbc="F F F"
Au       0.00000000       0.00000000       0.00000000       0.00000000       0.00000000       1.14248252
Au       0.00000000       0.00000000       2.88424242       0.00000000       0.00000000      -1.14248252
2
Properties=species:S:1:pos:R:3:forces:R:3 energy=-1.8229974193018386 pbc="F F F"
Au       0.00000000       0.00000000       0.00000000       0.00000000       0.00000000       1.14693761
Au       0.00000000       0.00000000       2.94303030       0.00000000       0.00000000      -1.14693761
2
Properties=species:S:1:pos:R:3:forces:R:3 energy=-1.7558718564768956 pbc="F F F"
Au       0.00000000       0.00000000       0.00000000       0.00000000       0.00000000       1.13465452
Au       0.00000000       0.00000000       3.00181818       0.00000000       0.00000000      -1.13465452
2
Properties=species:S:1:pos:R:3:forces:R:3 energy=-1.6897710427814205 pbc="F F F"
Au       0.00000000       0.00000000       0.00000000       0.00000000       0.00000000       1.11299181
Au       0.00000000       0.00000000       3.06060606       0.00000000       0.00000000      -1.11299181
2
Properties=species:S:1:pos:R:3:forces:R:3 energy=-1.6251184967929584 pbc="F F F"
Au       0.00000000       0.00000000       0.00000000       0.00000000       0.00000000       1.08573973
Au       0.00000000       0.00000000       3.11939394       0.00000000       0.00000000      -1.08573973
2
Properties=species:S:1:pos:R:3:forces:R:3 energy=-1.5621961573873797 pbc="F F F"
Au       0.00000000       0.00000000       0.00000000       0.00000000       0.00000000       1.05428445
Au       0.00000000       0.00000000       3.17818182       0.00000000       0.00000000      -1.05428445
2
Properties=species:S:1:pos:R:3:forces:R:3 energy=-1.5012328516538838 pbc="F F F"
Au       0.00000000       0.00000000       0.00000000       0.00000000       0.00000000       1.01913834
Au       0.00000000       0.00000000       3.23696970       0.00000000       0.00000000      -1.01913834
2
Properties=species:S:1:pos:R:3:forces:R:3 energy=-1.4424395387295994 pbc="F F F"
Au       0.00000000       0.00000000       0.00000000       0.00000000       0.00000000       0.98044449
Au       0.00000000       0.00000000       3.29575758       0.00000000       0.00000000      -0.98044449
2
Properties=species:S:1:pos:R:3:forces:R:3 energy=-1.3860264879656772 pbc="F F F"
Au       0.00000000       0.00000000       0.00000000       0.00000000       0.00000000       0.93817157
Au       0.00000000       0.00000000       3.35454545       0.00000000       0.00000000      -0.93817157
2
Properties=species:S:1:pos:R:3:forces:R:3 energy=-1.332202103984971 pbc="F F F"
Au       0.00000000       0.00000000       0.00000000       0.00000000       0.00000000       0.89241481
Au       0.00000000       0.00000000       3.41333333       0.00000000       0.00000000      -0.89241481
2
Properties=species:S:1:pos:R:3:forces:R:3 energy=-1.2811598473546142 pbc="F F F"
Au       0.00000000       0.00000000       0.00000000       0.00000000       0.00000000       0.84363532
Au       0.00000000       0.00000000       3.47212121       0.00000000       0.00000000      -0.84363532
2
Properties=species:S:1:pos:R:3:forces:R:3 energy=-1.2330530501000712 pbc="F F F"
Au       0.00000000       0.00000000       0.00000000       0.00000000       0.00000000       0.79272896
Au       0.00000000       0.00000000       3.53090909       0.00000000       0.00000000      -0.79272896
2
Properties=species:S:1:pos:R:3:forces:R:3 energy=-1.1879719753487374 pbc="F F F"
Au       0.00000000       0.00000000       0.00000000       0.00000000       0.00000000       0.74090159
Au       0.00000000       0.00000000       3.58969697       0.00000000       0.00000000      -0.74090159
2
Properties=species:S:1:pos:R:3:forces:R:3 energy=-1.145932643175093 pbc="F F F"
Au       0.00000000       0.00000000       0.00000000       0.00000000       0.00000000       0.68948495
Au       0.00000000       0.00000000       3.64848485       0.00000000       0.00000000      -0.68948495
2
Properties=species:S:1:pos:R:3:forces:R:3 energy=-1.1068733615320854 pbc="F F F"
Au       0.00000000       0.00000000       0.00000000       0.00000000       0.00000000       0.63969874
Au       0.00000000       0.00000000       3.70727273       0.00000000       0.00000000      -0.63969874
2
Properties=species:S:1:pos:R:3:forces:R:3 energy=-1.0706681148735075 pbc="F F F"
Au       0.00000000       0.00000000       0.00000000       0.00000000       0.00000000       0.59250635
Au       0.00000000       0.00000000       3.76606061       0.00000000       0.00000000      -0.59250635
2
Properties=species:S:1:pos:R:3:forces:R:3 energy=-1.037145646311873 pbc="F F F"
Au       0.00000000       0.00000000       0.00000000       0.00000000       0.00000000       0.54852569
Au       0.00000000       0.00000000       3.82484848       0.00000000       0.00000000      -0.54852569
2
Properties=species:S:1:pos:R:3:forces:R:3 energy=-1.0061063427399515 pbc="F F F"
Au       0.00000000       0.00000000       0.00000000       0.00000000       0.00000000       0.50802040
Au       0.00000000       0.00000000       3.88363636       0.00000000       0.00000000      -0.50802040
2
Properties=species:S:1:pos:R:3:forces:R:3 energy=-0.9773469770939943 pbc="F F F"
Au       0.00000000       0.00000000       0.00000000       0.00000000       0.00000000       0.47095737
Au       0.00000000       0.00000000       3.94242424       0.00000000       0.00000000      -0.47095737
2
Properties=species:S:1:pos:R:3:forces:R:3 energy=-0.9506709963666319 pbc="F F F"
Au       0.00000000       0.00000000       0.00000000       0.00000000       0.00000000       0.43709803
Au       0.00000000       0.00000000       4.00121212       0.00000000       0.00000000      -0.43709803
2
Properties=species:S:1:pos:R:3:forces:R:3 energy=-0.9258990108564016 pbc="F F F"
Au       0.00000000       0.00000000       0.00000000       0.00000000       0.00000000       0.40610152
Au       0.00000000       0.00000000       4.06000000       0.00000000       0.00000000      -0.40610152
2
Properties=species:S:1:pos:R:3:forces:R:3 energy=-0.9028741090685756 pbc="F F F"
Au       0.00000000       0.00000000       0.00000000       0.00000000       0.00000000       0.37762383
Au       0.00000000       0.00000000       4.11878788       0.00000000       0.00000000      -0.37762383
2
Properties=species:S:1:pos:R:3:forces:R:3 energy=-0.8814559182574861 pbc="F F F"
Au       0.00000000       0.00000000       0.00000000       0.00000000       0.00000000       0.35137829
Au       0.00000000       0.00000000       4.17757576       0.00000000       0.00000000      -0.35137829
2
Properties=species:S:1:pos:R:3:forces:R:3 energy=-0.8615199582788996 pbc="F F F"
Au       0.00000000       0.00000000       0.00000000       0.00000000       0.00000000       0.32717904
Au       0.00000000       0.00000000       4.23636364       0.00000000       0.00000000      -0.32717904
2
Properties=species:S:1:pos:R:3:forces:R:3 energy=-0.8429489223048166 pbc="F F F"
Au       0.00000000       0.00000000       0.00000000       0.00000000       0.00000000       0.30493218
Au       0.00000000       0.00000000       4.29515152       0.00000000       0.00000000      -0.30493218
2
Properties=species:S:1:pos:R:3:forces:R:3 energy=-0.8256298094648777 pbc="F F F"
Au       0.00000000       0.00000000       0.00000000       0.00000000       0.00000000       0.28461406
Au       0.00000000       0.00000000       4.35393939       0.00000000       0.00000000      -0.28461406
2
Properties=species:S:1:pos:R:3:forces:R:3 energy=-0.8094478687632468 pbc="F F F"
Au       0.00000000       0.00000000       0.00000000       0.00000000       0.00000000       0.26622155
Au       0.00000000       0.00000000       4.41272727       0.00000000       0.00000000      -0.26622155
2
Properties=species:S:1:pos:R:3:forces:R:3 energy=-0.7942909923993011 pbc="F F F"
Au       0.00000000       0.00000000       0.00000000       0.00000000       0.00000000       0.24973126
Au       0.00000000       0.00000000       4.47151515       0.00000000       0.00000000      -0.24973126
2
Properties=species:S:1:pos:R:3:forces:R:3 energy=-0.7800496138133477 pbc="F F F"
Au       0.00000000       0.00000000       0.00000000       0.00000000       0.00000000       0.23505509
Au       0.00000000       0.00000000       4.53030303       0.00000000       0.00000000      -0.23505509
2
Properties=species:S:1:pos:R:3:forces:R:3 energy=-0.7666221897300307 pbc="F F F"
Au       0.00000000       0.00000000       0.00000000       0.00000000       0.00000000       0.22201356
Au       0.00000000       0.00000000       4.58909091       0.00000000       0.00000000      -0.22201356
2
Properties=species:S:1:pos:R:3:forces:R:3 energy=-0.7539198703274279 pbc="F F F"
Au       0.00000000       0.00000000       0.00000000       0.00000000       0.00000000       0.21033545
Au       0.00000000       0.00000000       4.64787879       0.00000000       0.00000000      -0.21033545
2
Properties=species:S:1:pos:R:3:forces:R:3 energy=-0.7418718767423269 pbc="F F F"
Au       0.00000000       0.00000000       0.00000000       0.00000000       0.00000000       0.19966801
Au       0.00000000       0.00000000       4.70666667       0.00000000       0.00000000      -0.19966801
2
Properties=species:S:1:pos:R:3:forces:R:3 energy=-0.7304312452908794 pbc="F F F"
Au       0.00000000       0.00000000       0.00000000       0.00000000       0.00000000       0.18963891
Au       0.00000000       0.00000000       4.76545455       0.00000000       0.00000000      -0.18963891
2
Properties=species:S:1:pos:R:3:forces:R:3 energy=-0.7195685024566346 pbc="F F F"
Au       0.00000000       0.00000000       0.00000000       0.00000000       0.00000000       0.17992525
Au       0.00000000       0.00000000       4.82424242       0.00000000       0.00000000      -0.17992525
2
Properties=species:S:1:pos:R:3:forces:R:3 energy=-0.7092740944257748 pbc="F F F"
Au       0.00000000       0.00000000       0.00000000       0.00000000       0.00000000       0.17036034
Au       0.00000000       0.00000000       4.88303030       0.00000000       0.00000000      -0.17036034
2
Properties=species:S:1:pos:R:3:forces:R:3 energy=-0.6995343474083388 pbc="F F F"
Au       0.00000000       0.00000000       0.00000000       0.00000000       0.00000000       0.16102870
Au       0.00000000       0.00000000       4.94181818       0.00000000       0.00000000      -0.16102870
2
Properties=species:S:1:pos:R:3:forces:R:3 energy=-0.6903279493802683 pbc="F F F"
Au       0.00000000       0.00000000       0.00000000       0.00000000       0.00000000       0.15234736
Au       0.00000000       0.00000000       5.00060606       0.00000000       0.00000000      -0.15234736
2
Properties=species:S:1:pos:R:3:forces:R:3 energy=-0.6815948322910788 pbc="F F F"
Au       0.00000000       0.00000000       0.00000000       0.00000000       0.00000000       0.14503293
Au       0.00000000       0.00000000       5.05939394       0.00000000       0.00000000      -0.14503293
2
Properties=species:S:1:pos:R:3:forces:R:3 energy=-0.6732320825180591 pbc="F F F"
Au       0.00000000       0.00000000       0.00000000       0.00000000       0.00000000       0.13992180
Au       0.00000000       0.00000000       5.11818182       0.00000000       0.00000000      -0.13992180
2
Properties=species:S:1:pos:R:3:forces:R:3 energy=-0.6650899479390485 pbc="F F F"
Au       0.00000000       0.00000000       0.00000000       0.00000000       0.00000000       0.13753550
Au       0.00000000       0.00000000       5.17696970       0.00000000       0.00000000      -0.13753550
2
Properties=species:S:1:pos:R:3:forces:R:3 energy=-0.6570156273394782 pbc="F F F"
Au       0.00000000       0.00000000       0.00000000       0.00000000       0.00000000       0.13743690
Au       0.00000000       0.00000000       5.23575758       0.00000000       0.00000000      -0.13743690
2
Properties=species:S:1:pos:R:3:forces:R:3 energy=-0.6489242579603876 pbc="F F F"
Au       0.00000000       0.00000000       0.00000000       0.00000000       0.00000000       0.13762511
Au       0.00000000       0.00000000       5.29454545       0.00000000       0.00000000      -0.13762511
2
Properties=species:S:1:pos:R:3:forces:R:3 energy=-0.6408898258369716 pbc="F F F"
Au       0.00000000       0.00000000       0.00000000       0.00000000       0.00000000       0.13502294
Au       0.00000000       0.00000000       5.35333333       0.00000000       0.00000000      -0.13502294
2
Properties=species:S:1:pos:R:3:forces:R:3 energy=-0.633121821368673 pbc="F F F"
Au       0.00000000       0.00000000       0.00000000       0.00000000       0.00000000       0.12899342
Au       0.00000000       0.00000000       5.41212121       0.00000000       0.00000000      -0.12899342
2
Properties=species:S:1:pos:R:3:forces:R:3 energy=-0.6256804077287329 pbc="F F F"
Au       0.00000000       0.00000000       0.00000000       0.00000000       0.00000000       0.12507546
Au       0.00000000       0.00000000       5.47090909       0.00000000       0.00000000      -0.12507546
2
Properties=species:S:1:pos:R:3:forces:R:3 energy=-0.6183272262705614 pbc="F F F"
Au       0.00000000       0.00000000       0.00000000       0.00000000       0.00000000       0.12495707
Au       0.00000000       0.00000000       5.52969697       0.00000000       0.00000000      -0.12495707
2
Properties=species:S:1:pos:R:3:forces:R:3 energy=-0.6111329092420433 pbc="F F F"
Au       0.00000000       0.00000000       0.00000000       0.00000000       0.00000000       0.11795797
Au       0.00000000       0.00000000       5.58848485       0.00000000       0.00000000      -0.11795797
2
Properties=species:S:1:pos:R:3:forces:R:3 energy=-0.6046422052424099 pbc="F F F"
Au       0.00000000       0.00000000       0.00000000       0.00000000       0.00000000       0.10221420
Au       0.00000000       0.00000000       5.64727273       0.00000000       0.00000000      -0.10221420
2
Properties=species:S:1:pos:R:3:forces:R:3 energy=-0.5990688046265895 pbc="F F F"
Au       0.00000000       0.00000000       0.00000000       0.00000000       0.00000000       0.08902554
Au       0.00000000       0.00000000       5.70606061       0.00000000       0.00000000      -0.08902554
2
Properties=species:S:1:pos:R:3:forces:R:3 energy=-0.5938922109098574 pbc="F F F"
Au       0.00000000       0.00000000       0.00000000       0.00000000       0.00000000       0.08838177
Au       0.00000000       0.00000000       5.76484848       0.00000000       0.00000000      -0.08838177
2
Properties=species:S:1:pos:R:3:forces:R:3 energy=-0.5887774459804088 pbc="F F F"
Au       0.00000000       0.00000000       0.00000000       0.00000000       0.00000000       0.08224401
Au       0.00000000       0.00000000       5.82363636       0.00000000       0.00000000      -0.08224401
2
Properties=species:S:1:pos:R:3:forces:R:3 energy=-0.584726915403332 pbc="F F F"
Au       0.00000000       0.00000000       0.00000000       0.00000000       0.00000000       0.05297809
Au       0.00000000       0.00000000       5.88242424       0.00000000       0.00000000      -0.05297809
2
Properties=species:S:1:pos:R:3:forces:R:3 energy=-0.582630445428956 pbc="F F F"
Au       0.00000000       0.00000000       0.00000000       0.00000000       0.00000000       0.01967670
Au       0.00000000       0.00000000       5.94121212       0.00000000       0.00000000      -0.01967670
2
Properties=species:S:1:pos:R:3:forces:R:3 energy=-0.5820113709732232 pbc="F F F"
Au       0.00000000       0.00000000       0.00000000       0.00000000       0.00000000       0.00582827
Au       0.00000000       0.00000000       6.00000000       0.00000000       0.00000000      -0.00582827
