2
Properties=species:S:1:pos:R:3:forces:R:3 energy=86659.47478461324 pbc="F F F"
Au       0.00000000       0.00000000       0.00000000       0.00000000       0.00000000 -2187292.00000000
Au       0.00000000       0.00000000       0.10000000       0.00000000       0.00000000 2187292.00000000
2
Properties=species:S:1:pos:R:3:forces:R:3 energy=24091.279472113234 pbc="F F F"
Au       0.00000000       0.00000000       0.00000000       0.00000000       0.00000000 -446178.59375000
Au       0.00000000       0.00000000       0.15959596       0.00000000       0.00000000  446178.59375000
2
Properties=species:S:1:pos:R:3:forces:R:3 energy=9009.213065863234 pbc="F F F"
Au       0.00000000       0.00000000       0.00000000       0.00000000       0.00000000 -132872.64062500
Au       0.00000000       0.00000000       0.21919192       0.00000000       0.00000000  132872.64062500
2
Properties=species:S:1:pos:R:3:forces:R:3 energy=4085.60881781636 pbc="F F F"
Au       0.00000000       0.00000000       0.00000000       0.00000000       0.00000000  -48393.75390625
Au       0.00000000       0.00000000       0.27878788       0.00000000       0.00000000   48393.75390625
2
Properties=species:S:1:pos:R:3:forces:R:3 energy=2190.5985639132778 pbc="F F F"
Au       0.00000000       0.00000000       0.00000000       0.00000000       0.00000000  -19890.61718750
Au       0.00000000       0.00000000       0.33838384       0.00000000       0.00000000   19890.61718750
2
Properties=species:S:1:pos:R:3:forces:R:3 energy=1380.1858441930508 pbc="F F F"
Au       0.00000000       0.00000000       0.00000000       0.00000000       0.00000000   -8939.63378906
Au       0.00000000       0.00000000       0.39797980       0.00000000       0.00000000    8939.63378906
2
Properties=species:S:1:pos:R:3:forces:R:3 energy=1001.920402308023 pbc="F F F"
Au       0.00000000       0.00000000       0.00000000       0.00000000       0.00000000   -4384.56347656
Au       0.00000000       0.00000000       0.45757576       0.00000000       0.00000000    4384.56347656
2
Properties=species:S:1:pos:R:3:forces:R:3 energy=797.6951826068031 pbc="F F F"
Au       0.00000000       0.00000000       0.00000000       0.00000000       0.00000000   -2667.48046875
Au       0.00000000       0.00000000       0.51717172       0.00000000       0.00000000    2667.48046875
2
Properties=species:S:1:pos:R:3:forces:R:3 energy=665.5045698518483 pbc="F F F"
Au       0.00000000       0.00000000       0.00000000       0.00000000       0.00000000   -1956.76171875
Au       0.00000000       0.00000000       0.57676768       0.00000000       0.00000000    1956.76171875
2
Properties=species:S:1:pos:R:3:forces:R:3 energy=549.99663534806 pbc="F F F"
Au       0.00000000       0.00000000       0.00000000       0.00000000       0.00000000   -1876.03039551
Au       0.00000000       0.00000000       0.63636364       0.00000000       0.00000000    1876.03039551
2
Properties=species:S:1:pos:R:3:forces:R:3 energy=442.8594284181803 pbc="F F F"
Au       0.00000000       0.00000000       0.00000000       0.00000000       0.00000000   -1730.72241211
Au       0.00000000       0.00000000       0.69595960       0.00000000       0.00000000    1730.72241211
2
Properties=species:S:1:pos:R:3:forces:R:3 energy=348.7247545074736 pbc="F F F"
Au       0.00000000       0.00000000       0.00000000       0.00000000       0.00000000   -1416.55224609
Au       0.00000000       0.00000000       0.75555556       0.00000000       0.00000000    1416.55224609
2
Properties=species:S:1:pos:R:3:forces:R:3 energy=271.55263560760307 pbc="F F F"
Au       0.00000000       0.00000000       0.00000000       0.00000000       0.00000000   -1194.64135742
Au       0.00000000       0.00000000       0.81515152       0.00000000       0.00000000    1194.64135742
2
Properties=species:S:1:pos:R:3:forces:R:3 energy=207.714623260751 pbc="F F F"
Au       0.00000000       0.00000000       0.00000000       0.00000000       0.00000000    -914.17492676
Au       0.00000000       0.00000000       0.87474747       0.00000000       0.00000000     914.17492676
2
Properties=species:S:1:pos:R:3:forces:R:3 energy=162.29592257988844 pbc="F F F"
Au       0.00000000       0.00000000       0.00000000       0.00000000       0.00000000    -632.42248535
Au       0.00000000       0.00000000       0.93434343       0.00000000       0.00000000     632.42248535
2
Properties=species:S:1:pos:R:3:forces:R:3 energy=129.6417942326499 pbc="F F F"
Au       0.00000000       0.00000000       0.00000000       0.00000000       0.00000000    -479.66543579
Au       0.00000000       0.00000000       0.99393939       0.00000000       0.00000000     479.66543579
2
Properties=species:S:1:pos:R:3:forces:R:3 energy=104.0001783363649 pbc="F F F"
Au       0.00000000       0.00000000       0.00000000       0.00000000       0.00000000    -385.37878418
Au       0.00000000       0.00000000       1.05353535       0.00000000       0.00000000     385.37878418
2
Properties=species:S:1:pos:R:3:forces:R:3 energy=83.48247175344414 pbc="F F F"
Au       0.00000000       0.00000000       0.00000000       0.00000000       0.00000000    -304.00546265
Au       0.00000000       0.00000000       1.11313131       0.00000000       0.00000000     304.00546265
2
Properties=species:S:1:pos:R:3:forces:R:3 energy=67.59763146275942 pbc="F F F"
Au       0.00000000       0.00000000       0.00000000       0.00000000       0.00000000    -231.37593079
Au       0.00000000       0.00000000       1.17272727       0.00000000       0.00000000     231.37593079
2
Properties=species:S:1:pos:R:3:forces:R:3 energy=55.55756781348376 pbc="F F F"
Au       0.00000000       0.00000000       0.00000000       0.00000000       0.00000000    -175.80131531
Au       0.00000000       0.00000000       1.23232323       0.00000000       0.00000000     175.80131531
2
Properties=species:S:1:pos:R:3:forces:R:3 energy=46.31929310250807 pbc="F F F"
Au       0.00000000       0.00000000       0.00000000       0.00000000       0.00000000    -136.38340759
Au       0.00000000       0.00000000       1.29191919       0.00000000       0.00000000     136.38340759
2
Properties=species:S:1:pos:R:3:forces:R:3 energy=39.07487745753382 pbc="F F F"
Au       0.00000000       0.00000000       0.00000000       0.00000000       0.00000000    -108.63689423
Au       0.00000000       0.00000000       1.35151515       0.00000000       0.00000000     108.63689423
2
Properties=species:S:1:pos:R:3:forces:R:3 energy=33.15188146809245 pbc="F F F"
Au       0.00000000       0.00000000       0.00000000       0.00000000       0.00000000     -91.69896698
Au       0.00000000       0.00000000       1.41111111       0.00000000       0.00000000      91.69896698
2
Properties=species:S:1:pos:R:3:forces:R:3 energy=28.008671711960606 pbc="F F F"
Au       0.00000000       0.00000000       0.00000000       0.00000000       0.00000000     -81.67241669
Au       0.00000000       0.00000000       1.47070707       0.00000000       0.00000000      81.67241669
2
Properties=species:S:1:pos:R:3:forces:R:3 energy=23.3562259462002 pbc="F F F"
Au       0.00000000       0.00000000       0.00000000       0.00000000       0.00000000     -74.76426697
Au       0.00000000       0.00000000       1.53030303       0.00000000       0.00000000      74.76426697
2
Properties=species:S:1:pos:R:3:forces:R:3 energy=19.08170565377724 pbc="F F F"
Au       0.00000000       0.00000000       0.00000000       0.00000000       0.00000000     -68.66776276
Au       0.00000000       0.00000000       1.58989899       0.00000000       0.00000000      68.66776276
2
Properties=species:S:1:pos:R:3:forces:R:3 energy=15.184961396095863 pbc="F F F"
Au       0.00000000       0.00000000       0.00000000       0.00000000       0.00000000     -61.94442368
Au       0.00000000       0.00000000       1.64949495       0.00000000       0.00000000      61.94442368
2
Properties=species:S:1:pos:R:3:forces:R:3 energy=11.71627786611597 pbc="F F F"
Au       0.00000000       0.00000000       0.00000000       0.00000000       0.00000000     -54.34524536
Au       0.00000000       0.00000000       1.70909091       0.00000000       0.00000000      54.34524536
2
Properties=species:S:1:pos:R:3:forces:R:3 energy=8.71556572559746 pbc="F F F"
Au       0.00000000       0.00000000       0.00000000       0.00000000       0.00000000     -46.33726501
Au       0.00000000       0.00000000       1.76868687       0.00000000       0.00000000      46.33726501
2
Properties=species:S:1:pos:R:3:forces:R:3 energy=6.190340324131384 pbc="F F F"
Au       0.00000000       0.00000000       0.00000000       0.00000000       0.00000000     -38.47321701
Au       0.00000000       0.00000000       1.82828283       0.00000000       0.00000000      38.47321701
2
Properties=species:S:1:pos:R:3:forces:R:3 energy=4.118018143726025 pbc="F F F"
Au       0.00000000       0.00000000       0.00000000       0.00000000       0.00000000     -31.19958115
Au       0.00000000       0.00000000       1.88787879       0.00000000       0.00000000      31.19958115
2
Properties=species:S:1:pos:R:3:forces:R:3 energy=2.4544612153343457 pbc="F F F"
Au       0.00000000       0.00000000       0.00000000       0.00000000       0.00000000     -24.78183556
Au       0.00000000       0.00000000       1.94747475       0.00000000       0.00000000      24.78183556
2
Properties=species:S:1:pos:R:3:forces:R:3 energy=1.1457166999693857 pbc="F F F"
Au       0.00000000       0.00000000       0.00000000       0.00000000       0.00000000     -19.29231834
Au       0.00000000       0.00000000       2.00707071       0.00000000       0.00000000      19.29231834
2
Properties=species:S:1:pos:R:3:forces:R:3 energy=0.1372091944651507 pbc="F F F"
Au       0.00000000       0.00000000       0.00000000       0.00000000       0.00000000     -14.69591236
Au       0.00000000       0.00000000       2.06666667       0.00000000       0.00000000      14.69591236
2
Properties=species:S:1:pos:R:3:forces:R:3 energy=-0.6222284695744088 pbc="F F F"
Au       0.00000000       0.00000000       0.00000000       0.00000000       0.00000000     -10.92018986
Au       0.00000000       0.00000000       2.12626263       0.00000000       0.00000000      10.92018986
2
Properties=species:S:1:pos:R:3:forces:R:3 energy=-1.179027814497139 pbc="F F F"
Au       0.00000000       0.00000000       0.00000000       0.00000000       0.00000000      -7.88104391
Au       0.00000000       0.00000000       2.18585859       0.00000000       0.00000000       7.88104391
2
Properties=species:S:1:pos:R:3:forces:R:3 energy=-1.574406738036738 pbc="F F F"
Au       0.00000000       0.00000000       0.00000000       0.00000000       0.00000000      -5.48715544
Au       0.00000000       0.00000000       2.24545455       0.00000000       0.00000000       5.48715544
2
Properties=species:S:1:pos:R:3:forces:R:3 energy=-1.8439324451239074 pbc="F F F"
Au       0.00000000       0.00000000       0.00000000       0.00000000       0.00000000      -3.64092088
Au       0.00000000       0.00000000       2.30505051       0.00000000       0.00000000       3.64092088
2
Properties=species:S:1:pos:R:3:forces:R:3 energy=-2.0172820318673996 pbc="F F F"
Au       0.00000000       0.00000000       0.00000000       0.00000000       0.00000000      -2.24332023
Au       0.00000000       0.00000000       2.36464646       0.00000000       0.00000000       2.24332023
2
Properties=species:S:1:pos:R:3:forces:R:3 energy=-2.1183868681785483 pbc="F F F"
Au       0.00000000       0.00000000       0.00000000       0.00000000       0.00000000      -1.20196962
Au       0.00000000       0.00000000       2.42424242       0.00000000       0.00000000       1.20196962
2
Properties=species:S:1:pos:R:3:forces:R:3 energy=-2.166034313579898 pbc="F F F"
Au       0.00000000       0.00000000       0.00000000       0.00000000       0.00000000      -0.43732214
Au       0.00000000       0.00000000       2.48383838       0.00000000       0.00000000       0.43732214
2
Properties=species:S:1:pos:R:3:forces:R:3 energy=-2.1747138555750007 pbc="F F F"
Au       0.00000000       0.00000000       0.00000000       0.00000000       0.00000000       0.11529680
Au       0.00000000       0.00000000       2.54343434       0.00000000       0.00000000      -0.11529680
2
Properties=species:S:1:pos:R:3:forces:R:3 energy=-2.1554859337972285 pbc="F F F"
Au       0.00000000       0.00000000       0.00000000       0.00000000       0.00000000       0.50671554
Au       0.00000000       0.00000000       2.60303030       0.00000000       0.00000000      -0.50671554
2
Properties=species:S:1:pos:R:3:forces:R:3 energy=-2.116732586075063 pbc="F F F"
Au       0.00000000       0.00000000       0.00000000       0.00000000       0.00000000       0.77629077
Au       0.00000000       0.00000000       2.66262626       0.00000000       0.00000000      -0.77629077
2
Properties=species:S:1:pos:R:3:forces:R:3 energy=-2.0647742234733264 pbc="F F F"
Au       0.00000000       0.00000000       0.00000000       0.00000000       0.00000000       0.95426536
Au       0.00000000       0.00000000       2.72222222       0.00000000       0.00000000      -0.95426536
2
Properties=species:S:1:pos:R:3:forces:R:3 energy=-2.004346935809513 pbc="F F F"
Au       0.00000000       0.00000000       0.00000000       0.00000000       0.00000000       1.06385994
Au       0.00000000       0.00000000       2.78181818       0.00000000       0.00000000      -1.06385994
2
Properties=species:S:1:pos:R:3:forces:R:3 energy=-1.9389695605915418 pbc="F F F"
Au       0.00000000       0.00000000       0.00000000       0.00000000       0.00000000       1.12302887
Au       0.00000000       0.00000000       2.84141414       0.00000000       0.00000000      -1.12302887
2
Properties=species:S:1:pos:R:3:forces:R:3 energy=-1.871208268763405 pbc="F F F"
Au       0.00000000       0.00000000       0.00000000       0.00000000       0.00000000       1.14600861
Au       0.00000000       0.00000000       2.90101010       0.00000000       0.00000000      -1.14600861
2
Properties=species:S:1:pos:R:3:forces:R:3 energy=-1.8028574613664703 pbc="F F F"
Au       0.00000000       0.00000000       0.00000000       0.00000000       0.00000000       1.14462137
Au       0.00000000       0.00000000       2.96060606       0.00000000       0.00000000      -1.14462137
2
Properties=species:S:1:pos:R:3:forces:R:3 energy=-1.73506594867017 pbc="F F F"
Au       0.00000000       0.00000000       0.00000000       0.00000000       0.00000000       1.12864196
Au       0.00000000       0.00000000       3.02020202       0.00000000       0.00000000      -1.12864196
2
Properties=species:S:1:pos:R:3:forces:R:3 energy=-1.6684897443234337 pbc="F F F"
Au       0.00000000       0.00000000       0.00000000       0.00000000       0.00000000       1.10461175
Au       0.00000000       0.00000000       3.07979798       0.00000000       0.00000000      -1.10461175
2
Properties=species:S:1:pos:R:3:forces:R:3 energy=-1.6035056254406377 pbc="F F F"
Au       0.00000000       0.00000000       0.00000000       0.00000000       0.00000000       1.07547498
Au       0.00000000       0.00000000       3.13939394       0.00000000       0.00000000      -1.07547498
2
Properties=species:S:1:pos:R:3:forces:R:3 energy=-1.5403830085655323 pbc="F F F"
Au       0.00000000       0.00000000       0.00000000       0.00000000       0.00000000       1.04225194
Au       0.00000000       0.00000000       3.19898990       0.00000000       0.00000000      -1.04225194
2
Properties=species:S:1:pos:R:3:forces:R:3 energy=-1.4793511833546877 pbc="F F F"
Au       0.00000000       0.00000000       0.00000000       0.00000000       0.00000000       1.00532353
Au       0.00000000       0.00000000       3.25858586       0.00000000       0.00000000      -1.00532353
2
Properties=species:S:1:pos:R:3:forces:R:3 energy=-1.4206282143213078 pbc="F F F"
Au       0.00000000       0.00000000       0.00000000       0.00000000       0.00000000       0.96474284
Au       0.00000000       0.00000000       3.31818182       0.00000000       0.00000000      -0.96474284
2
Properties=species:S:1:pos:R:3:forces:R:3 energy=-1.364434667980538 pbc="F F F"
Au       0.00000000       0.00000000       0.00000000       0.00000000       0.00000000       0.92048883
Au       0.00000000       0.00000000       3.37777778       0.00000000       0.00000000      -0.92048883
2
Properties=species:S:1:pos:R:3:forces:R:3 energy=-1.3109825125462957 pbc="F F F"
Au       0.00000000       0.00000000       0.00000000       0.00000000       0.00000000       0.87278968
Au       0.00000000       0.00000000       3.43737374       0.00000000       0.00000000      -0.87278968
2
Properties=species:S:1:pos:R:3:forces:R:3 energy=-1.260460491555021 pbc="F F F"
Au       0.00000000       0.00000000       0.00000000       0.00000000       0.00000000       0.82231241
Au       0.00000000       0.00000000       3.49696970       0.00000000       0.00000000      -0.82231241
2
Properties=species:S:1:pos:R:3:forces:R:3 energy=-1.2130032098302317 pbc="F F F"
Au       0.00000000       0.00000000       0.00000000       0.00000000       0.00000000       0.77014363
Au       0.00000000       0.00000000       3.55656566       0.00000000       0.00000000      -0.77014363
2
Properties=species:S:1:pos:R:3:forces:R:3 energy=-1.1686726078695784 pbc="F F F"
Au       0.00000000       0.00000000       0.00000000       0.00000000       0.00000000       0.71762723
Au       0.00000000       0.00000000       3.61616162       0.00000000       0.00000000      -0.71762723
2
Properties=species:S:1:pos:R:3:forces:R:3 energy=-1.1274478625734736 pbc="F F F"
Au       0.00000000       0.00000000       0.00000000       0.00000000       0.00000000       0.66611958
Au       0.00000000       0.00000000       3.67575758       0.00000000       0.00000000      -0.66611958
2
Properties=species:S:1:pos:R:3:forces:R:3 energy=-1.0892331373528994 pbc="F F F"
Au       0.00000000       0.00000000       0.00000000       0.00000000       0.00000000       0.61678606
Au       0.00000000       0.00000000       3.73535354       0.00000000       0.00000000      -0.61678606
2
Properties=species:S:1:pos:R:3:forces:R:3 energy=-1.0538715933087608 pbc="F F F"
Au       0.00000000       0.00000000       0.00000000       0.00000000       0.00000000       0.57046825
Au       0.00000000       0.00000000       3.79494949       0.00000000       0.00000000      -0.57046825
2
Properties=species:S:1:pos:R:3:forces:R:3 energy=-1.0211685411766367 pbc="F F F"
Au       0.00000000       0.00000000       0.00000000       0.00000000       0.00000000       0.52762479
Au       0.00000000       0.00000000       3.85454545       0.00000000       0.00000000      -0.52762479
2
Properties=species:S:1:pos:R:3:forces:R:3 energy=-0.9909115900326179 pbc="F F F"
Au       0.00000000       0.00000000       0.00000000       0.00000000       0.00000000       0.48837072
Au       0.00000000       0.00000000       3.91414141       0.00000000       0.00000000      -0.48837072
2
Properties=species:S:1:pos:R:3:forces:R:3 energy=-0.9628905108951517 pbc="F F F"
Au       0.00000000       0.00000000       0.00000000       0.00000000       0.00000000       0.45254314
Au       0.00000000       0.00000000       3.97373737       0.00000000       0.00000000      -0.45254314
2
Properties=species:S:1:pos:R:3:forces:R:3 energy=-0.9369102374572236 pbc="F F F"
Au       0.00000000       0.00000000       0.00000000       0.00000000       0.00000000       0.41982955
Au       0.00000000       0.00000000       4.03333333       0.00000000       0.00000000      -0.41982955
2
Properties=species:S:1:pos:R:3:forces:R:3 energy=-0.9127957035660506 pbc="F F F"
Au       0.00000000       0.00000000       0.00000000       0.00000000       0.00000000       0.38986042
Au       0.00000000       0.00000000       4.09292929       0.00000000       0.00000000      -0.38986042
2
Properties=species:S:1:pos:R:3:forces:R:3 energy=-0.8903940886086731 pbc="F F F"
Au       0.00000000       0.00000000       0.00000000       0.00000000       0.00000000       0.36230302
Au       0.00000000       0.00000000       4.15252525       0.00000000       0.00000000      -0.36230302
2
Properties=species:S:1:pos:R:3:forces:R:3 energy=-0.8695693776501705 pbc="F F F"
Au       0.00000000       0.00000000       0.00000000       0.00000000       0.00000000       0.33691800
Au       0.00000000       0.00000000       4.21212121       0.00000000       0.00000000      -0.33691800
2
Properties=species:S:1:pos:R:3:forces:R:3 energy=-0.8501957288950039 pbc="F F F"
Au       0.00000000       0.00000000       0.00000000       0.00000000       0.00000000       0.31356922
Au       0.00000000       0.00000000       4.27171717       0.00000000       0.00000000      -0.31356922
2
Properties=species:S:1:pos:R:3:forces:R:3 energy=-0.8321547687192701 pbc="F F F"
Au       0.00000000       0.00000000       0.00000000       0.00000000       0.00000000       0.29220611
Au       0.00000000       0.00000000       4.33131313       0.00000000       0.00000000      -0.29220611
2
Properties=species:S:1:pos:R:3:forces:R:3 energy=-0.815327936349617 pbc="F F F"
Au       0.00000000       0.00000000       0.00000000       0.00000000       0.00000000       0.27282351
Au       0.00000000       0.00000000       4.39090909       0.00000000       0.00000000      -0.27282351
2
Properties=species:S:1:pos:R:3:forces:R:3 energy=-0.7995970571509609 pbc="F F F"
Au       0.00000000       0.00000000       0.00000000       0.00000000       0.00000000       0.25541040
Au       0.00000000       0.00000000       4.45050505       0.00000000       0.00000000      -0.25541040
2
Properties=species:S:1:pos:R:3:forces:R:3 energy=-0.7848471713872374 pbc="F F F"
Au       0.00000000       0.00000000       0.00000000       0.00000000       0.00000000       0.23990288
Au       0.00000000       0.00000000       4.51010101       0.00000000       0.00000000      -0.23990288
2
Properties=species:S:1:pos:R:3:forces:R:3 energy=-0.7709676027692338 pbc="F F F"
Au       0.00000000       0.00000000       0.00000000       0.00000000       0.00000000       0.22615029
Au       0.00000000       0.00000000       4.56969697       0.00000000       0.00000000      -0.22615029
2
Properties=species:S:1:pos:R:3:forces:R:3 energy=-0.757861651836932 pbc="F F F"
Au       0.00000000       0.00000000       0.00000000       0.00000000       0.00000000       0.21389969
Au       0.00000000       0.00000000       4.62929293       0.00000000       0.00000000      -0.21389969
2
Properties=species:S:1:pos:R:3:forces:R:3 energy=-0.7454497116561067 pbc="F F F"
Au       0.00000000       0.00000000       0.00000000       0.00000000       0.00000000       0.20280933
Au       0.00000000       0.00000000       4.68888889       0.00000000       0.00000000      -0.20280933
2
Properties=species:S:1:pos:R:3:forces:R:3 energy=-0.7336732248995711 pbc="F F F"
Au       0.00000000       0.00000000       0.00000000       0.00000000       0.00000000       0.19248867
Au       0.00000000       0.00000000       4.74848485       0.00000000       0.00000000      -0.19248867
2
Properties=species:S:1:pos:R:3:forces:R:3 energy=-0.7224985759880671 pbc="F F F"
Au       0.00000000       0.00000000       0.00000000       0.00000000       0.00000000       0.18257798
Au       0.00000000       0.00000000       4.80808081       0.00000000       0.00000000      -0.18257798
2
Properties=species:S:1:pos:R:3:forces:R:3 energy=-0.7119079975061688 pbc="F F F"
Au       0.00000000       0.00000000       0.00000000       0.00000000       0.00000000       0.17284356
Au       0.00000000       0.00000000       4.86767677       0.00000000       0.00000000      -0.17284356
2
Properties=species:S:1:pos:R:3:forces:R:3 energy=-0.7018929107371374 pbc="F F F"
Au       0.00000000       0.00000000       0.00000000       0.00000000       0.00000000       0.16330019
Au       0.00000000       0.00000000       4.92727273       0.00000000       0.00000000      -0.16330019
2
Properties=species:S:1:pos:R:3:forces:R:3 energy=-0.6924336210698958 pbc="F F F"
Au       0.00000000       0.00000000       0.00000000       0.00000000       0.00000000       0.15428418
Au       0.00000000       0.00000000       4.98686869       0.00000000       0.00000000      -0.15428418
2
Properties=species:S:1:pos:R:3:forces:R:3 energy=-0.6834805272807908 pbc="F F F"
Au       0.00000000       0.00000000       0.00000000       0.00000000       0.00000000       0.14648254
Au       0.00000000       0.00000000       5.04646465       0.00000000       0.00000000      -0.14648254
2
Properties=species:S:1:pos:R:3:forces:R:3 energy=-0.674933519917279 pbc="F F F"
Au       0.00000000       0.00000000       0.00000000       0.00000000       0.00000000       0.14076021
Au       0.00000000       0.00000000       5.10606061       0.00000000       0.00000000      -0.14076021
2
Properties=species:S:1:pos:R:3:forces:R:3 energy=-0.6666464712371943 pbc="F F F"
Au       0.00000000       0.00000000       0.00000000       0.00000000       0.00000000       0.13778608
Au       0.00000000       0.00000000       5.16565657       0.00000000       0.00000000      -0.13778608
2
Properties=species:S:1:pos:R:3:forces:R:3 energy=-0.6584581310055857 pbc="F F F"
Au       0.00000000       0.00000000       0.00000000       0.00000000       0.00000000       0.13735680
Au       0.00000000       0.00000000       5.22525253       0.00000000       0.00000000      -0.13735680
2
Properties=species:S:1:pos:R:3:forces:R:3 energy=-0.6502587803266859 pbc="F F F"
Au       0.00000000       0.00000000       0.00000000       0.00000000       0.00000000       0.13770585
Au       0.00000000       0.00000000       5.28484848       0.00000000       0.00000000      -0.13770585
2
Properties=species:S:1:pos:R:3:forces:R:3 energy=-0.642092396172945 pbc="F F F"
Au       0.00000000       0.00000000       0.00000000       0.00000000       0.00000000       0.13568793
Au       0.00000000       0.00000000       5.34444444       0.00000000       0.00000000      -0.13568793
2
Properties=species:S:1:pos:R:3:forces:R:3 energy=-0.634166093469525 pbc="F F F"
Au       0.00000000       0.00000000       0.00000000       0.00000000       0.00000000       0.12987095
Au       0.00000000       0.00000000       5.40404040       0.00000000       0.00000000      -0.12987095
2
Properties=species:S:1:pos:R:3:forces:R:3 energy=-0.6265879002952888 pbc="F F F"
Au       0.00000000       0.00000000       0.00000000       0.00000000       0.00000000       0.12524755
Au       0.00000000       0.00000000       5.46363636       0.00000000       0.00000000      -0.12524755
2
Properties=species:S:1:pos:R:3:forces:R:3 energy=-0.6191371471199005 pbc="F F F"
Au       0.00000000       0.00000000       0.00000000       0.00000000       0.00000000       0.12509701
Au       0.00000000       0.00000000       5.52323232       0.00000000       0.00000000      -0.12509701
2
Properties=species:S:1:pos:R:3:forces:R:3 energy=-0.6118038632884867 pbc="F F F"
Au       0.00000000       0.00000000       0.00000000       0.00000000       0.00000000       0.11911206
Au       0.00000000       0.00000000       5.58282828       0.00000000       0.00000000      -0.11911206
2
Properties=species:S:1:pos:R:3:forces:R:3 energy=-0.605138893121136 pbc="F F F"
Au       0.00000000       0.00000000       0.00000000       0.00000000       0.00000000       0.10362349
Au       0.00000000       0.00000000       5.64242424       0.00000000       0.00000000      -0.10362349
2
Properties=species:S:1:pos:R:3:forces:R:3 energy=-0.5994242618221127 pbc="F F F"
Au       0.00000000       0.00000000       0.00000000       0.00000000       0.00000000       0.08957291
Au       0.00000000       0.00000000       5.70202020       0.00000000       0.00000000      -0.08957291
2
Properties=species:S:1:pos:R:3:forces:R:3 energy=-0.5941889059560344 pbc="F F F"
Au       0.00000000       0.00000000       0.00000000       0.00000000       0.00000000       0.08818385
Au       0.00000000       0.00000000       5.76161616       0.00000000       0.00000000      -0.08818385
2
Properties=species:S:1:pos:R:3:forces:R:3 energy=-0.5889853720704734 pbc="F F F"
Au       0.00000000       0.00000000       0.00000000       0.00000000       0.00000000       0.08290474
Au       0.00000000       0.00000000       5.82121212       0.00000000       0.00000000      -0.08290474
2
Properties=species:S:1:pos:R:3:forces:R:3 energy=-0.5848228885864458 pbc="F F F"
Au       0.00000000       0.00000000       0.00000000       0.00000000       0.00000000       0.05394506
Au       0.00000000       0.00000000       5.88080808       0.00000000       0.00000000      -0.05394506
2
Properties=species:S:1:pos:R:3:forces:R:3 energy=-0.5826434364224164 pbc="F F F"
Au       0.00000000       0.00000000       0.00000000       0.00000000       0.00000000       0.02009208
Au       0.00000000       0.00000000       5.94040404       0.00000000       0.00000000      -0.02009208
2
Properties=species:S:1:pos:R:3:forces:R:3 energy=-0.5820113709732232 pbc="F F F"
Au       0.00000000       0.00000000       0.00000000       0.00000000       0.00000000       0.00582827
Au       0.00000000       0.00000000       6.00000000       0.00000000       0.00000000      -0.00582827
