2
Properties=species:S:1:pos:R:3:forces:R:3 energy=86465.91952374495 pbc="F F F"
Bi       0.00000000       0.00000000       0.00000000       0.00000000       0.00000000 -2372510.50000000
Bi       0.00000000       0.00000000       0.10000000       0.00000000       0.00000000 2372510.50000000
2
Properties=species:S:1:pos:R:3:forces:R:3 energy=18826.017179994942 pbc="F F F"
Bi       0.00000000       0.00000000       0.00000000       0.00000000       0.00000000 -479280.96875000
Bi       0.00000000       0.00000000       0.15959596       0.00000000       0.00000000  479280.96875000
2
Properties=species:S:1:pos:R:3:forces:R:3 energy=2769.022795229316 pbc="F F F"
Bi       0.00000000       0.00000000       0.00000000       0.00000000       0.00000000 -138206.51562500
Bi       0.00000000       0.00000000       0.21919192       0.00000000       0.00000000  138206.51562500
2
Properties=species:S:1:pos:R:3:forces:R:3 energy=-2106.735749692559 pbc="F F F"
Bi       0.00000000       0.00000000       0.00000000       0.00000000       0.00000000  -42307.82421875
Bi       0.00000000       0.00000000       0.27878788       0.00000000       0.00000000   42307.82421875
2
Properties=species:S:1:pos:R:3:forces:R:3 energy=-3363.127107111266 pbc="F F F"
Bi       0.00000000       0.00000000       0.00000000       0.00000000       0.00000000   -4660.29589844
Bi       0.00000000       0.00000000       0.33838384       0.00000000       0.00000000    4660.29589844
2
Properties=species:S:1:pos:R:3:forces:R:3 energy=-3022.47476335493 pbc="F F F"
Bi       0.00000000       0.00000000       0.00000000       0.00000000       0.00000000   14010.67285156
Bi       0.00000000       0.00000000       0.39797980       0.00000000       0.00000000  -14010.67285156
2
Properties=species:S:1:pos:R:3:forces:R:3 energy=-1911.305695965782 pbc="F F F"
Bi       0.00000000       0.00000000       0.00000000       0.00000000       0.00000000   21495.43554688
Bi       0.00000000       0.00000000       0.45757576       0.00000000       0.00000000  -21495.43554688
2
Properties=species:S:1:pos:R:3:forces:R:3 energy=-687.929048003892 pbc="F F F"
Bi       0.00000000       0.00000000       0.00000000       0.00000000       0.00000000   16672.29492188
Bi       0.00000000       0.00000000       0.51717172       0.00000000       0.00000000  -16672.29492188
2
Properties=species:S:1:pos:R:3:forces:R:3 energy=16.589130961269877 pbc="F F F"
Bi       0.00000000       0.00000000       0.00000000       0.00000000       0.00000000    7913.42382812
Bi       0.00000000       0.00000000       0.57676768       0.00000000       0.00000000   -7913.42382812
2
Properties=species:S:1:pos:R:3:forces:R:3 energy=305.8627306239175 pbc="F F F"
Bi       0.00000000       0.00000000       0.00000000       0.00000000       0.00000000    2173.18090820
Bi       0.00000000       0.00000000       0.63636364       0.00000000       0.00000000   -2173.18090820
2
Properties=species:S:1:pos:R:3:forces:R:3 energy=299.77102537134397 pbc="F F F"
Bi       0.00000000       0.00000000       0.00000000       0.00000000       0.00000000   -1581.77246094
Bi       0.00000000       0.00000000       0.69595960       0.00000000       0.00000000    1581.77246094
2
Properties=species:S:1:pos:R:3:forces:R:3 energy=235.6317432493196 pbc="F F F"
Bi       0.00000000       0.00000000       0.00000000       0.00000000       0.00000000    -626.70251465
Bi       0.00000000       0.00000000       0.75555556       0.00000000       0.00000000     626.70251465
2
Properties=species:S:1:pos:R:3:forces:R:3 energy=211.21746728149603 pbc="F F F"
Bi       0.00000000       0.00000000       0.00000000       0.00000000       0.00000000    -307.17263794
Bi       0.00000000       0.00000000       0.81515152       0.00000000       0.00000000     307.17263794
2
Properties=species:S:1:pos:R:3:forces:R:3 energy=191.37222214508327 pbc="F F F"
Bi       0.00000000       0.00000000       0.00000000       0.00000000       0.00000000    -392.27816772
Bi       0.00000000       0.00000000       0.87474747       0.00000000       0.00000000     392.27816772
2
Properties=species:S:1:pos:R:3:forces:R:3 energy=169.99348406488082 pbc="F F F"
Bi       0.00000000       0.00000000       0.00000000       0.00000000       0.00000000    -326.51736450
Bi       0.00000000       0.00000000       0.93434343       0.00000000       0.00000000     326.51736450
2
Properties=species:S:1:pos:R:3:forces:R:3 energy=151.88719178693438 pbc="F F F"
Bi       0.00000000       0.00000000       0.00000000       0.00000000       0.00000000    -286.94348145
Bi       0.00000000       0.00000000       0.99393939       0.00000000       0.00000000     286.94348145
2
Properties=species:S:1:pos:R:3:forces:R:3 energy=135.52966370229714 pbc="F F F"
Bi       0.00000000       0.00000000       0.00000000       0.00000000       0.00000000    -262.17401123
Bi       0.00000000       0.00000000       1.05353535       0.00000000       0.00000000     262.17401123
2
Properties=species:S:1:pos:R:3:forces:R:3 energy=120.43871449471695 pbc="F F F"
Bi       0.00000000       0.00000000       0.00000000       0.00000000       0.00000000    -247.85372925
Bi       0.00000000       0.00000000       1.11313131       0.00000000       0.00000000     247.85372925
2
Properties=species:S:1:pos:R:3:forces:R:3 energy=105.66342410673062 pbc="F F F"
Bi       0.00000000       0.00000000       0.00000000       0.00000000       0.00000000    -248.47694397
Bi       0.00000000       0.00000000       1.17272727       0.00000000       0.00000000     248.47694397
2
Properties=species:S:1:pos:R:3:forces:R:3 energy=90.94369129600655 pbc="F F F"
Bi       0.00000000       0.00000000       0.00000000       0.00000000       0.00000000    -243.84700012
Bi       0.00000000       0.00000000       1.23232323       0.00000000       0.00000000     243.84700012
2
Properties=species:S:1:pos:R:3:forces:R:3 energy=76.80934705851834 pbc="F F F"
Bi       0.00000000       0.00000000       0.00000000       0.00000000       0.00000000    -228.59558105
Bi       0.00000000       0.00000000       1.29191919       0.00000000       0.00000000     228.59558105
2
Properties=species:S:1:pos:R:3:forces:R:3 energy=63.95085168170752 pbc="F F F"
Bi       0.00000000       0.00000000       0.00000000       0.00000000       0.00000000    -200.73501587
Bi       0.00000000       0.00000000       1.35151515       0.00000000       0.00000000     200.73501587
2
Properties=species:S:1:pos:R:3:forces:R:3 energy=53.06441804500253 pbc="F F F"
Bi       0.00000000       0.00000000       0.00000000       0.00000000       0.00000000    -164.24845886
Bi       0.00000000       0.00000000       1.41111111       0.00000000       0.00000000     164.24845886
2
Properties=species:S:1:pos:R:3:forces:R:3 energy=44.26119891137076 pbc="F F F"
Bi       0.00000000       0.00000000       0.00000000       0.00000000       0.00000000    -133.12133789
Bi       0.00000000       0.00000000       1.47070707       0.00000000       0.00000000     133.12133789
2
Properties=species:S:1:pos:R:3:forces:R:3 energy=36.93273494754013 pbc="F F F"
Bi       0.00000000       0.00000000       0.00000000       0.00000000       0.00000000    -114.80596924
Bi       0.00000000       0.00000000       1.53030303       0.00000000       0.00000000     114.80596924
2
Properties=species:S:1:pos:R:3:forces:R:3 energy=30.435509758703116 pbc="F F F"
Bi       0.00000000       0.00000000       0.00000000       0.00000000       0.00000000    -103.58404541
Bi       0.00000000       0.00000000       1.58989899       0.00000000       0.00000000     103.58404541
2
Properties=species:S:1:pos:R:3:forces:R:3 energy=24.59084120765854 pbc="F F F"
Bi       0.00000000       0.00000000       0.00000000       0.00000000       0.00000000     -92.49389648
Bi       0.00000000       0.00000000       1.64949495       0.00000000       0.00000000      92.49389648
2
Properties=species:S:1:pos:R:3:forces:R:3 energy=19.401359724576018 pbc="F F F"
Bi       0.00000000       0.00000000       0.00000000       0.00000000       0.00000000     -81.80910492
Bi       0.00000000       0.00000000       1.70909091       0.00000000       0.00000000      81.80910492
2
Properties=species:S:1:pos:R:3:forces:R:3 energy=14.829517469185385 pbc="F F F"
Bi       0.00000000       0.00000000       0.00000000       0.00000000       0.00000000     -71.62531281
Bi       0.00000000       0.00000000       1.76868687       0.00000000       0.00000000      71.62531281
2
Properties=species:S:1:pos:R:3:forces:R:3 energy=10.867553709164602 pbc="F F F"
Bi       0.00000000       0.00000000       0.00000000       0.00000000       0.00000000     -61.31591797
Bi       0.00000000       0.00000000       1.82828283       0.00000000       0.00000000      61.31591797
2
Properties=species:S:1:pos:R:3:forces:R:3 energy=7.51799214235541 pbc="F F F"
Bi       0.00000000       0.00000000       0.00000000       0.00000000       0.00000000     -51.17440796
Bi       0.00000000       0.00000000       1.88787879       0.00000000       0.00000000      51.17440796
2
Properties=species:S:1:pos:R:3:forces:R:3 energy=4.752185710266828 pbc="F F F"
Bi       0.00000000       0.00000000       0.00000000       0.00000000       0.00000000     -41.81905746
Bi       0.00000000       0.00000000       1.94747475       0.00000000       0.00000000      41.81905746
2
Properties=species:S:1:pos:R:3:forces:R:3 energy=2.5096543861359293 pbc="F F F"
Bi       0.00000000       0.00000000       0.00000000       0.00000000       0.00000000     -33.65233994
Bi       0.00000000       0.00000000       2.00707071       0.00000000       0.00000000      33.65233994
2
Properties=species:S:1:pos:R:3:forces:R:3 energy=0.7155921299821071 pbc="F F F"
Bi       0.00000000       0.00000000       0.00000000       0.00000000       0.00000000     -26.76370621
Bi       0.00000000       0.00000000       2.06666667       0.00000000       0.00000000      26.76370621
2
Properties=species:S:1:pos:R:3:forces:R:3 energy=-0.7038193985261618 pbc="F F F"
Bi       0.00000000       0.00000000       0.00000000       0.00000000       0.00000000     -21.05493927
Bi       0.00000000       0.00000000       2.12626263       0.00000000       0.00000000      21.05493927
2
Properties=species:S:1:pos:R:3:forces:R:3 energy=-1.8144774083793989 pbc="F F F"
Bi       0.00000000       0.00000000       0.00000000       0.00000000       0.00000000     -16.37747192
Bi       0.00000000       0.00000000       2.18585859       0.00000000       0.00000000      16.37747192
2
Properties=species:S:1:pos:R:3:forces:R:3 energy=-2.6734012973359005 pbc="F F F"
Bi       0.00000000       0.00000000       0.00000000       0.00000000       0.00000000     -12.58231735
Bi       0.00000000       0.00000000       2.24545455       0.00000000       0.00000000      12.58231735
2
Properties=species:S:1:pos:R:3:forces:R:3 energy=-3.3289231547020863 pbc="F F F"
Bi       0.00000000       0.00000000       0.00000000       0.00000000       0.00000000      -9.52906036
Bi       0.00000000       0.00000000       2.30505051       0.00000000       0.00000000       9.52906036
2
Properties=species:S:1:pos:R:3:forces:R:3 energy=-3.821365949316395 pbc="F F F"
Bi       0.00000000       0.00000000       0.00000000       0.00000000       0.00000000      -7.08923912
Bi       0.00000000       0.00000000       2.36464646       0.00000000       0.00000000       7.08923912
2
Properties=species:S:1:pos:R:3:forces:R:3 energy=-4.183805728404098 pbc="F F F"
Bi       0.00000000       0.00000000       0.00000000       0.00000000       0.00000000      -5.14836025
Bi       0.00000000       0.00000000       2.42424242       0.00000000       0.00000000       5.14836025
2
Properties=species:S:1:pos:R:3:forces:R:3 energy=-4.442915544487537 pbc="F F F"
Bi       0.00000000       0.00000000       0.00000000       0.00000000       0.00000000      -3.60594535
Bi       0.00000000       0.00000000       2.48383838       0.00000000       0.00000000       3.60594535
2
Properties=species:S:1:pos:R:3:forces:R:3 energy=-4.619812229480074 pbc="F F F"
Bi       0.00000000       0.00000000       0.00000000       0.00000000       0.00000000      -2.37649250
Bi       0.00000000       0.00000000       2.54343434       0.00000000       0.00000000       2.37649250
2
Properties=species:S:1:pos:R:3:forces:R:3 energy=-4.731010678888184 pbc="F F F"
Bi       0.00000000       0.00000000       0.00000000       0.00000000       0.00000000      -1.39115894
Bi       0.00000000       0.00000000       2.60303030       0.00000000       0.00000000       1.39115894
2
Properties=species:S:1:pos:R:3:forces:R:3 energy=-4.789427972664149 pbc="F F F"
Bi       0.00000000       0.00000000       0.00000000       0.00000000       0.00000000      -0.59774107
Bi       0.00000000       0.00000000       2.66262626       0.00000000       0.00000000       0.59774107
2
Properties=species:S:1:pos:R:3:forces:R:3 energy=-4.805311837341695 pbc="F F F"
Bi       0.00000000       0.00000000       0.00000000       0.00000000       0.00000000       0.04155327
Bi       0.00000000       0.00000000       2.72222222       0.00000000       0.00000000      -0.04155327
2
Properties=species:S:1:pos:R:3:forces:R:3 energy=-4.786996909768903 pbc="F F F"
Bi       0.00000000       0.00000000       0.00000000       0.00000000       0.00000000       0.55366945
Bi       0.00000000       0.00000000       2.78181818       0.00000000       0.00000000      -0.55366945
2
Properties=species:S:1:pos:R:3:forces:R:3 energy=-4.741455471354649 pbc="F F F"
Bi       0.00000000       0.00000000       0.00000000       0.00000000       0.00000000       0.95806807
Bi       0.00000000       0.00000000       2.84141414       0.00000000       0.00000000      -0.95806807
2
Properties=species:S:1:pos:R:3:forces:R:3 energy=-4.674653692943108 pbc="F F F"
Bi       0.00000000       0.00000000       0.00000000       0.00000000       0.00000000       1.26929045
Bi       0.00000000       0.00000000       2.90101010       0.00000000       0.00000000      -1.26929045
2
Properties=species:S:1:pos:R:3:forces:R:3 energy=-4.591782869157267 pbc="F F F"
Bi       0.00000000       0.00000000       0.00000000       0.00000000       0.00000000       1.49910426
Bi       0.00000000       0.00000000       2.96060606       0.00000000       0.00000000      -1.49910426
2
Properties=species:S:1:pos:R:3:forces:R:3 energy=-4.497374917529338 pbc="F F F"
Bi       0.00000000       0.00000000       0.00000000       0.00000000       0.00000000       1.65825701
Bi       0.00000000       0.00000000       3.02020202       0.00000000       0.00000000      -1.65825701
2
Properties=species:S:1:pos:R:3:forces:R:3 energy=-4.395319954951343 pbc="F F F"
Bi       0.00000000       0.00000000       0.00000000       0.00000000       0.00000000       1.75761521
Bi       0.00000000       0.00000000       3.07979798       0.00000000       0.00000000      -1.75761521
2
Properties=species:S:1:pos:R:3:forces:R:3 energy=-4.288847925941324 pbc="F F F"
Bi       0.00000000       0.00000000       0.00000000       0.00000000       0.00000000       1.80831099
Bi       0.00000000       0.00000000       3.13939394       0.00000000       0.00000000      -1.80831099
2
Properties=species:S:1:pos:R:3:forces:R:3 energy=-4.180537432802314 pbc="F F F"
Bi       0.00000000       0.00000000       0.00000000       0.00000000       0.00000000       1.82104349
Bi       0.00000000       0.00000000       3.19898990       0.00000000       0.00000000      -1.82104349
2
Properties=species:S:1:pos:R:3:forces:R:3 energy=-4.0723621170435536 pbc="F F F"
Bi       0.00000000       0.00000000       0.00000000       0.00000000       0.00000000       1.80514181
Bi       0.00000000       0.00000000       3.25858586       0.00000000       0.00000000      -1.80514181
2
Properties=species:S:1:pos:R:3:forces:R:3 energy=-3.9657992672189395 pbc="F F F"
Bi       0.00000000       0.00000000       0.00000000       0.00000000       0.00000000       1.76801085
Bi       0.00000000       0.00000000       3.31818182       0.00000000       0.00000000      -1.76801085
2
Properties=species:S:1:pos:R:3:forces:R:3 energy=-3.8619406984136466 pbc="F F F"
Bi       0.00000000       0.00000000       0.00000000       0.00000000       0.00000000       1.71518135
Bi       0.00000000       0.00000000       3.37777778       0.00000000       0.00000000      -1.71518135
2
Properties=species:S:1:pos:R:3:forces:R:3 energy=-3.7615935106043294 pbc="F F F"
Bi       0.00000000       0.00000000       0.00000000       0.00000000       0.00000000       1.65073955
Bi       0.00000000       0.00000000       3.43737374       0.00000000       0.00000000      -1.65073955
2
Properties=species:S:1:pos:R:3:forces:R:3 energy=-3.665353244796672 pbc="F F F"
Bi       0.00000000       0.00000000       0.00000000       0.00000000       0.00000000       1.57782865
Bi       0.00000000       0.00000000       3.49696970       0.00000000       0.00000000      -1.57782865
2
Properties=species:S:1:pos:R:3:forces:R:3 energy=-3.5736466722634703 pbc="F F F"
Bi       0.00000000       0.00000000       0.00000000       0.00000000       0.00000000       1.49896049
Bi       0.00000000       0.00000000       3.55656566       0.00000000       0.00000000      -1.49896049
2
Properties=species:S:1:pos:R:3:forces:R:3 energy=-3.486768039926745 pbc="F F F"
Bi       0.00000000       0.00000000       0.00000000       0.00000000       0.00000000       1.41609299
Bi       0.00000000       0.00000000       3.61616162       0.00000000       0.00000000      -1.41609299
2
Properties=species:S:1:pos:R:3:forces:R:3 energy=-3.4049151839409477 pbc="F F F"
Bi       0.00000000       0.00000000       0.00000000       0.00000000       0.00000000       1.33046222
Bi       0.00000000       0.00000000       3.67575758       0.00000000       0.00000000      -1.33046222
2
Properties=species:S:1:pos:R:3:forces:R:3 energy=-3.328231280753458 pbc="F F F"
Bi       0.00000000       0.00000000       0.00000000       0.00000000       0.00000000       1.24263942
Bi       0.00000000       0.00000000       3.73535354       0.00000000       0.00000000      -1.24263942
2
Properties=species:S:1:pos:R:3:forces:R:3 energy=-3.256837014064437 pbc="F F F"
Bi       0.00000000       0.00000000       0.00000000       0.00000000       0.00000000       1.15304446
Bi       0.00000000       0.00000000       3.79494949       0.00000000       0.00000000      -1.15304446
2
Properties=species:S:1:pos:R:3:forces:R:3 energy=-3.190818885980807 pbc="F F F"
Bi       0.00000000       0.00000000       0.00000000       0.00000000       0.00000000       1.06239331
Bi       0.00000000       0.00000000       3.85454545       0.00000000       0.00000000      -1.06239331
2
Properties=species:S:1:pos:R:3:forces:R:3 energy=-3.1302076183906338 pbc="F F F"
Bi       0.00000000       0.00000000       0.00000000       0.00000000       0.00000000       0.97179389
Bi       0.00000000       0.00000000       3.91414141       0.00000000       0.00000000      -0.97179389
2
Properties=species:S:1:pos:R:3:forces:R:3 energy=-3.0749619417785468 pbc="F F F"
Bi       0.00000000       0.00000000       0.00000000       0.00000000       0.00000000       0.88253796
Bi       0.00000000       0.00000000       3.97373737       0.00000000       0.00000000      -0.88253796
2
Properties=species:S:1:pos:R:3:forces:R:3 energy=-3.0249643508562802 pbc="F F F"
Bi       0.00000000       0.00000000       0.00000000       0.00000000       0.00000000       0.79590976
Bi       0.00000000       0.00000000       4.03333333       0.00000000       0.00000000      -0.79590976
2
Properties=species:S:1:pos:R:3:forces:R:3 energy=-2.9800218745033034 pbc="F F F"
Bi       0.00000000       0.00000000       0.00000000       0.00000000       0.00000000       0.71300811
Bi       0.00000000       0.00000000       4.09292929       0.00000000       0.00000000      -0.71300811
2
Properties=species:S:1:pos:R:3:forces:R:3 energy=-2.939887352713228 pbc="F F F"
Bi       0.00000000       0.00000000       0.00000000       0.00000000       0.00000000       0.63470566
Bi       0.00000000       0.00000000       4.15252525       0.00000000       0.00000000      -0.63470566
2
Properties=species:S:1:pos:R:3:forces:R:3 energy=-2.9042672037086787 pbc="F F F"
Bi       0.00000000       0.00000000       0.00000000       0.00000000       0.00000000       0.56160992
Bi       0.00000000       0.00000000       4.21212121       0.00000000       0.00000000      -0.56160992
2
Properties=species:S:1:pos:R:3:forces:R:3 energy=-2.8728367095769185 pbc="F F F"
Bi       0.00000000       0.00000000       0.00000000       0.00000000       0.00000000       0.49410892
Bi       0.00000000       0.00000000       4.27171717       0.00000000       0.00000000      -0.49410892
2
Properties=species:S:1:pos:R:3:forces:R:3 energy=-2.8452574896862908 pbc="F F F"
Bi       0.00000000       0.00000000       0.00000000       0.00000000       0.00000000       0.43241432
Bi       0.00000000       0.00000000       4.33131313       0.00000000       0.00000000      -0.43241432
2
Properties=species:S:1:pos:R:3:forces:R:3 energy=-2.8211803291990316 pbc="F F F"
Bi       0.00000000       0.00000000       0.00000000       0.00000000       0.00000000       0.37657949
Bi       0.00000000       0.00000000       4.39090909       0.00000000       0.00000000      -0.37657949
2
Properties=species:S:1:pos:R:3:forces:R:3 energy=-2.8002566580091095 pbc="F F F"
Bi       0.00000000       0.00000000       0.00000000       0.00000000       0.00000000       0.32654706
Bi       0.00000000       0.00000000       4.45050505       0.00000000       0.00000000      -0.32654706
2
Properties=species:S:1:pos:R:3:forces:R:3 energy=-2.782146084270172 pbc="F F F"
Bi       0.00000000       0.00000000       0.00000000       0.00000000       0.00000000       0.28216428
Bi       0.00000000       0.00000000       4.51010101       0.00000000       0.00000000      -0.28216428
2
Properties=species:S:1:pos:R:3:forces:R:3 energy=-2.7665176728515615 pbc="F F F"
Bi       0.00000000       0.00000000       0.00000000       0.00000000       0.00000000       0.24317890
Bi       0.00000000       0.00000000       4.56969697       0.00000000       0.00000000      -0.24317890
2
Properties=species:S:1:pos:R:3:forces:R:3 energy=-2.7530603525604973 pbc="F F F"
Bi       0.00000000       0.00000000       0.00000000       0.00000000       0.00000000       0.20925605
Bi       0.00000000       0.00000000       4.62929293       0.00000000       0.00000000      -0.20925605
2
Properties=species:S:1:pos:R:3:forces:R:3 energy=-2.741483921333468 pbc="F F F"
Bi       0.00000000       0.00000000       0.00000000       0.00000000       0.00000000       0.17998233
Bi       0.00000000       0.00000000       4.68888889       0.00000000       0.00000000      -0.17998233
2
Properties=species:S:1:pos:R:3:forces:R:3 energy=-2.7315250383789267 pbc="F F F"
Bi       0.00000000       0.00000000       0.00000000       0.00000000       0.00000000       0.15487604
Bi       0.00000000       0.00000000       4.74848485       0.00000000       0.00000000      -0.15487604
2
Properties=species:S:1:pos:R:3:forces:R:3 energy=-2.7229513794953677 pbc="F F F"
Bi       0.00000000       0.00000000       0.00000000       0.00000000       0.00000000       0.13342862
Bi       0.00000000       0.00000000       4.80808081       0.00000000       0.00000000      -0.13342862
2
Properties=species:S:1:pos:R:3:forces:R:3 energy=-2.7155582960433917 pbc="F F F"
Bi       0.00000000       0.00000000       0.00000000       0.00000000       0.00000000       0.11515470
Bi       0.00000000       0.00000000       4.86767677       0.00000000       0.00000000      -0.11515470
2
Properties=species:S:1:pos:R:3:forces:R:3 energy=-2.7091699088361185 pbc="F F F"
Bi       0.00000000       0.00000000       0.00000000       0.00000000       0.00000000       0.09968036
Bi       0.00000000       0.00000000       4.92727273       0.00000000       0.00000000      -0.09968036
2
Properties=species:S:1:pos:R:3:forces:R:3 energy=-2.703625920673513 pbc="F F F"
Bi       0.00000000       0.00000000       0.00000000       0.00000000       0.00000000       0.08680613
Bi       0.00000000       0.00000000       4.98686869       0.00000000       0.00000000      -0.08680613
2
Properties=species:S:1:pos:R:3:forces:R:3 energy=-2.6987718221737116 pbc="F F F"
Bi       0.00000000       0.00000000       0.00000000       0.00000000       0.00000000       0.07655142
Bi       0.00000000       0.00000000       5.04646465       0.00000000       0.00000000      -0.07655142
2
Properties=species:S:1:pos:R:3:forces:R:3 energy=-2.6944468346277137 pbc="F F F"
Bi       0.00000000       0.00000000       0.00000000       0.00000000       0.00000000       0.06906258
Bi       0.00000000       0.00000000       5.10606061       0.00000000       0.00000000      -0.06906258
2
Properties=species:S:1:pos:R:3:forces:R:3 energy=-2.690483221670132 pbc="F F F"
Bi       0.00000000       0.00000000       0.00000000       0.00000000       0.00000000       0.06439333
Bi       0.00000000       0.00000000       5.16565657       0.00000000       0.00000000      -0.06439333
2
Properties=species:S:1:pos:R:3:forces:R:3 energy=-2.68672176431208 pbc="F F F"
Bi       0.00000000       0.00000000       0.00000000       0.00000000       0.00000000       0.06219626
Bi       0.00000000       0.00000000       5.22525253       0.00000000       0.00000000      -0.06219626
2
Properties=species:S:1:pos:R:3:forces:R:3 energy=-2.6830383640356343 pbc="F F F"
Bi       0.00000000       0.00000000       0.00000000       0.00000000       0.00000000       0.06159608
Bi       0.00000000       0.00000000       5.28484848       0.00000000       0.00000000      -0.06159608
2
Properties=species:S:1:pos:R:3:forces:R:3 energy=-2.6793717563698074 pbc="F F F"
Bi       0.00000000       0.00000000       0.00000000       0.00000000       0.00000000       0.06140774
Bi       0.00000000       0.00000000       5.34444444       0.00000000       0.00000000      -0.06140774
2
Properties=species:S:1:pos:R:3:forces:R:3 energy=-2.6757408726812235 pbc="F F F"
Bi       0.00000000       0.00000000       0.00000000       0.00000000       0.00000000       0.06006446
Bi       0.00000000       0.00000000       5.40404040       0.00000000       0.00000000      -0.06006446
2
Properties=species:S:1:pos:R:3:forces:R:3 energy=-2.672288734535252 pbc="F F F"
Bi       0.00000000       0.00000000       0.00000000       0.00000000       0.00000000       0.05488731
Bi       0.00000000       0.00000000       5.46363636       0.00000000       0.00000000      -0.05488731
2
Properties=species:S:1:pos:R:3:forces:R:3 energy=-2.669299381415122 pbc="F F F"
Bi       0.00000000       0.00000000       0.00000000       0.00000000       0.00000000       0.04497097
Bi       0.00000000       0.00000000       5.52323232       0.00000000       0.00000000      -0.04497097
2
Properties=species:S:1:pos:R:3:forces:R:3 energy=-2.66691776215361 pbc="F F F"
Bi       0.00000000       0.00000000       0.00000000       0.00000000       0.00000000       0.03553757
Bi       0.00000000       0.00000000       5.58282828       0.00000000       0.00000000      -0.03553757
2
Properties=species:S:1:pos:R:3:forces:R:3 energy=-2.6649935691798206 pbc="F F F"
Bi       0.00000000       0.00000000       0.00000000       0.00000000       0.00000000       0.02926731
Bi       0.00000000       0.00000000       5.64242424       0.00000000       0.00000000      -0.02926731
2
Properties=species:S:1:pos:R:3:forces:R:3 energy=-2.6634875465435703 pbc="F F F"
Bi       0.00000000       0.00000000       0.00000000       0.00000000       0.00000000       0.01999862
Bi       0.00000000       0.00000000       5.70202020       0.00000000       0.00000000      -0.01999862
2
Properties=species:S:1:pos:R:3:forces:R:3 energy=-2.662800076650813 pbc="F F F"
Bi       0.00000000       0.00000000       0.00000000       0.00000000       0.00000000       0.00180501
Bi       0.00000000       0.00000000       5.76161616       0.00000000       0.00000000      -0.00180501
2
Properties=species:S:1:pos:R:3:forces:R:3 energy=-2.6632397199082454 pbc="F F F"
Bi       0.00000000       0.00000000       0.00000000       0.00000000       0.00000000      -0.01425989
Bi       0.00000000       0.00000000       5.82121212       0.00000000       0.00000000       0.01425989
2
Properties=species:S:1:pos:R:3:forces:R:3 energy=-2.6640822779619016 pbc="F F F"
Bi       0.00000000       0.00000000       0.00000000       0.00000000       0.00000000      -0.01080956
Bi       0.00000000       0.00000000       5.88080808       0.00000000       0.00000000       0.01080956
2
Properties=species:S:1:pos:R:3:forces:R:3 energy=-2.6643105843733497 pbc="F F F"
Bi       0.00000000       0.00000000       0.00000000       0.00000000       0.00000000       0.00355369
Bi       0.00000000       0.00000000       5.94040404       0.00000000       0.00000000      -0.00355369
2
Properties=species:S:1:pos:R:3:forces:R:3 energy=-2.663829522128749 pbc="F F F"
Bi       0.00000000       0.00000000       0.00000000       0.00000000       0.00000000       0.01019728
Bi       0.00000000       0.00000000       6.00000000       0.00000000       0.00000000      -0.01019728
