2
Properties=species:S:1:pos:R:3:forces:R:3 energy=6809.596298085865 pbc="F F F"
Br       0.00000000       0.00000000       0.00000000       0.00000000       0.00000000  -83866.94531250
Br       0.00000000       0.00000000       0.18000000       0.00000000       0.00000000   83866.94531250
2
Properties=species:S:1:pos:R:3:forces:R:3 energy=3776.20933519524 pbc="F F F"
Br       0.00000000       0.00000000       0.00000000       0.00000000       0.00000000  -30260.64453125
Br       0.00000000       0.00000000       0.23878788       0.00000000       0.00000000   30260.64453125
2
Properties=species:S:1:pos:R:3:forces:R:3 energy=2575.45201097649 pbc="F F F"
Br       0.00000000       0.00000000       0.00000000       0.00000000       0.00000000  -13523.57812500
Br       0.00000000       0.00000000       0.29757576       0.00000000       0.00000000   13523.57812500
2
Properties=species:S:1:pos:R:3:forces:R:3 energy=1982.7136076625131 pbc="F F F"
Br       0.00000000       0.00000000       0.00000000       0.00000000       0.00000000   -7642.26757812
Br       0.00000000       0.00000000       0.35636364       0.00000000       0.00000000    7642.26757812
2
Properties=species:S:1:pos:R:3:forces:R:3 energy=1603.414901620497 pbc="F F F"
Br       0.00000000       0.00000000       0.00000000       0.00000000       0.00000000   -5621.47851562
Br       0.00000000       0.00000000       0.41515152       0.00000000       0.00000000    5621.47851562
2
Properties=species:S:1:pos:R:3:forces:R:3 energy=1306.207015900484 pbc="F F F"
Br       0.00000000       0.00000000       0.00000000       0.00000000       0.00000000   -4142.91796875
Br       0.00000000       0.00000000       0.47393939       0.00000000       0.00000000    4142.91796875
2
Properties=species:S:1:pos:R:3:forces:R:3 energy=1058.8932952417085 pbc="F F F"
Br       0.00000000       0.00000000       0.00000000       0.00000000       0.00000000   -4527.58642578
Br       0.00000000       0.00000000       0.53272727       0.00000000       0.00000000    4527.58642578
2
Properties=species:S:1:pos:R:3:forces:R:3 energy=810.4346161216854 pbc="F F F"
Br       0.00000000       0.00000000       0.00000000       0.00000000       0.00000000   -3867.92504883
Br       0.00000000       0.00000000       0.59151515       0.00000000       0.00000000    3867.92504883
2
Properties=species:S:1:pos:R:3:forces:R:3 energy=630.9138642952734 pbc="F F F"
Br       0.00000000       0.00000000       0.00000000       0.00000000       0.00000000   -1937.95434570
Br       0.00000000       0.00000000       0.65030303       0.00000000       0.00000000    1937.95434570
2
Properties=species:S:1:pos:R:3:forces:R:3 energy=532.8187717245764 pbc="F F F"
Br       0.00000000       0.00000000       0.00000000       0.00000000       0.00000000   -1673.12780762
Br       0.00000000       0.00000000       0.70909091       0.00000000       0.00000000    1673.12780762
2
Properties=species:S:1:pos:R:3:forces:R:3 energy=431.1900488841561 pbc="F F F"
Br       0.00000000       0.00000000       0.00000000       0.00000000       0.00000000   -1666.64428711
Br       0.00000000       0.00000000       0.76787879       0.00000000       0.00000000    1666.64428711
2
Properties=species:S:1:pos:R:3:forces:R:3 energy=345.4999553461819 pbc="F F F"
Br       0.00000000       0.00000000       0.00000000       0.00000000       0.00000000   -1255.26123047
Br       0.00000000       0.00000000       0.82666667       0.00000000       0.00000000    1255.26123047
2
Properties=species:S:1:pos:R:3:forces:R:3 energy=279.73396478781575 pbc="F F F"
Br       0.00000000       0.00000000       0.00000000       0.00000000       0.00000000   -1008.02020264
Br       0.00000000       0.00000000       0.88545455       0.00000000       0.00000000    1008.02020264
2
Properties=species:S:1:pos:R:3:forces:R:3 energy=225.3132351093282 pbc="F F F"
Br       0.00000000       0.00000000       0.00000000       0.00000000       0.00000000    -855.70697021
Br       0.00000000       0.00000000       0.94424242       0.00000000       0.00000000     855.70697021
2
Properties=species:S:1:pos:R:3:forces:R:3 energy=178.52942288405544 pbc="F F F"
Br       0.00000000       0.00000000       0.00000000       0.00000000       0.00000000    -726.48455811
Br       0.00000000       0.00000000       1.00303030       0.00000000       0.00000000     726.48455811
2
Properties=species:S:1:pos:R:3:forces:R:3 energy=140.58894911180528 pbc="F F F"
Br       0.00000000       0.00000000       0.00000000       0.00000000       0.00000000    -567.40954590
Br       0.00000000       0.00000000       1.06181818       0.00000000       0.00000000     567.40954590
2
Properties=species:S:1:pos:R:3:forces:R:3 energy=110.81283594031072 pbc="F F F"
Br       0.00000000       0.00000000       0.00000000       0.00000000       0.00000000    -454.71209717
Br       0.00000000       0.00000000       1.12060606       0.00000000       0.00000000     454.71209717
2
Properties=species:S:1:pos:R:3:forces:R:3 energy=86.4581101813192 pbc="F F F"
Br       0.00000000       0.00000000       0.00000000       0.00000000       0.00000000    -376.75903320
Br       0.00000000       0.00000000       1.17939394       0.00000000       0.00000000     376.75903320
2
Properties=species:S:1:pos:R:3:forces:R:3 energy=66.36017544510813 pbc="F F F"
Br       0.00000000       0.00000000       0.00000000       0.00000000       0.00000000    -307.36132812
Br       0.00000000       0.00000000       1.23818182       0.00000000       0.00000000     307.36132812
2
Properties=species:S:1:pos:R:3:forces:R:3 energy=50.20773355455331 pbc="F F F"
Br       0.00000000       0.00000000       0.00000000       0.00000000       0.00000000    -244.11886597
Br       0.00000000       0.00000000       1.29696970       0.00000000       0.00000000     244.11886597
2
Properties=species:S:1:pos:R:3:forces:R:3 energy=37.41404615447998 pbc="F F F"
Br       0.00000000       0.00000000       0.00000000       0.00000000       0.00000000    -192.70285034
Br       0.00000000       0.00000000       1.35575758       0.00000000       0.00000000     192.70285034
2
Properties=species:S:1:pos:R:3:forces:R:3 energy=27.41204350049317 pbc="F F F"
Br       0.00000000       0.00000000       0.00000000       0.00000000       0.00000000    -148.65859985
Br       0.00000000       0.00000000       1.41454545       0.00000000       0.00000000     148.65859985
2
Properties=species:S:1:pos:R:3:forces:R:3 energy=19.79350179086884 pbc="F F F"
Br       0.00000000       0.00000000       0.00000000       0.00000000       0.00000000    -111.86680603
Br       0.00000000       0.00000000       1.47333333       0.00000000       0.00000000     111.86680603
2
Properties=species:S:1:pos:R:3:forces:R:3 energy=14.093944804518356 pbc="F F F"
Br       0.00000000       0.00000000       0.00000000       0.00000000       0.00000000     -83.43220520
Br       0.00000000       0.00000000       1.53212121       0.00000000       0.00000000      83.43220520
2
Properties=species:S:1:pos:R:3:forces:R:3 energy=9.834710433903467 pbc="F F F"
Br       0.00000000       0.00000000       0.00000000       0.00000000       0.00000000     -62.56265640
Br       0.00000000       0.00000000       1.59090909       0.00000000       0.00000000      62.56265640
2
Properties=species:S:1:pos:R:3:forces:R:3 energy=6.631227605088708 pbc="F F F"
Br       0.00000000       0.00000000       0.00000000       0.00000000       0.00000000     -47.16692352
Br       0.00000000       0.00000000       1.64969697       0.00000000       0.00000000      47.16692352
2
Properties=species:S:1:pos:R:3:forces:R:3 energy=4.216297779130749 pbc="F F F"
Br       0.00000000       0.00000000       0.00000000       0.00000000       0.00000000     -35.50511169
Br       0.00000000       0.00000000       1.70848485       0.00000000       0.00000000      35.50511169
2
Properties=species:S:1:pos:R:3:forces:R:3 energy=2.405073719854081 pbc="F F F"
Br       0.00000000       0.00000000       0.00000000       0.00000000       0.00000000     -26.49107361
Br       0.00000000       0.00000000       1.76727273       0.00000000       0.00000000      26.49107361
2
Properties=species:S:1:pos:R:3:forces:R:3 energy=1.0626621792988642 pbc="F F F"
Br       0.00000000       0.00000000       0.00000000       0.00000000       0.00000000     -19.47149467
Br       0.00000000       0.00000000       1.82606061       0.00000000       0.00000000      19.47149467
2
Properties=species:S:1:pos:R:3:forces:R:3 energy=0.08486870850910916 pbc="F F F"
Br       0.00000000       0.00000000       0.00000000       0.00000000       0.00000000     -14.02855682
Br       0.00000000       0.00000000       1.88484848       0.00000000       0.00000000      14.02855682
2
Properties=species:S:1:pos:R:3:forces:R:3 energy=-0.6116267376470749 pbc="F F F"
Br       0.00000000       0.00000000       0.00000000       0.00000000       0.00000000      -9.85585785
Br       0.00000000       0.00000000       1.94363636       0.00000000       0.00000000       9.85585785
2
Properties=species:S:1:pos:R:3:forces:R:3 energy=-1.0937500901400217 pbc="F F F"
Br       0.00000000       0.00000000       0.00000000       0.00000000       0.00000000      -6.69465399
Br       0.00000000       0.00000000       2.00242424       0.00000000       0.00000000       6.69465399
2
Properties=species:S:1:pos:R:3:forces:R:3 energy=-1.4139355329637373 pbc="F F F"
Br       0.00000000       0.00000000       0.00000000       0.00000000       0.00000000      -4.30931664
Br       0.00000000       0.00000000       2.06121212       0.00000000       0.00000000       4.30931664
2
Properties=species:S:1:pos:R:3:forces:R:3 energy=-1.6115861771446116 pbc="F F F"
Br       0.00000000       0.00000000       0.00000000       0.00000000       0.00000000      -2.49563479
Br       0.00000000       0.00000000       2.12000000       0.00000000       0.00000000       2.49563479
2
Properties=species:S:1:pos:R:3:forces:R:3 energy=-1.7155297130854956 pbc="F F F"
Br       0.00000000       0.00000000       0.00000000       0.00000000       0.00000000      -1.10074365
Br       0.00000000       0.00000000       2.17878788       0.00000000       0.00000000       1.10074365
2
Properties=species:S:1:pos:R:3:forces:R:3 energy=-1.7473333819055537 pbc="F F F"
Br       0.00000000       0.00000000       0.00000000       0.00000000       0.00000000      -0.03033074
Br       0.00000000       0.00000000       2.23757576       0.00000000       0.00000000       0.03033074
2
Properties=species:S:1:pos:R:3:forces:R:3 energy=-1.724512154847587 pbc="F F F"
Br       0.00000000       0.00000000       0.00000000       0.00000000       0.00000000       0.76270789
Br       0.00000000       0.00000000       2.29636364       0.00000000       0.00000000      -0.76270789
2
Properties=species:S:1:pos:R:3:forces:R:3 energy=-1.6626740236527893 pbc="F F F"
Br       0.00000000       0.00000000       0.00000000       0.00000000       0.00000000       1.29967380
Br       0.00000000       0.00000000       2.35515152       0.00000000       0.00000000      -1.29967380
2
Properties=species:S:1:pos:R:3:forces:R:3 energy=-1.5764059608328662 pbc="F F F"
Br       0.00000000       0.00000000       0.00000000       0.00000000       0.00000000       1.59700799
Br       0.00000000       0.00000000       2.41393939       0.00000000       0.00000000      -1.59700799
2
Properties=species:S:1:pos:R:3:forces:R:3 energy=-1.479116290143206 pbc="F F F"
Br       0.00000000       0.00000000       0.00000000       0.00000000       0.00000000       1.67977655
Br       0.00000000       0.00000000       2.47272727       0.00000000       0.00000000      -1.67977655
2
Properties=species:S:1:pos:R:3:forces:R:3 energy=-1.3823630994594152 pbc="F F F"
Br       0.00000000       0.00000000       0.00000000       0.00000000       0.00000000       1.58649647
Br       0.00000000       0.00000000       2.53151515       0.00000000       0.00000000      -1.58649647
2
Properties=species:S:1:pos:R:3:forces:R:3 energy=-1.2950424370188152 pbc="F F F"
Br       0.00000000       0.00000000       0.00000000       0.00000000       0.00000000       1.36800694
Br       0.00000000       0.00000000       2.59030303       0.00000000       0.00000000      -1.36800694
2
Properties=species:S:1:pos:R:3:forces:R:3 energy=-1.2228340884263873 pbc="F F F"
Br       0.00000000       0.00000000       0.00000000       0.00000000       0.00000000       1.08228719
Br       0.00000000       0.00000000       2.64909091       0.00000000       0.00000000      -1.08228719
2
Properties=species:S:1:pos:R:3:forces:R:3 energy=-1.16799551214239 pbc="F F F"
Br       0.00000000       0.00000000       0.00000000       0.00000000       0.00000000       0.78582311
Br       0.00000000       0.00000000       2.70787879       0.00000000       0.00000000      -0.78582311
2
Properties=species:S:1:pos:R:3:forces:R:3 energy=-1.1297574579324299 pbc="F F F"
Br       0.00000000       0.00000000       0.00000000       0.00000000       0.00000000       0.52362359
Br       0.00000000       0.00000000       2.76666667       0.00000000       0.00000000      -0.52362359
2
Properties=species:S:1:pos:R:3:forces:R:3 energy=-1.1052227285469094 pbc="F F F"
Br       0.00000000       0.00000000       0.00000000       0.00000000       0.00000000       0.32239559
Br       0.00000000       0.00000000       2.82545455       0.00000000       0.00000000      -0.32239559
2
Properties=species:S:1:pos:R:3:forces:R:3 energy=-1.0904936841882702 pbc="F F F"
Br       0.00000000       0.00000000       0.00000000       0.00000000       0.00000000       0.18995653
Br       0.00000000       0.00000000       2.88424242       0.00000000       0.00000000      -0.18995653
2
Properties=species:S:1:pos:R:3:forces:R:3 energy=-1.0816580318198064 pbc="F F F"
Br       0.00000000       0.00000000       0.00000000       0.00000000       0.00000000       0.12005381
Br       0.00000000       0.00000000       2.94303030       0.00000000       0.00000000      -0.12005381
2
Properties=species:S:1:pos:R:3:forces:R:3 energy=-1.0754229247520297 pbc="F F F"
Br       0.00000000       0.00000000       0.00000000       0.00000000       0.00000000       0.09882177
Br       0.00000000       0.00000000       3.00181818       0.00000000       0.00000000      -0.09882177
2
Properties=species:S:1:pos:R:3:forces:R:3 energy=-1.0694004962662604 pbc="F F F"
Br       0.00000000       0.00000000       0.00000000       0.00000000       0.00000000       0.11022827
Br       0.00000000       0.00000000       3.06060606       0.00000000       0.00000000      -0.11022827
2
Properties=species:S:1:pos:R:3:forces:R:3 energy=-1.062113122629679 pbc="F F F"
Br       0.00000000       0.00000000       0.00000000       0.00000000       0.00000000       0.13959546
Br       0.00000000       0.00000000       3.11939394       0.00000000       0.00000000      -0.13959546
2
Properties=species:S:1:pos:R:3:forces:R:3 energy=-1.0528647140030378 pbc="F F F"
Br       0.00000000       0.00000000       0.00000000       0.00000000       0.00000000       0.17532143
Br       0.00000000       0.00000000       3.17818182       0.00000000       0.00000000      -0.17532143
2
Properties=species:S:1:pos:R:3:forces:R:3 energy=-1.0415350902392233 pbc="F F F"
Br       0.00000000       0.00000000       0.00000000       0.00000000       0.00000000       0.20936339
Br       0.00000000       0.00000000       3.23696970       0.00000000       0.00000000      -0.20936339
2
Properties=species:S:1:pos:R:3:forces:R:3 energy=-1.028375060483219 pbc="F F F"
Br       0.00000000       0.00000000       0.00000000       0.00000000       0.00000000       0.23706904
Br       0.00000000       0.00000000       3.29575758       0.00000000       0.00000000      -0.23706904
2
Properties=species:S:1:pos:R:3:forces:R:3 energy=-1.0138230832290942 pbc="F F F"
Br       0.00000000       0.00000000       0.00000000       0.00000000       0.00000000       0.25658312
Br       0.00000000       0.00000000       3.35454545       0.00000000       0.00000000      -0.25658312
2
Properties=species:S:1:pos:R:3:forces:R:3 energy=-0.9983662364503171 pbc="F F F"
Br       0.00000000       0.00000000       0.00000000       0.00000000       0.00000000       0.26799881
Br       0.00000000       0.00000000       3.41333333       0.00000000       0.00000000      -0.26799881
2
Properties=species:S:1:pos:R:3:forces:R:3 energy=-0.9824486757847388 pbc="F F F"
Br       0.00000000       0.00000000       0.00000000       0.00000000       0.00000000       0.27251849
Br       0.00000000       0.00000000       3.47212121       0.00000000       0.00000000      -0.27251849
2
Properties=species:S:1:pos:R:3:forces:R:3 energy=-0.9664276301316053 pbc="F F F"
Br       0.00000000       0.00000000       0.00000000       0.00000000       0.00000000       0.27179736
Br       0.00000000       0.00000000       3.53090909       0.00000000       0.00000000      -0.27179736
2
Properties=species:S:1:pos:R:3:forces:R:3 energy=-0.9505617368121447 pbc="F F F"
Br       0.00000000       0.00000000       0.00000000       0.00000000       0.00000000       0.26750138
Br       0.00000000       0.00000000       3.58969697       0.00000000       0.00000000      -0.26750138
2
Properties=species:S:1:pos:R:3:forces:R:3 energy=-0.9350174697836963 pbc="F F F"
Br       0.00000000       0.00000000       0.00000000       0.00000000       0.00000000       0.26106697
Br       0.00000000       0.00000000       3.64848485       0.00000000       0.00000000      -0.26106697
2
Properties=species:S:1:pos:R:3:forces:R:3 energy=-0.919887389580371 pbc="F F F"
Br       0.00000000       0.00000000       0.00000000       0.00000000       0.00000000       0.25357097
Br       0.00000000       0.00000000       3.70727273       0.00000000       0.00000000      -0.25357097
2
Properties=species:S:1:pos:R:3:forces:R:3 energy=-0.9052102310782772 pbc="F F F"
Br       0.00000000       0.00000000       0.00000000       0.00000000       0.00000000       0.24571837
Br       0.00000000       0.00000000       3.76606061       0.00000000       0.00000000      -0.24571837
2
Properties=species:S:1:pos:R:3:forces:R:3 energy=-0.8909962089590202 pbc="F F F"
Br       0.00000000       0.00000000       0.00000000       0.00000000       0.00000000       0.23788612
Br       0.00000000       0.00000000       3.82484848       0.00000000       0.00000000      -0.23788612
2
Properties=species:S:1:pos:R:3:forces:R:3 energy=-0.8772378509158756 pbc="F F F"
Br       0.00000000       0.00000000       0.00000000       0.00000000       0.00000000       0.23020287
Br       0.00000000       0.00000000       3.88363636       0.00000000       0.00000000      -0.23020287
2
Properties=species:S:1:pos:R:3:forces:R:3 energy=-0.8639268883589749 pbc="F F F"
Br       0.00000000       0.00000000       0.00000000       0.00000000       0.00000000       0.22267342
Br       0.00000000       0.00000000       3.94242424       0.00000000       0.00000000      -0.22267342
2
Properties=species:S:1:pos:R:3:forces:R:3 energy=-0.8510541782196872 pbc="F F F"
Br       0.00000000       0.00000000       0.00000000       0.00000000       0.00000000       0.21528611
Br       0.00000000       0.00000000       4.00121212       0.00000000       0.00000000      -0.21528611
2
Properties=species:S:1:pos:R:3:forces:R:3 energy=-0.8386104893143372 pbc="F F F"
Br       0.00000000       0.00000000       0.00000000       0.00000000       0.00000000       0.20809846
Br       0.00000000       0.00000000       4.06000000       0.00000000       0.00000000      -0.20809846
2
Properties=species:S:1:pos:R:3:forces:R:3 energy=-0.8265796846559703 pbc="F F F"
Br       0.00000000       0.00000000       0.00000000       0.00000000       0.00000000       0.20128562
Br       0.00000000       0.00000000       4.11878788       0.00000000       0.00000000      -0.20128562
2
Properties=species:S:1:pos:R:3:forces:R:3 energy=-0.8149316289175828 pbc="F F F"
Br       0.00000000       0.00000000       0.00000000       0.00000000       0.00000000       0.19513117
Br       0.00000000       0.00000000       4.17757576       0.00000000       0.00000000      -0.19513117
2
Properties=species:S:1:pos:R:3:forces:R:3 energy=-0.80361715888323 pbc="F F F"
Br       0.00000000       0.00000000       0.00000000       0.00000000       0.00000000       0.18998151
Br       0.00000000       0.00000000       4.23636364       0.00000000       0.00000000      -0.18998151
2
Properties=species:S:1:pos:R:3:forces:R:3 energy=-0.7925677895925597 pbc="F F F"
Br       0.00000000       0.00000000       0.00000000       0.00000000       0.00000000       0.18616818
Br       0.00000000       0.00000000       4.29515152       0.00000000       0.00000000      -0.18616818
2
Properties=species:S:1:pos:R:3:forces:R:3 energy=-0.7816973484248217 pbc="F F F"
Br       0.00000000       0.00000000       0.00000000       0.00000000       0.00000000       0.18393435
Br       0.00000000       0.00000000       4.35393939       0.00000000       0.00000000      -0.18393435
2
Properties=species:S:1:pos:R:3:forces:R:3 energy=-0.7709089888560431 pbc="F F F"
Br       0.00000000       0.00000000       0.00000000       0.00000000       0.00000000       0.18336202
Br       0.00000000       0.00000000       4.41272727       0.00000000       0.00000000      -0.18336202
2
Properties=species:S:1:pos:R:3:forces:R:3 energy=-0.760107967235809 pbc="F F F"
Br       0.00000000       0.00000000       0.00000000       0.00000000       0.00000000       0.18433793
Br       0.00000000       0.00000000       4.47151515       0.00000000       0.00000000      -0.18433793
2
Properties=species:S:1:pos:R:3:forces:R:3 energy=-0.7492113694317389 pbc="F F F"
Br       0.00000000       0.00000000       0.00000000       0.00000000       0.00000000       0.18652774
Br       0.00000000       0.00000000       4.53030303       0.00000000       0.00000000      -0.18652774
2
Properties=species:S:1:pos:R:3:forces:R:3 energy=-0.7381632345701489 pbc="F F F"
Br       0.00000000       0.00000000       0.00000000       0.00000000       0.00000000       0.18940057
Br       0.00000000       0.00000000       4.58909091       0.00000000       0.00000000      -0.18940057
2
Properties=species:S:1:pos:R:3:forces:R:3 energy=-0.7269425268033164 pbc="F F F"
Br       0.00000000       0.00000000       0.00000000       0.00000000       0.00000000       0.19227381
Br       0.00000000       0.00000000       4.64787879       0.00000000       0.00000000      -0.19227381
2
Properties=species:S:1:pos:R:3:forces:R:3 energy=-0.7155705611314767 pbc="F F F"
Br       0.00000000       0.00000000       0.00000000       0.00000000       0.00000000       0.19441395
Br       0.00000000       0.00000000       4.70666667       0.00000000       0.00000000      -0.19441395
2
Properties=species:S:1:pos:R:3:forces:R:3 energy=-0.7041111010213327 pbc="F F F"
Br       0.00000000       0.00000000       0.00000000       0.00000000       0.00000000       0.19518475
Br       0.00000000       0.00000000       4.76545455       0.00000000       0.00000000      -0.19518475
2
Properties=species:S:1:pos:R:3:forces:R:3 energy=-0.6926551956515925 pbc="F F F"
Br       0.00000000       0.00000000       0.00000000       0.00000000       0.00000000       0.19424392
Br       0.00000000       0.00000000       4.82424242       0.00000000       0.00000000      -0.19424392
2
Properties=species:S:1:pos:R:3:forces:R:3 energy=-0.6813040096075167 pbc="F F F"
Br       0.00000000       0.00000000       0.00000000       0.00000000       0.00000000       0.19176368
Br       0.00000000       0.00000000       4.88303030       0.00000000       0.00000000      -0.19176368
2
Properties=species:S:1:pos:R:3:forces:R:3 energy=-0.6701218789714569 pbc="F F F"
Br       0.00000000       0.00000000       0.00000000       0.00000000       0.00000000       0.18863769
Br       0.00000000       0.00000000       4.94181818       0.00000000       0.00000000      -0.18863769
2
Properties=species:S:1:pos:R:3:forces:R:3 energy=-0.6591033990555383 pbc="F F F"
Br       0.00000000       0.00000000       0.00000000       0.00000000       0.00000000       0.18655953
Br       0.00000000       0.00000000       5.00060606       0.00000000       0.00000000      -0.18655953
2
Properties=species:S:1:pos:R:3:forces:R:3 energy=-0.6481200740768285 pbc="F F F"
Br       0.00000000       0.00000000       0.00000000       0.00000000       0.00000000       0.18788029
Br       0.00000000       0.00000000       5.05939394       0.00000000       0.00000000      -0.18788029
2
Properties=species:S:1:pos:R:3:forces:R:3 energy=-0.6368983842319714 pbc="F F F"
Br       0.00000000       0.00000000       0.00000000       0.00000000       0.00000000       0.19503151
Br       0.00000000       0.00000000       5.11818182       0.00000000       0.00000000      -0.19503151
2
Properties=species:S:1:pos:R:3:forces:R:3 energy=-0.6250467772858023 pbc="F F F"
Br       0.00000000       0.00000000       0.00000000       0.00000000       0.00000000       0.20940810
Br       0.00000000       0.00000000       5.17696970       0.00000000       0.00000000      -0.20940810
2
Properties=species:S:1:pos:R:3:forces:R:3 energy=-0.6121576087490017 pbc="F F F"
Br       0.00000000       0.00000000       0.00000000       0.00000000       0.00000000       0.22981916
Br       0.00000000       0.00000000       5.23575758       0.00000000       0.00000000      -0.22981916
2
Properties=species:S:1:pos:R:3:forces:R:3 energy=-0.5980082859634344 pbc="F F F"
Br       0.00000000       0.00000000       0.00000000       0.00000000       0.00000000       0.25104082
Br       0.00000000       0.00000000       5.29454545       0.00000000       0.00000000      -0.25104082
2
Properties=species:S:1:pos:R:3:forces:R:3 energy=-0.5827884833838985 pbc="F F F"
Br       0.00000000       0.00000000       0.00000000       0.00000000       0.00000000       0.26482767
Br       0.00000000       0.00000000       5.35333333       0.00000000       0.00000000      -0.26482767
2
Properties=species:S:1:pos:R:3:forces:R:3 energy=-0.56708883709853 pbc="F F F"
Br       0.00000000       0.00000000       0.00000000       0.00000000       0.00000000       0.26807347
Br       0.00000000       0.00000000       5.41212121       0.00000000       0.00000000      -0.26807347
2
Properties=species:S:1:pos:R:3:forces:R:3 energy=-0.5512190847196157 pbc="F F F"
Br       0.00000000       0.00000000       0.00000000       0.00000000       0.00000000       0.27383932
Br       0.00000000       0.00000000       5.47090909       0.00000000       0.00000000      -0.27383932
2
Properties=species:S:1:pos:R:3:forces:R:3 energy=-0.5346817670616262 pbc="F F F"
Br       0.00000000       0.00000000       0.00000000       0.00000000       0.00000000       0.28843620
Br       0.00000000       0.00000000       5.52969697       0.00000000       0.00000000      -0.28843620
2
Properties=species:S:1:pos:R:3:forces:R:3 energy=-0.5177161017105218 pbc="F F F"
Br       0.00000000       0.00000000       0.00000000       0.00000000       0.00000000       0.28319216
Br       0.00000000       0.00000000       5.58848485       0.00000000       0.00000000      -0.28319216
2
Properties=species:S:1:pos:R:3:forces:R:3 energy=-0.5019646298813201 pbc="F F F"
Br       0.00000000       0.00000000       0.00000000       0.00000000       0.00000000       0.24982864
Br       0.00000000       0.00000000       5.64727273       0.00000000       0.00000000      -0.24982864
2
Properties=species:S:1:pos:R:3:forces:R:3 energy=-0.4882889279745897 pbc="F F F"
Br       0.00000000       0.00000000       0.00000000       0.00000000       0.00000000       0.21971695
Br       0.00000000       0.00000000       5.70606061       0.00000000       0.00000000      -0.21971695
2
Properties=species:S:1:pos:R:3:forces:R:3 energy=-0.47543480086249545 pbc="F F F"
Br       0.00000000       0.00000000       0.00000000       0.00000000       0.00000000       0.22077987
Br       0.00000000       0.00000000       5.76484848       0.00000000       0.00000000      -0.22077987
2
Properties=species:S:1:pos:R:3:forces:R:3 energy=-0.46265013214253237 pbc="F F F"
Br       0.00000000       0.00000000       0.00000000       0.00000000       0.00000000       0.20529473
Br       0.00000000       0.00000000       5.82363636       0.00000000       0.00000000      -0.20529473
2
Properties=species:S:1:pos:R:3:forces:R:3 energy=-0.4526512055273523 pbc="F F F"
Br       0.00000000       0.00000000       0.00000000       0.00000000       0.00000000       0.12738515
Br       0.00000000       0.00000000       5.88242424       0.00000000       0.00000000      -0.12738515
2
Properties=species:S:1:pos:R:3:forces:R:3 energy=-0.4478689413450988 pbc="F F F"
Br       0.00000000       0.00000000       0.00000000       0.00000000       0.00000000       0.03899126
Br       0.00000000       0.00000000       5.94121212       0.00000000       0.00000000      -0.03899126
2
Properties=species:S:1:pos:R:3:forces:R:3 energy=-0.44699283467971823 pbc="F F F"
Br       0.00000000       0.00000000       0.00000000       0.00000000       0.00000000       0.00273432
Br       0.00000000       0.00000000       6.00000000       0.00000000       0.00000000      -0.00273432
