2
Properties=species:S:1:pos:R:3:forces:R:3 energy=94591.65640375527 pbc="F F F"
Dy       0.00000000       0.00000000       0.00000000       0.00000000       0.00000000 -1623752.25000000
Dy       0.00000000       0.00000000       0.10000000       0.00000000       0.00000000 1623752.25000000
2
Properties=species:S:1:pos:R:3:forces:R:3 energy=47625.632966255274 pbc="F F F"
Dy       0.00000000       0.00000000       0.00000000       0.00000000       0.00000000 -341146.56250000
Dy       0.00000000       0.00000000       0.15959596       0.00000000       0.00000000  341146.56250000
2
Properties=species:S:1:pos:R:3:forces:R:3 energy=35883.015778755274 pbc="F F F"
Dy       0.00000000       0.00000000       0.00000000       0.00000000       0.00000000 -107738.59375000
Dy       0.00000000       0.00000000       0.21919192       0.00000000       0.00000000  107738.59375000
2
Properties=species:S:1:pos:R:3:forces:R:3 energy=31592.18374750527 pbc="F F F"
Dy       0.00000000       0.00000000       0.00000000       0.00000000       0.00000000  -48974.51171875
Dy       0.00000000       0.00000000       0.27878788       0.00000000       0.00000000   48974.51171875
2
Properties=species:S:1:pos:R:3:forces:R:3 energy=29167.27945064294 pbc="F F F"
Dy       0.00000000       0.00000000       0.00000000       0.00000000       0.00000000  -36692.72265625
Dy       0.00000000       0.00000000       0.33838384       0.00000000       0.00000000   36692.72265625
2
Properties=species:S:1:pos:R:3:forces:R:3 energy=26876.84585689294 pbc="F F F"
Dy       0.00000000       0.00000000       0.00000000       0.00000000       0.00000000  -42115.98046875
Dy       0.00000000       0.00000000       0.39797980       0.00000000       0.00000000   42115.98046875
2
Properties=species:S:1:pos:R:3:forces:R:3 energy=23990.324372530613 pbc="F F F"
Dy       0.00000000       0.00000000       0.00000000       0.00000000       0.00000000  -55544.82031250
Dy       0.00000000       0.00000000       0.45757576       0.00000000       0.00000000   55544.82031250
2
Properties=species:S:1:pos:R:3:forces:R:3 energy=20222.047028793284 pbc="F F F"
Dy       0.00000000       0.00000000       0.00000000       0.00000000       0.00000000  -70676.26562500
Dy       0.00000000       0.00000000       0.51717172       0.00000000       0.00000000   70676.26562500
2
Properties=species:S:1:pos:R:3:forces:R:3 energy=15663.562653805955 pbc="F F F"
Dy       0.00000000       0.00000000       0.00000000       0.00000000       0.00000000  -80917.09375000
Dy       0.00000000       0.00000000       0.57676768       0.00000000       0.00000000   80917.09375000
2
Properties=species:S:1:pos:R:3:forces:R:3 energy=10799.626130419141 pbc="F F F"
Dy       0.00000000       0.00000000       0.00000000       0.00000000       0.00000000  -80087.88281250
Dy       0.00000000       0.00000000       0.63636364       0.00000000       0.00000000   80087.88281250
2
Properties=species:S:1:pos:R:3:forces:R:3 energy=6389.782868776419 pbc="F F F"
Dy       0.00000000       0.00000000       0.00000000       0.00000000       0.00000000  -65818.96875000
Dy       0.00000000       0.00000000       0.69595960       0.00000000       0.00000000   65818.96875000
2
Properties=species:S:1:pos:R:3:forces:R:3 energy=3133.093415752789 pbc="F F F"
Dy       0.00000000       0.00000000       0.00000000       0.00000000       0.00000000  -42771.78515625
Dy       0.00000000       0.00000000       0.75555556       0.00000000       0.00000000   42771.78515625
2
Properties=species:S:1:pos:R:3:forces:R:3 energy=1266.5807205923445 pbc="F F F"
Dy       0.00000000       0.00000000       0.00000000       0.00000000       0.00000000  -20898.51562500
Dy       0.00000000       0.00000000       0.81515152       0.00000000       0.00000000   20898.51562500
2
Properties=species:S:1:pos:R:3:forces:R:3 energy=459.9973468096616 pbc="F F F"
Dy       0.00000000       0.00000000       0.00000000       0.00000000       0.00000000   -8077.02441406
Dy       0.00000000       0.00000000       0.87474747       0.00000000       0.00000000    8077.02441406
2
Properties=species:S:1:pos:R:3:forces:R:3 energy=184.19708468794323 pbc="F F F"
Dy       0.00000000       0.00000000       0.00000000       0.00000000       0.00000000   -2232.80419922
Dy       0.00000000       0.00000000       0.93434343       0.00000000       0.00000000    2232.80419922
2
Properties=species:S:1:pos:R:3:forces:R:3 energy=127.71164202887523 pbc="F F F"
Dy       0.00000000       0.00000000       0.00000000       0.00000000       0.00000000    -202.20919800
Dy       0.00000000       0.00000000       0.99393939       0.00000000       0.00000000     202.20919800
2
Properties=species:S:1:pos:R:3:forces:R:3 energy=112.06345691978791 pbc="F F F"
Dy       0.00000000       0.00000000       0.00000000       0.00000000       0.00000000    -295.08096313
Dy       0.00000000       0.00000000       1.05353535       0.00000000       0.00000000     295.08096313
2
Properties=species:S:1:pos:R:3:forces:R:3 energy=94.0800669353162 pbc="F F F"
Dy       0.00000000       0.00000000       0.00000000       0.00000000       0.00000000    -322.63754272
Dy       0.00000000       0.00000000       1.11313131       0.00000000       0.00000000     322.63754272
2
Properties=species:S:1:pos:R:3:forces:R:3 energy=76.6602148145978 pbc="F F F"
Dy       0.00000000       0.00000000       0.00000000       0.00000000       0.00000000    -251.61172485
Dy       0.00000000       0.00000000       1.17272727       0.00000000       0.00000000     251.61172485
2
Properties=species:S:1:pos:R:3:forces:R:3 energy=63.667929551653216 pbc="F F F"
Dy       0.00000000       0.00000000       0.00000000       0.00000000       0.00000000    -189.79260254
Dy       0.00000000       0.00000000       1.23232323       0.00000000       0.00000000     189.79260254
2
Properties=species:S:1:pos:R:3:forces:R:3 energy=53.44651870495608 pbc="F F F"
Dy       0.00000000       0.00000000       0.00000000       0.00000000       0.00000000    -156.59942627
Dy       0.00000000       0.00000000       1.29191919       0.00000000       0.00000000     156.59942627
2
Properties=species:S:1:pos:R:3:forces:R:3 energy=44.79110260246322 pbc="F F F"
Dy       0.00000000       0.00000000       0.00000000       0.00000000       0.00000000    -134.58653259
Dy       0.00000000       0.00000000       1.35151515       0.00000000       0.00000000     134.58653259
2
Properties=species:S:1:pos:R:3:forces:R:3 energy=37.35010742679573 pbc="F F F"
Dy       0.00000000       0.00000000       0.00000000       0.00000000       0.00000000    -115.71800232
Dy       0.00000000       0.00000000       1.41111111       0.00000000       0.00000000     115.71800232
2
Properties=species:S:1:pos:R:3:forces:R:3 energy=30.900354415798525 pbc="F F F"
Dy       0.00000000       0.00000000       0.00000000       0.00000000       0.00000000    -101.57471466
Dy       0.00000000       0.00000000       1.47070707       0.00000000       0.00000000     101.57471466
2
Properties=species:S:1:pos:R:3:forces:R:3 energy=25.184824678558318 pbc="F F F"
Dy       0.00000000       0.00000000       0.00000000       0.00000000       0.00000000     -90.27748871
Dy       0.00000000       0.00000000       1.53030303       0.00000000       0.00000000      90.27748871
2
Properties=species:S:1:pos:R:3:forces:R:3 energy=20.166523407705967 pbc="F F F"
Dy       0.00000000       0.00000000       0.00000000       0.00000000       0.00000000     -77.87922668
Dy       0.00000000       0.00000000       1.58989899       0.00000000       0.00000000      77.87922668
2
Properties=species:S:1:pos:R:3:forces:R:3 energy=15.907552195460406 pbc="F F F"
Dy       0.00000000       0.00000000       0.00000000       0.00000000       0.00000000     -65.23578644
Dy       0.00000000       0.00000000       1.64949495       0.00000000       0.00000000      65.23578644
2
Properties=species:S:1:pos:R:3:forces:R:3 energy=12.354209805791552 pbc="F F F"
Dy       0.00000000       0.00000000       0.00000000       0.00000000       0.00000000     -54.34931946
Dy       0.00000000       0.00000000       1.70909091       0.00000000       0.00000000      54.34931946
2
Properties=species:S:1:pos:R:3:forces:R:3 energy=9.394271925939043 pbc="F F F"
Dy       0.00000000       0.00000000       0.00000000       0.00000000       0.00000000     -45.23422623
Dy       0.00000000       0.00000000       1.76868687       0.00000000       0.00000000      45.23422623
2
Properties=species:S:1:pos:R:3:forces:R:3 energy=6.936877011995887 pbc="F F F"
Dy       0.00000000       0.00000000       0.00000000       0.00000000       0.00000000     -37.42276001
Dy       0.00000000       0.00000000       1.82828283       0.00000000       0.00000000      37.42276001
2
Properties=species:S:1:pos:R:3:forces:R:3 energy=4.914302081170765 pbc="F F F"
Dy       0.00000000       0.00000000       0.00000000       0.00000000       0.00000000     -30.59364700
Dy       0.00000000       0.00000000       1.88787879       0.00000000       0.00000000      30.59364700
2
Properties=species:S:1:pos:R:3:forces:R:3 energy=3.2757543173308026 pbc="F F F"
Dy       0.00000000       0.00000000       0.00000000       0.00000000       0.00000000     -24.50638199
Dy       0.00000000       0.00000000       1.94747475       0.00000000       0.00000000      24.50638199
2
Properties=species:S:1:pos:R:3:forces:R:3 energy=1.980247060501572 pbc="F F F"
Dy       0.00000000       0.00000000       0.00000000       0.00000000       0.00000000     -19.08275223
Dy       0.00000000       0.00000000       2.00707071       0.00000000       0.00000000      19.08275223
2
Properties=species:S:1:pos:R:3:forces:R:3 energy=0.9869280756057016 pbc="F F F"
Dy       0.00000000       0.00000000       0.00000000       0.00000000       0.00000000     -14.38059616
Dy       0.00000000       0.00000000       2.06666667       0.00000000       0.00000000      14.38059616
2
Properties=species:S:1:pos:R:3:forces:R:3 energy=0.25001472896850946 pbc="F F F"
Dy       0.00000000       0.00000000       0.00000000       0.00000000       0.00000000     -10.49233818
Dy       0.00000000       0.00000000       2.12626263       0.00000000       0.00000000      10.49233818
2
Properties=species:S:1:pos:R:3:forces:R:3 energy=-0.2812122403673748 pbc="F F F"
Dy       0.00000000       0.00000000       0.00000000       0.00000000       0.00000000      -7.48392200
Dy       0.00000000       0.00000000       2.18585859       0.00000000       0.00000000       7.48392200
2
Properties=species:S:1:pos:R:3:forces:R:3 energy=-0.6592645674185653 pbc="F F F"
Dy       0.00000000       0.00000000       0.00000000       0.00000000       0.00000000      -5.34079933
Dy       0.00000000       0.00000000       2.24545455       0.00000000       0.00000000       5.34079933
2
Properties=species:S:1:pos:R:3:forces:R:3 energy=-0.9328966385238153 pbc="F F F"
Dy       0.00000000       0.00000000       0.00000000       0.00000000       0.00000000      -3.95672536
Dy       0.00000000       0.00000000       2.30505051       0.00000000       0.00000000       3.95672536
2
Properties=species:S:1:pos:R:3:forces:R:3 energy=-1.1429385306277702 pbc="F F F"
Dy       0.00000000       0.00000000       0.00000000       0.00000000       0.00000000      -3.17907429
Dy       0.00000000       0.00000000       2.36464646       0.00000000       0.00000000       3.17907429
2
Properties=species:S:1:pos:R:3:forces:R:3 energy=-1.3202641999383198 pbc="F F F"
Dy       0.00000000       0.00000000       0.00000000       0.00000000       0.00000000      -2.82578444
Dy       0.00000000       0.00000000       2.42424242       0.00000000       0.00000000       2.82578444
2
Properties=species:S:1:pos:R:3:forces:R:3 energy=-1.4841688728934221 pbc="F F F"
Dy       0.00000000       0.00000000       0.00000000       0.00000000       0.00000000      -2.69600773
Dy       0.00000000       0.00000000       2.48383838       0.00000000       0.00000000       2.69600773
2
Properties=species:S:1:pos:R:3:forces:R:3 energy=-1.6425815456392172 pbc="F F F"
Dy       0.00000000       0.00000000       0.00000000       0.00000000       0.00000000      -2.61798429
Dy       0.00000000       0.00000000       2.54343434       0.00000000       0.00000000       2.61798429
2
Properties=species:S:1:pos:R:3:forces:R:3 energy=-1.7951744518099595 pbc="F F F"
Dy       0.00000000       0.00000000       0.00000000       0.00000000       0.00000000      -2.49005890
Dy       0.00000000       0.00000000       2.60303030       0.00000000       0.00000000       2.49005890
2
Properties=species:S:1:pos:R:3:forces:R:3 energy=-1.937702224814818 pbc="F F F"
Dy       0.00000000       0.00000000       0.00000000       0.00000000       0.00000000      -2.27919054
Dy       0.00000000       0.00000000       2.66262626       0.00000000       0.00000000       2.27919054
2
Properties=species:S:1:pos:R:3:forces:R:3 energy=-2.0653540175425835 pbc="F F F"
Dy       0.00000000       0.00000000       0.00000000       0.00000000       0.00000000      -1.99428010
Dy       0.00000000       0.00000000       2.72222222       0.00000000       0.00000000       1.99428010
2
Properties=species:S:1:pos:R:3:forces:R:3 energy=-2.1744371660180337 pbc="F F F"
Dy       0.00000000       0.00000000       0.00000000       0.00000000       0.00000000      -1.66071272
Dy       0.00000000       0.00000000       2.78181818       0.00000000       0.00000000       1.66071272
2
Properties=species:S:1:pos:R:3:forces:R:3 energy=-2.2628695974596034 pbc="F F F"
Dy       0.00000000       0.00000000       0.00000000       0.00000000       0.00000000      -1.30540431
Dy       0.00000000       0.00000000       2.84141414       0.00000000       0.00000000       1.30540431
2
Properties=species:S:1:pos:R:3:forces:R:3 energy=-2.3300393027018913 pbc="F F F"
Dy       0.00000000       0.00000000       0.00000000       0.00000000       0.00000000      -0.95029396
Dy       0.00000000       0.00000000       2.90101010       0.00000000       0.00000000       0.95029396
2
Properties=species:S:1:pos:R:3:forces:R:3 energy=-2.3764517381238415 pbc="F F F"
Dy       0.00000000       0.00000000       0.00000000       0.00000000       0.00000000      -0.61084533
Dy       0.00000000       0.00000000       2.96060606       0.00000000       0.00000000       0.61084533
2
Properties=species:S:1:pos:R:3:forces:R:3 energy=-2.4033629398052745 pbc="F F F"
Dy       0.00000000       0.00000000       0.00000000       0.00000000       0.00000000      -0.29729930
Dy       0.00000000       0.00000000       3.02020202       0.00000000       0.00000000       0.29729930
2
Properties=species:S:1:pos:R:3:forces:R:3 energy=-2.412542043614911 pbc="F F F"
Dy       0.00000000       0.00000000       0.00000000       0.00000000       0.00000000      -0.01665075
Dy       0.00000000       0.00000000       3.07979798       0.00000000       0.00000000       0.01665075
2
Properties=species:S:1:pos:R:3:forces:R:3 energy=-2.406096889523355 pbc="F F F"
Dy       0.00000000       0.00000000       0.00000000       0.00000000       0.00000000       0.22646384
Dy       0.00000000       0.00000000       3.13939394       0.00000000       0.00000000      -0.22646384
2
Properties=species:S:1:pos:R:3:forces:R:3 energy=-2.3863362029930837 pbc="F F F"
Dy       0.00000000       0.00000000       0.00000000       0.00000000       0.00000000       0.43010709
Dy       0.00000000       0.00000000       3.19898990       0.00000000       0.00000000      -0.43010709
2
Properties=species:S:1:pos:R:3:forces:R:3 energy=-2.355595209626817 pbc="F F F"
Dy       0.00000000       0.00000000       0.00000000       0.00000000       0.00000000       0.59539020
Dy       0.00000000       0.00000000       3.25858586       0.00000000       0.00000000      -0.59539020
2
Properties=species:S:1:pos:R:3:forces:R:3 energy=-2.3160603491626266 pbc="F F F"
Dy       0.00000000       0.00000000       0.00000000       0.00000000       0.00000000       0.72595114
Dy       0.00000000       0.00000000       3.31818182       0.00000000       0.00000000      -0.72595114
2
Properties=species:S:1:pos:R:3:forces:R:3 energy=-2.2696593621730656 pbc="F F F"
Dy       0.00000000       0.00000000       0.00000000       0.00000000       0.00000000       0.82669747
Dy       0.00000000       0.00000000       3.37777778       0.00000000       0.00000000      -0.82669747
2
Properties=species:S:1:pos:R:3:forces:R:3 energy=-2.2180188412227055 pbc="F F F"
Dy       0.00000000       0.00000000       0.00000000       0.00000000       0.00000000       0.90255910
Dy       0.00000000       0.00000000       3.43737374       0.00000000       0.00000000      -0.90255910
2
Properties=species:S:1:pos:R:3:forces:R:3 energy=-2.162491560305712 pbc="F F F"
Dy       0.00000000       0.00000000       0.00000000       0.00000000       0.00000000       0.95774263
Dy       0.00000000       0.00000000       3.49696970       0.00000000       0.00000000      -0.95774263
2
Properties=species:S:1:pos:R:3:forces:R:3 energy=-2.1042086303259167 pbc="F F F"
Dy       0.00000000       0.00000000       0.00000000       0.00000000       0.00000000       0.99550241
Dy       0.00000000       0.00000000       3.55656566       0.00000000       0.00000000      -0.99550241
2
Properties=species:S:1:pos:R:3:forces:R:3 energy=-2.044133840197988 pbc="F F F"
Dy       0.00000000       0.00000000       0.00000000       0.00000000       0.00000000       1.01821411
Dy       0.00000000       0.00000000       3.61616162       0.00000000       0.00000000      -1.01821411
2
Properties=species:S:1:pos:R:3:forces:R:3 energy=-1.9831113133806553 pbc="F F F"
Dy       0.00000000       0.00000000       0.00000000       0.00000000       0.00000000       1.02757001
Dy       0.00000000       0.00000000       3.67575758       0.00000000       0.00000000      -1.02757001
2
Properties=species:S:1:pos:R:3:forces:R:3 energy=-1.9218960883153908 pbc="F F F"
Dy       0.00000000       0.00000000       0.00000000       0.00000000       0.00000000       1.02487731
Dy       0.00000000       0.00000000       3.73535354       0.00000000       0.00000000      -1.02487731
2
Properties=species:S:1:pos:R:3:forces:R:3 energy=-1.861167422013475 pbc="F F F"
Dy       0.00000000       0.00000000       0.00000000       0.00000000       0.00000000       1.01143467
Dy       0.00000000       0.00000000       3.79494949       0.00000000       0.00000000      -1.01143467
2
Properties=species:S:1:pos:R:3:forces:R:3 energy=-1.8015210818019445 pbc="F F F"
Dy       0.00000000       0.00000000       0.00000000       0.00000000       0.00000000       0.98889369
Dy       0.00000000       0.00000000       3.85454545       0.00000000       0.00000000      -0.98889369
2
Properties=species:S:1:pos:R:3:forces:R:3 energy=-1.7434372958636832 pbc="F F F"
Dy       0.00000000       0.00000000       0.00000000       0.00000000       0.00000000       0.95945495
Dy       0.00000000       0.00000000       3.91414141       0.00000000       0.00000000      -0.95945495
2
Properties=species:S:1:pos:R:3:forces:R:3 energy=-1.6872469738269236 pbc="F F F"
Dy       0.00000000       0.00000000       0.00000000       0.00000000       0.00000000       0.92574435
Dy       0.00000000       0.00000000       3.97373737       0.00000000       0.00000000      -0.92574435
2
Properties=species:S:1:pos:R:3:forces:R:3 energy=-1.6331268013453921 pbc="F F F"
Dy       0.00000000       0.00000000       0.00000000       0.00000000       0.00000000       0.89044410
Dy       0.00000000       0.00000000       4.03333333       0.00000000       0.00000000      -0.89044410
2
Properties=species:S:1:pos:R:3:forces:R:3 energy=-1.5810989193163554 pbc="F F F"
Dy       0.00000000       0.00000000       0.00000000       0.00000000       0.00000000       0.85583866
Dy       0.00000000       0.00000000       4.09292929       0.00000000       0.00000000      -0.85583866
2
Properties=species:S:1:pos:R:3:forces:R:3 energy=-1.5310715754163087 pbc="F F F"
Dy       0.00000000       0.00000000       0.00000000       0.00000000       0.00000000       0.82351816
Dy       0.00000000       0.00000000       4.15252525       0.00000000       0.00000000      -0.82351816
2
Properties=species:S:1:pos:R:3:forces:R:3 energy=-1.4828814814126328 pbc="F F F"
Dy       0.00000000       0.00000000       0.00000000       0.00000000       0.00000000       0.79427820
Dy       0.00000000       0.00000000       4.21212121       0.00000000       0.00000000      -0.79427820
2
Properties=species:S:1:pos:R:3:forces:R:3 energy=-1.4363367538504082 pbc="F F F"
Dy       0.00000000       0.00000000       0.00000000       0.00000000       0.00000000       0.76821256
Dy       0.00000000       0.00000000       4.27171717       0.00000000       0.00000000      -0.76821256
2
Properties=species:S:1:pos:R:3:forces:R:3 energy=-1.391261831779952 pbc="F F F"
Dy       0.00000000       0.00000000       0.00000000       0.00000000       0.00000000       0.74489856
Dy       0.00000000       0.00000000       4.33131313       0.00000000       0.00000000      -0.74489856
2
Properties=species:S:1:pos:R:3:forces:R:3 energy=-1.34751096641347 pbc="F F F"
Dy       0.00000000       0.00000000       0.00000000       0.00000000       0.00000000       0.72361392
Dy       0.00000000       0.00000000       4.39090909       0.00000000       0.00000000      -0.72361392
2
Properties=species:S:1:pos:R:3:forces:R:3 energy=-1.3049883991732107 pbc="F F F"
Dy       0.00000000       0.00000000       0.00000000       0.00000000       0.00000000       0.70351839
Dy       0.00000000       0.00000000       4.45050505       0.00000000       0.00000000      -0.70351839
2
Properties=species:S:1:pos:R:3:forces:R:3 energy=-1.2636496614903157 pbc="F F F"
Dy       0.00000000       0.00000000       0.00000000       0.00000000       0.00000000       0.68381208
Dy       0.00000000       0.00000000       4.51010101       0.00000000       0.00000000      -0.68381208
2
Properties=species:S:1:pos:R:3:forces:R:3 energy=-1.2234886811946142 pbc="F F F"
Dy       0.00000000       0.00000000       0.00000000       0.00000000       0.00000000       0.66384214
Dy       0.00000000       0.00000000       4.56969697       0.00000000       0.00000000      -0.66384214
2
Properties=species:S:1:pos:R:3:forces:R:3 energy=-1.184538392400312 pbc="F F F"
Dy       0.00000000       0.00000000       0.00000000       0.00000000       0.00000000       0.64317536
Dy       0.00000000       0.00000000       4.62929293       0.00000000       0.00000000      -0.64317536
2
Properties=species:S:1:pos:R:3:forces:R:3 energy=-1.1468464409855477 pbc="F F F"
Dy       0.00000000       0.00000000       0.00000000       0.00000000       0.00000000       0.62160397
Dy       0.00000000       0.00000000       4.68888889       0.00000000       0.00000000      -0.62160397
2
Properties=species:S:1:pos:R:3:forces:R:3 energy=-1.1104664276293612 pbc="F F F"
Dy       0.00000000       0.00000000       0.00000000       0.00000000       0.00000000       0.59912306
Dy       0.00000000       0.00000000       4.74848485       0.00000000       0.00000000      -0.59912306
2
Properties=species:S:1:pos:R:3:forces:R:3 energy=-1.0754508289461486 pbc="F F F"
Dy       0.00000000       0.00000000       0.00000000       0.00000000       0.00000000       0.57590294
Dy       0.00000000       0.00000000       4.80808081       0.00000000       0.00000000      -0.57590294
2
Properties=species:S:1:pos:R:3:forces:R:3 energy=-1.0418313861416362 pbc="F F F"
Dy       0.00000000       0.00000000       0.00000000       0.00000000       0.00000000       0.55228359
Dy       0.00000000       0.00000000       4.86767677       0.00000000       0.00000000      -0.55228359
2
Properties=species:S:1:pos:R:3:forces:R:3 energy=-1.0096195654269526 pbc="F F F"
Dy       0.00000000       0.00000000       0.00000000       0.00000000       0.00000000       0.52878278
Dy       0.00000000       0.00000000       4.92727273       0.00000000       0.00000000      -0.52878278
2
Properties=species:S:1:pos:R:3:forces:R:3 energy=-0.9787877065277925 pbc="F F F"
Dy       0.00000000       0.00000000       0.00000000       0.00000000       0.00000000       0.50611216
Dy       0.00000000       0.00000000       4.98686869       0.00000000       0.00000000      -0.50611216
2
Properties=species:S:1:pos:R:3:forces:R:3 energy=-0.9492659586729079 pbc="F F F"
Dy       0.00000000       0.00000000       0.00000000       0.00000000       0.00000000       0.48505765
Dy       0.00000000       0.00000000       5.04646465       0.00000000       0.00000000      -0.48505765
2
Properties=species:S:1:pos:R:3:forces:R:3 energy=-0.9209313959507879 pbc="F F F"
Dy       0.00000000       0.00000000       0.00000000       0.00000000       0.00000000       0.46619615
Dy       0.00000000       0.00000000       5.10606061       0.00000000       0.00000000      -0.46619615
2
Properties=species:S:1:pos:R:3:forces:R:3 energy=-0.8936523922597465 pbc="F F F"
Dy       0.00000000       0.00000000       0.00000000       0.00000000       0.00000000       0.44941628
Dy       0.00000000       0.00000000       5.16565657       0.00000000       0.00000000      -0.44941628
2
Properties=species:S:1:pos:R:3:forces:R:3 energy=-0.867347992701811 pbc="F F F"
Dy       0.00000000       0.00000000       0.00000000       0.00000000       0.00000000       0.43328512
Dy       0.00000000       0.00000000       5.22525253       0.00000000       0.00000000      -0.43328512
2
Properties=species:S:1:pos:R:3:forces:R:3 energy=-0.842061294651979 pbc="F F F"
Dy       0.00000000       0.00000000       0.00000000       0.00000000       0.00000000       0.41457269
Dy       0.00000000       0.00000000       5.28484848       0.00000000       0.00000000      -0.41457269
2
Properties=species:S:1:pos:R:3:forces:R:3 energy=-0.8180620120967426 pbc="F F F"
Dy       0.00000000       0.00000000       0.00000000       0.00000000       0.00000000       0.38959652
Dy       0.00000000       0.00000000       5.34444444       0.00000000       0.00000000      -0.38959652
2
Properties=species:S:1:pos:R:3:forces:R:3 energy=-0.7957195787612545 pbc="F F F"
Dy       0.00000000       0.00000000       0.00000000       0.00000000       0.00000000       0.36018997
Dy       0.00000000       0.00000000       5.40404040       0.00000000       0.00000000      -0.36018997
2
Properties=species:S:1:pos:R:3:forces:R:3 energy=-0.7749963007204289 pbc="F F F"
Dy       0.00000000       0.00000000       0.00000000       0.00000000       0.00000000       0.33695421
Dy       0.00000000       0.00000000       5.46363636       0.00000000       0.00000000      -0.33695421
2
Properties=species:S:1:pos:R:3:forces:R:3 energy=-0.755426948851696 pbc="F F F"
Dy       0.00000000       0.00000000       0.00000000       0.00000000       0.00000000       0.31966779
Dy       0.00000000       0.00000000       5.52323232       0.00000000       0.00000000      -0.31966779
2
Properties=species:S:1:pos:R:3:forces:R:3 energy=-0.737147405707094 pbc="F F F"
Dy       0.00000000       0.00000000       0.00000000       0.00000000       0.00000000       0.29085118
Dy       0.00000000       0.00000000       5.58282828       0.00000000       0.00000000      -0.29085118
2
Properties=species:S:1:pos:R:3:forces:R:3 energy=-0.7209990473334532 pbc="F F F"
Dy       0.00000000       0.00000000       0.00000000       0.00000000       0.00000000       0.25078374
Dy       0.00000000       0.00000000       5.64242424       0.00000000       0.00000000      -0.25078374
2
Properties=species:S:1:pos:R:3:forces:R:3 energy=-0.7070168777933123 pbc="F F F"
Dy       0.00000000       0.00000000       0.00000000       0.00000000       0.00000000       0.22251591
Dy       0.00000000       0.00000000       5.70202020       0.00000000       0.00000000      -0.22251591
2
Properties=species:S:1:pos:R:3:forces:R:3 energy=-0.6938571978621892 pbc="F F F"
Dy       0.00000000       0.00000000       0.00000000       0.00000000       0.00000000       0.22346498
Dy       0.00000000       0.00000000       5.76161616       0.00000000       0.00000000      -0.22346498
2
Properties=species:S:1:pos:R:3:forces:R:3 energy=-0.6805299950220443 pbc="F F F"
Dy       0.00000000       0.00000000       0.00000000       0.00000000       0.00000000       0.21623570
Dy       0.00000000       0.00000000       5.82121212       0.00000000       0.00000000      -0.21623570
2
Properties=species:S:1:pos:R:3:forces:R:3 energy=-0.669311752759367 pbc="F F F"
Dy       0.00000000       0.00000000       0.00000000       0.00000000       0.00000000       0.15241279
Dy       0.00000000       0.00000000       5.88080808       0.00000000       0.00000000      -0.15241279
2
Properties=species:S:1:pos:R:3:forces:R:3 energy=-0.6627353526475754 pbc="F F F"
Dy       0.00000000       0.00000000       0.00000000       0.00000000       0.00000000       0.06962578
Dy       0.00000000       0.00000000       5.94040404       0.00000000       0.00000000      -0.06962578
2
Properties=species:S:1:pos:R:3:forces:R:3 energy=-0.6600183388687604 pbc="F F F"
Dy       0.00000000       0.00000000       0.00000000       0.00000000       0.00000000       0.03349671
Dy       0.00000000       0.00000000       6.00000000       0.00000000       0.00000000      -0.03349671
