2
Properties=species:S:1:pos:R:3:forces:R:3 energy=5141.983968475146 pbc="F F F"
Er       0.00000000       0.00000000       0.00000000       0.00000000       0.00000000 -228297.51562500
Er       0.00000000       0.00000000       0.18000000       0.00000000       0.00000000  228297.51562500
2
Properties=species:S:1:pos:R:3:forces:R:3 energy=-2813.352457306104 pbc="F F F"
Er       0.00000000       0.00000000       0.00000000       0.00000000       0.00000000  -74396.33593750
Er       0.00000000       0.00000000       0.23878788       0.00000000       0.00000000   74396.33593750
2
Properties=species:S:1:pos:R:3:forces:R:3 energy=-5524.417886993604 pbc="F F F"
Er       0.00000000       0.00000000       0.00000000       0.00000000       0.00000000  -25781.43554688
Er       0.00000000       0.00000000       0.29757576       0.00000000       0.00000000   25781.43554688
2
Properties=species:S:1:pos:R:3:forces:R:3 energy=-6370.025308868604 pbc="F F F"
Er       0.00000000       0.00000000       0.00000000       0.00000000       0.00000000   -5386.90087891
Er       0.00000000       0.00000000       0.35636364       0.00000000       0.00000000    5386.90087891
2
Properties=species:S:1:pos:R:3:forces:R:3 energy=-6324.392496355933 pbc="F F F"
Er       0.00000000       0.00000000       0.00000000       0.00000000       0.00000000    6129.47753906
Er       0.00000000       0.00000000       0.41515152       0.00000000       0.00000000   -6129.47753906
2
Properties=species:S:1:pos:R:3:forces:R:3 energy=-5712.373453387183 pbc="F F F"
Er       0.00000000       0.00000000       0.00000000       0.00000000       0.00000000   14292.91015625
Er       0.00000000       0.00000000       0.47393939       0.00000000       0.00000000  -14292.91015625
2
Properties=species:S:1:pos:R:3:forces:R:3 energy=-4689.73966429934 pbc="F F F"
Er       0.00000000       0.00000000       0.00000000       0.00000000       0.00000000   20062.72851562
Er       0.00000000       0.00000000       0.53272727       0.00000000       0.00000000  -20062.72851562
2
Properties=species:S:1:pos:R:3:forces:R:3 energy=-3416.2399084146227 pbc="F F F"
Er       0.00000000       0.00000000       0.00000000       0.00000000       0.00000000   22632.23437500
Er       0.00000000       0.00000000       0.59151515       0.00000000       0.00000000  -22632.23437500
2
Properties=species:S:1:pos:R:3:forces:R:3 energy=-2110.3075353297336 pbc="F F F"
Er       0.00000000       0.00000000       0.00000000       0.00000000       0.00000000   21082.25390625
Er       0.00000000       0.00000000       0.65030303       0.00000000       0.00000000  -21082.25390625
2
Properties=species:S:1:pos:R:3:forces:R:3 energy=-1011.991373144331 pbc="F F F"
Er       0.00000000       0.00000000       0.00000000       0.00000000       0.00000000   15795.53125000
Er       0.00000000       0.00000000       0.70909091       0.00000000       0.00000000  -15795.53125000
2
Properties=species:S:1:pos:R:3:forces:R:3 energy=-290.8595371054606 pbc="F F F"
Er       0.00000000       0.00000000       0.00000000       0.00000000       0.00000000    9075.62890625
Er       0.00000000       0.00000000       0.76787879       0.00000000       0.00000000   -9075.62890625
2
Properties=species:S:1:pos:R:3:forces:R:3 energy=70.57566661151222 pbc="F F F"
Er       0.00000000       0.00000000       0.00000000       0.00000000       0.00000000    3974.51074219
Er       0.00000000       0.00000000       0.82666667       0.00000000       0.00000000   -3974.51074219
2
Properties=species:S:1:pos:R:3:forces:R:3 energy=189.74637454223213 pbc="F F F"
Er       0.00000000       0.00000000       0.00000000       0.00000000       0.00000000     453.17218018
Er       0.00000000       0.00000000       0.88545455       0.00000000       0.00000000    -453.17218018
2
Properties=species:S:1:pos:R:3:forces:R:3 energy=169.23165012756903 pbc="F F F"
Er       0.00000000       0.00000000       0.00000000       0.00000000       0.00000000    -495.24475098
Er       0.00000000       0.00000000       0.94424242       0.00000000       0.00000000     495.24475098
2
Properties=species:S:1:pos:R:3:forces:R:3 energy=141.44898150368132 pbc="F F F"
Er       0.00000000       0.00000000       0.00000000       0.00000000       0.00000000    -441.92160034
Er       0.00000000       0.00000000       1.00303030       0.00000000       0.00000000     441.92160034
2
Properties=species:S:1:pos:R:3:forces:R:3 energy=116.47944625892389 pbc="F F F"
Er       0.00000000       0.00000000       0.00000000       0.00000000       0.00000000    -375.02191162
Er       0.00000000       0.00000000       1.06181818       0.00000000       0.00000000     375.02191162
2
Properties=species:S:1:pos:R:3:forces:R:3 energy=95.42340915438304 pbc="F F F"
Er       0.00000000       0.00000000       0.00000000       0.00000000       0.00000000    -341.10803223
Er       0.00000000       0.00000000       1.12060606       0.00000000       0.00000000     341.10803223
2
Properties=species:S:1:pos:R:3:forces:R:3 energy=77.88662886972226 pbc="F F F"
Er       0.00000000       0.00000000       0.00000000       0.00000000       0.00000000    -259.21359253
Er       0.00000000       0.00000000       1.17939394       0.00000000       0.00000000     259.21359253
2
Properties=species:S:1:pos:R:3:forces:R:3 energy=64.38923946580853 pbc="F F F"
Er       0.00000000       0.00000000       0.00000000       0.00000000       0.00000000    -205.20536804
Er       0.00000000       0.00000000       1.23818182       0.00000000       0.00000000     205.20536804
2
Properties=species:S:1:pos:R:3:forces:R:3 energy=53.31712812665182 pbc="F F F"
Er       0.00000000       0.00000000       0.00000000       0.00000000       0.00000000    -173.47653198
Er       0.00000000       0.00000000       1.29696970       0.00000000       0.00000000     173.47653198
2
Properties=species:S:1:pos:R:3:forces:R:3 energy=43.892050935067765 pbc="F F F"
Er       0.00000000       0.00000000       0.00000000       0.00000000       0.00000000    -147.43830872
Er       0.00000000       0.00000000       1.35575758       0.00000000       0.00000000     147.43830872
2
Properties=species:S:1:pos:R:3:forces:R:3 energy=35.93794064013172 pbc="F F F"
Er       0.00000000       0.00000000       0.00000000       0.00000000       0.00000000    -123.87216949
Er       0.00000000       0.00000000       1.41454545       0.00000000       0.00000000     123.87216949
2
Properties=species:S:1:pos:R:3:forces:R:3 energy=29.2158217929691 pbc="F F F"
Er       0.00000000       0.00000000       0.00000000       0.00000000       0.00000000    -105.76161194
Er       0.00000000       0.00000000       1.47333333       0.00000000       0.00000000     105.76161194
2
Properties=species:S:1:pos:R:3:forces:R:3 energy=23.438611886187502 pbc="F F F"
Er       0.00000000       0.00000000       0.00000000       0.00000000       0.00000000     -90.81065369
Er       0.00000000       0.00000000       1.53212121       0.00000000       0.00000000      90.81065369
2
Properties=species:S:1:pos:R:3:forces:R:3 energy=18.576022324868173 pbc="F F F"
Er       0.00000000       0.00000000       0.00000000       0.00000000       0.00000000     -74.25556946
Er       0.00000000       0.00000000       1.59090909       0.00000000       0.00000000      74.25556946
2
Properties=species:S:1:pos:R:3:forces:R:3 energy=14.708863858626733 pbc="F F F"
Er       0.00000000       0.00000000       0.00000000       0.00000000       0.00000000     -57.74537277
Er       0.00000000       0.00000000       1.64969697       0.00000000       0.00000000      57.74537277
2
Properties=species:S:1:pos:R:3:forces:R:3 energy=11.698464764518645 pbc="F F F"
Er       0.00000000       0.00000000       0.00000000       0.00000000       0.00000000     -45.55008698
Er       0.00000000       0.00000000       1.70848485       0.00000000       0.00000000      45.55008698
2
Properties=species:S:1:pos:R:3:forces:R:3 energy=9.26157542825689 pbc="F F F"
Er       0.00000000       0.00000000       0.00000000       0.00000000       0.00000000     -37.95216370
Er       0.00000000       0.00000000       1.76727273       0.00000000       0.00000000      37.95216370
2
Properties=species:S:1:pos:R:3:forces:R:3 energy=7.189446294135206 pbc="F F F"
Er       0.00000000       0.00000000       0.00000000       0.00000000       0.00000000     -32.77241516
Er       0.00000000       0.00000000       1.82606061       0.00000000       0.00000000      32.77241516
2
Properties=species:S:1:pos:R:3:forces:R:3 energy=5.394147425766526 pbc="F F F"
Er       0.00000000       0.00000000       0.00000000       0.00000000       0.00000000     -28.35080338
Er       0.00000000       0.00000000       1.88484848       0.00000000       0.00000000      28.35080338
2
Properties=species:S:1:pos:R:3:forces:R:3 energy=3.854822508380549 pbc="F F F"
Er       0.00000000       0.00000000       0.00000000       0.00000000       0.00000000     -24.01244164
Er       0.00000000       0.00000000       1.94363636       0.00000000       0.00000000      24.01244164
2
Properties=species:S:1:pos:R:3:forces:R:3 energy=2.5709404490892505 pbc="F F F"
Er       0.00000000       0.00000000       0.00000000       0.00000000       0.00000000     -19.67923927
Er       0.00000000       0.00000000       2.00242424       0.00000000       0.00000000      19.67923927
2
Properties=species:S:1:pos:R:3:forces:R:3 energy=1.5369846094395883 pbc="F F F"
Er       0.00000000       0.00000000       0.00000000       0.00000000       0.00000000     -15.55396938
Er       0.00000000       0.00000000       2.06121212       0.00000000       0.00000000      15.55396938
2
Properties=species:S:1:pos:R:3:forces:R:3 energy=0.7328478276024649 pbc="F F F"
Er       0.00000000       0.00000000       0.00000000       0.00000000       0.00000000     -11.90235806
Er       0.00000000       0.00000000       2.12000000       0.00000000       0.00000000      11.90235806
2
Properties=species:S:1:pos:R:3:forces:R:3 energy=0.12426278925058012 pbc="F F F"
Er       0.00000000       0.00000000       0.00000000       0.00000000       0.00000000      -8.92435074
Er       0.00000000       0.00000000       2.17878788       0.00000000       0.00000000       8.92435074
2
Properties=species:S:1:pos:R:3:forces:R:3 energy=-0.3311217766267073 pbc="F F F"
Er       0.00000000       0.00000000       0.00000000       0.00000000       0.00000000      -6.69159508
Er       0.00000000       0.00000000       2.23757576       0.00000000       0.00000000       6.69159508
2
Properties=species:S:1:pos:R:3:forces:R:3 energy=-0.6763363538062346 pbc="F F F"
Er       0.00000000       0.00000000       0.00000000       0.00000000       0.00000000      -5.16231537
Er       0.00000000       0.00000000       2.29636364       0.00000000       0.00000000       5.16231537
2
Properties=species:S:1:pos:R:3:forces:R:3 energy=-0.9495873584020107 pbc="F F F"
Er       0.00000000       0.00000000       0.00000000       0.00000000       0.00000000      -4.21779490
Er       0.00000000       0.00000000       2.35515152       0.00000000       0.00000000       4.21779490
2
Properties=species:S:1:pos:R:3:forces:R:3 energy=-1.1801851968722306 pbc="F F F"
Er       0.00000000       0.00000000       0.00000000       0.00000000       0.00000000      -3.67750144
Er       0.00000000       0.00000000       2.41393939       0.00000000       0.00000000       3.67750144
2
Properties=species:S:1:pos:R:3:forces:R:3 energy=-1.3859267958601522 pbc="F F F"
Er       0.00000000       0.00000000       0.00000000       0.00000000       0.00000000      -3.34077930
Er       0.00000000       0.00000000       2.47272727       0.00000000       0.00000000       3.34077930
2
Properties=species:S:1:pos:R:3:forces:R:3 energy=-1.5738976974390941 pbc="F F F"
Er       0.00000000       0.00000000       0.00000000       0.00000000       0.00000000      -3.05370808
Er       0.00000000       0.00000000       2.53151515       0.00000000       0.00000000       3.05370808
2
Properties=species:S:1:pos:R:3:forces:R:3 energy=-1.7444190219166043 pbc="F F F"
Er       0.00000000       0.00000000       0.00000000       0.00000000       0.00000000      -2.74070549
Er       0.00000000       0.00000000       2.59030303       0.00000000       0.00000000       2.74070549
2
Properties=species:S:1:pos:R:3:forces:R:3 energy=-1.8953361609143409 pbc="F F F"
Er       0.00000000       0.00000000       0.00000000       0.00000000       0.00000000      -2.38769698
Er       0.00000000       0.00000000       2.64909091       0.00000000       0.00000000       2.38769698
2
Properties=species:S:1:pos:R:3:forces:R:3 energy=-2.0246661650950113 pbc="F F F"
Er       0.00000000       0.00000000       0.00000000       0.00000000       0.00000000      -2.00990820
Er       0.00000000       0.00000000       2.70787879       0.00000000       0.00000000       2.00990820
2
Properties=species:S:1:pos:R:3:forces:R:3 energy=-2.131591546491894 pbc="F F F"
Er       0.00000000       0.00000000       0.00000000       0.00000000       0.00000000      -1.62889278
Er       0.00000000       0.00000000       2.76666667       0.00000000       0.00000000       1.62889278
2
Properties=species:S:1:pos:R:3:forces:R:3 energy=-2.21646808997322 pbc="F F F"
Er       0.00000000       0.00000000       0.00000000       0.00000000       0.00000000      -1.26209497
Er       0.00000000       0.00000000       2.82545455       0.00000000       0.00000000       1.26209497
2
Properties=species:S:1:pos:R:3:forces:R:3 energy=-2.280471514572038 pbc="F F F"
Er       0.00000000       0.00000000       0.00000000       0.00000000       0.00000000      -0.91994625
Er       0.00000000       0.00000000       2.88424242       0.00000000       0.00000000       0.91994625
2
Properties=species:S:1:pos:R:3:forces:R:3 energy=-2.32520030147549 pbc="F F F"
Er       0.00000000       0.00000000       0.00000000       0.00000000       0.00000000      -0.60671949
Er       0.00000000       0.00000000       2.94303030       0.00000000       0.00000000       0.60671949
2
Properties=species:S:1:pos:R:3:forces:R:3 energy=-2.352387037153772 pbc="F F F"
Er       0.00000000       0.00000000       0.00000000       0.00000000       0.00000000      -0.32308137
Er       0.00000000       0.00000000       3.00181818       0.00000000       0.00000000       0.32308137
2
Properties=species:S:1:pos:R:3:forces:R:3 energy=-2.3637596767537663 pbc="F F F"
Er       0.00000000       0.00000000       0.00000000       0.00000000       0.00000000      -0.06866743
Er       0.00000000       0.00000000       3.06060606       0.00000000       0.00000000       0.06866743
2
Properties=species:S:1:pos:R:3:forces:R:3 energy=-2.3610332604693145 pbc="F F F"
Er       0.00000000       0.00000000       0.00000000       0.00000000       0.00000000       0.15650836
Er       0.00000000       0.00000000       3.11939394       0.00000000       0.00000000      -0.15650836
2
Properties=species:S:1:pos:R:3:forces:R:3 energy=-2.345938726511327 pbc="F F F"
Er       0.00000000       0.00000000       0.00000000       0.00000000       0.00000000       0.35204595
Er       0.00000000       0.00000000       3.17818182       0.00000000       0.00000000      -0.35204595
2
Properties=species:S:1:pos:R:3:forces:R:3 energy=-2.3202244579967575 pbc="F F F"
Er       0.00000000       0.00000000       0.00000000       0.00000000       0.00000000       0.51785856
Er       0.00000000       0.00000000       3.23696970       0.00000000       0.00000000      -0.51785856
2
Properties=species:S:1:pos:R:3:forces:R:3 energy=-2.285617561096154 pbc="F F F"
Er       0.00000000       0.00000000       0.00000000       0.00000000       0.00000000       0.65480864
Er       0.00000000       0.00000000       3.29575758       0.00000000       0.00000000      -0.65480864
2
Properties=species:S:1:pos:R:3:forces:R:3 energy=-2.2437614744018965 pbc="F F F"
Er       0.00000000       0.00000000       0.00000000       0.00000000       0.00000000       0.76487887
Er       0.00000000       0.00000000       3.35454545       0.00000000       0.00000000      -0.76487887
2
Properties=species:S:1:pos:R:3:forces:R:3 energy=-2.196157397313141 pbc="F F F"
Er       0.00000000       0.00000000       0.00000000       0.00000000       0.00000000       0.85091215
Er       0.00000000       0.00000000       3.41333333       0.00000000       0.00000000      -0.85091215
2
Properties=species:S:1:pos:R:3:forces:R:3 energy=-2.1441226554834985 pbc="F F F"
Er       0.00000000       0.00000000       0.00000000       0.00000000       0.00000000       0.91614980
Er       0.00000000       0.00000000       3.47212121       0.00000000       0.00000000      -0.91614980
2
Properties=species:S:1:pos:R:3:forces:R:3 energy=-2.0887868804601917 pbc="F F F"
Er       0.00000000       0.00000000       0.00000000       0.00000000       0.00000000       0.96372962
Er       0.00000000       0.00000000       3.53090909       0.00000000       0.00000000      -0.96372962
2
Properties=species:S:1:pos:R:3:forces:R:3 energy=-2.031105364452158 pbc="F F F"
Er       0.00000000       0.00000000       0.00000000       0.00000000       0.00000000       0.99628472
Er       0.00000000       0.00000000       3.58969697       0.00000000       0.00000000      -0.99628472
2
Properties=species:S:1:pos:R:3:forces:R:3 energy=-1.9719034258647627 pbc="F F F"
Er       0.00000000       0.00000000       0.00000000       0.00000000       0.00000000       1.01576114
Er       0.00000000       0.00000000       3.64848485       0.00000000       0.00000000      -1.01576114
2
Properties=species:S:1:pos:R:3:forces:R:3 energy=-1.9119075510987371 pbc="F F F"
Er       0.00000000       0.00000000       0.00000000       0.00000000       0.00000000       1.02348292
Er       0.00000000       0.00000000       3.70727273       0.00000000       0.00000000      -1.02348292
2
Properties=species:S:1:pos:R:3:forces:R:3 energy=-1.851776741425638 pbc="F F F"
Er       0.00000000       0.00000000       0.00000000       0.00000000       0.00000000       1.02045727
Er       0.00000000       0.00000000       3.76606061       0.00000000       0.00000000      -1.02045727
2
Properties=species:S:1:pos:R:3:forces:R:3 energy=-1.792115807407479 pbc="F F F"
Er       0.00000000       0.00000000       0.00000000       0.00000000       0.00000000       1.00775886
Er       0.00000000       0.00000000       3.82484848       0.00000000       0.00000000      -1.00775886
2
Properties=species:S:1:pos:R:3:forces:R:3 energy=-1.7334506683991684 pbc="F F F"
Er       0.00000000       0.00000000       0.00000000       0.00000000       0.00000000       0.98680204
Er       0.00000000       0.00000000       3.88363636       0.00000000       0.00000000      -0.98680204
2
Properties=species:S:1:pos:R:3:forces:R:3 energy=-1.6762187904627677 pbc="F F F"
Er       0.00000000       0.00000000       0.00000000       0.00000000       0.00000000       0.95937932
Er       0.00000000       0.00000000       3.94242424       0.00000000       0.00000000      -0.95937932
2
Properties=species:S:1:pos:R:3:forces:R:3 energy=-1.6207394980867011 pbc="F F F"
Er       0.00000000       0.00000000       0.00000000       0.00000000       0.00000000       0.92748797
Er       0.00000000       0.00000000       4.00121212       0.00000000       0.00000000      -0.92748797
2
Properties=species:S:1:pos:R:3:forces:R:3 energy=-1.567218647522674 pbc="F F F"
Er       0.00000000       0.00000000       0.00000000       0.00000000       0.00000000       0.89303428
Er       0.00000000       0.00000000       4.06000000       0.00000000       0.00000000      -0.89303428
2
Properties=species:S:1:pos:R:3:forces:R:3 energy=-1.5157592819299037 pbc="F F F"
Er       0.00000000       0.00000000       0.00000000       0.00000000       0.00000000       0.85762101
Er       0.00000000       0.00000000       4.11878788       0.00000000       0.00000000      -0.85762101
2
Properties=species:S:1:pos:R:3:forces:R:3 energy=-1.466378966239308 pbc="F F F"
Er       0.00000000       0.00000000       0.00000000       0.00000000       0.00000000       0.82240993
Er       0.00000000       0.00000000       4.17757576       0.00000000       0.00000000      -0.82240993
2
Properties=species:S:1:pos:R:3:forces:R:3 energy=-1.419043279796176 pbc="F F F"
Er       0.00000000       0.00000000       0.00000000       0.00000000       0.00000000       0.78816712
Er       0.00000000       0.00000000       4.23636364       0.00000000       0.00000000      -0.78816712
2
Properties=species:S:1:pos:R:3:forces:R:3 energy=-1.3736807428639388 pbc="F F F"
Er       0.00000000       0.00000000       0.00000000       0.00000000       0.00000000       0.75532067
Er       0.00000000       0.00000000       4.29515152       0.00000000       0.00000000      -0.75532067
2
Properties=species:S:1:pos:R:3:forces:R:3 energy=-1.3302051784534037 pbc="F F F"
Er       0.00000000       0.00000000       0.00000000       0.00000000       0.00000000       0.72407615
Er       0.00000000       0.00000000       4.35393939       0.00000000       0.00000000      -0.72407615
2
Properties=species:S:1:pos:R:3:forces:R:3 energy=-1.2885157745112443 pbc="F F F"
Er       0.00000000       0.00000000       0.00000000       0.00000000       0.00000000       0.69448060
Er       0.00000000       0.00000000       4.41272727       0.00000000       0.00000000      -0.69448060
2
Properties=species:S:1:pos:R:3:forces:R:3 energy=-1.248519076618029 pbc="F F F"
Er       0.00000000       0.00000000       0.00000000       0.00000000       0.00000000       0.66648424
Er       0.00000000       0.00000000       4.47151515       0.00000000       0.00000000      -0.66648424
2
Properties=species:S:1:pos:R:3:forces:R:3 energy=-1.2101238303105486 pbc="F F F"
Er       0.00000000       0.00000000       0.00000000       0.00000000       0.00000000       0.63996094
Er       0.00000000       0.00000000       4.53030303       0.00000000       0.00000000      -0.63996094
2
Properties=species:S:1:pos:R:3:forces:R:3 energy=-1.1732501792040448 pbc="F F F"
Er       0.00000000       0.00000000       0.00000000       0.00000000       0.00000000       0.61472732
Er       0.00000000       0.00000000       4.58909091       0.00000000       0.00000000      -0.61472732
2
Properties=species:S:1:pos:R:3:forces:R:3 energy=-1.1378275647424605 pbc="F F F"
Er       0.00000000       0.00000000       0.00000000       0.00000000       0.00000000       0.59053200
Er       0.00000000       0.00000000       4.64787879       0.00000000       0.00000000      -0.59053200
2
Properties=species:S:1:pos:R:3:forces:R:3 energy=-1.1038033956304025 pbc="F F F"
Er       0.00000000       0.00000000       0.00000000       0.00000000       0.00000000       0.56704915
Er       0.00000000       0.00000000       4.70666667       0.00000000       0.00000000      -0.56704915
2
Properties=species:S:1:pos:R:3:forces:R:3 energy=-1.071149869273177 pbc="F F F"
Er       0.00000000       0.00000000       0.00000000       0.00000000       0.00000000       0.54390442
Er       0.00000000       0.00000000       4.76545455       0.00000000       0.00000000      -0.54390442
2
Properties=species:S:1:pos:R:3:forces:R:3 energy=-1.0398532619476608 pbc="F F F"
Er       0.00000000       0.00000000       0.00000000       0.00000000       0.00000000       0.52072328
Er       0.00000000       0.00000000       4.82424242       0.00000000       0.00000000      -0.52072328
2
Properties=species:S:1:pos:R:3:forces:R:3 energy=-1.0099322490190283 pbc="F F F"
Er       0.00000000       0.00000000       0.00000000       0.00000000       0.00000000       0.49725810
Er       0.00000000       0.00000000       4.88303030       0.00000000       0.00000000      -0.49725810
2
Properties=species:S:1:pos:R:3:forces:R:3 energy=-0.9813944874167765 pbc="F F F"
Er       0.00000000       0.00000000       0.00000000       0.00000000       0.00000000       0.47352371
Er       0.00000000       0.00000000       4.94181818       0.00000000       0.00000000      -0.47352371
2
Properties=species:S:1:pos:R:3:forces:R:3 energy=-0.9542531730546843 pbc="F F F"
Er       0.00000000       0.00000000       0.00000000       0.00000000       0.00000000       0.44994497
Er       0.00000000       0.00000000       5.00060606       0.00000000       0.00000000      -0.44994497
2
Properties=species:S:1:pos:R:3:forces:R:3 energy=-0.9284721207783493 pbc="F F F"
Er       0.00000000       0.00000000       0.00000000       0.00000000       0.00000000       0.42731801
Er       0.00000000       0.00000000       5.05939394       0.00000000       0.00000000      -0.42731801
2
Properties=species:S:1:pos:R:3:forces:R:3 energy=-0.9039739468725513 pbc="F F F"
Er       0.00000000       0.00000000       0.00000000       0.00000000       0.00000000       0.40654764
Er       0.00000000       0.00000000       5.11818182       0.00000000       0.00000000      -0.40654764
2
Properties=species:S:1:pos:R:3:forces:R:3 energy=-0.8806280415942952 pbc="F F F"
Er       0.00000000       0.00000000       0.00000000       0.00000000       0.00000000       0.38804892
Er       0.00000000       0.00000000       5.17696970       0.00000000       0.00000000      -0.38804892
2
Properties=species:S:1:pos:R:3:forces:R:3 energy=-0.8583233971292371 pbc="F F F"
Er       0.00000000       0.00000000       0.00000000       0.00000000       0.00000000       0.37082419
Er       0.00000000       0.00000000       5.23575758       0.00000000       0.00000000      -0.37082419
2
Properties=species:S:1:pos:R:3:forces:R:3 energy=-0.8370644051750682 pbc="F F F"
Er       0.00000000       0.00000000       0.00000000       0.00000000       0.00000000       0.35174000
Er       0.00000000       0.00000000       5.29454545       0.00000000       0.00000000      -0.35174000
2
Properties=species:S:1:pos:R:3:forces:R:3 energy=-0.8170780082538408 pbc="F F F"
Er       0.00000000       0.00000000       0.00000000       0.00000000       0.00000000       0.32718769
Er       0.00000000       0.00000000       5.35333333       0.00000000       0.00000000      -0.32718769
2
Properties=species:S:1:pos:R:3:forces:R:3 energy=-0.7986470439572235 pbc="F F F"
Er       0.00000000       0.00000000       0.00000000       0.00000000       0.00000000       0.30052286
Er       0.00000000       0.00000000       5.41212121       0.00000000       0.00000000      -0.30052286
2
Properties=species:S:1:pos:R:3:forces:R:3 energy=-0.7815169290570132 pbc="F F F"
Er       0.00000000       0.00000000       0.00000000       0.00000000       0.00000000       0.28486058
Er       0.00000000       0.00000000       5.47090909       0.00000000       0.00000000      -0.28486058
2
Properties=species:S:1:pos:R:3:forces:R:3 energy=-0.7649663290230588 pbc="F F F"
Er       0.00000000       0.00000000       0.00000000       0.00000000       0.00000000       0.27758533
Er       0.00000000       0.00000000       5.52969697       0.00000000       0.00000000      -0.27758533
2
Properties=species:S:1:pos:R:3:forces:R:3 energy=-0.7491800306384218 pbc="F F F"
Er       0.00000000       0.00000000       0.00000000       0.00000000       0.00000000       0.25619712
Er       0.00000000       0.00000000       5.58848485       0.00000000       0.00000000      -0.25619712
2
Properties=species:S:1:pos:R:3:forces:R:3 energy=-0.7351002525852857 pbc="F F F"
Er       0.00000000       0.00000000       0.00000000       0.00000000       0.00000000       0.22299905
Er       0.00000000       0.00000000       5.64727273       0.00000000       0.00000000      -0.22299905
2
Properties=species:S:1:pos:R:3:forces:R:3 energy=-0.7226431731029684 pbc="F F F"
Er       0.00000000       0.00000000       0.00000000       0.00000000       0.00000000       0.20605211
Er       0.00000000       0.00000000       5.70606061       0.00000000       0.00000000      -0.20605211
2
Properties=species:S:1:pos:R:3:forces:R:3 energy=-0.7101709272859003 pbc="F F F"
Er       0.00000000       0.00000000       0.00000000       0.00000000       0.00000000       0.22071375
Er       0.00000000       0.00000000       5.76484848       0.00000000       0.00000000      -0.22071375
2
Properties=species:S:1:pos:R:3:forces:R:3 energy=-0.697065685769298 pbc="F F F"
Er       0.00000000       0.00000000       0.00000000       0.00000000       0.00000000       0.21593963
Er       0.00000000       0.00000000       5.82363636       0.00000000       0.00000000      -0.21593963
2
Properties=species:S:1:pos:R:3:forces:R:3 energy=-0.6861271254363442 pbc="F F F"
Er       0.00000000       0.00000000       0.00000000       0.00000000       0.00000000       0.14886822
Er       0.00000000       0.00000000       5.88242424       0.00000000       0.00000000      -0.14886822
2
Properties=species:S:1:pos:R:3:forces:R:3 energy=-0.6798710976030802 pbc="F F F"
Er       0.00000000       0.00000000       0.00000000       0.00000000       0.00000000       0.06687771
Er       0.00000000       0.00000000       5.94121212       0.00000000       0.00000000      -0.06687771
2
Properties=species:S:1:pos:R:3:forces:R:3 energy=-0.6772892298407053 pbc="F F F"
Er       0.00000000       0.00000000       0.00000000       0.00000000       0.00000000       0.03216203
Er       0.00000000       0.00000000       6.00000000       0.00000000       0.00000000      -0.03216203
