2
Properties=species:S:1:pos:R:3:forces:R:3 energy=5351.739554079033 pbc="F F F"
Ga       0.00000000       0.00000000       0.00000000       0.00000000       0.00000000  -69319.32812500
Ga       0.00000000       0.00000000       0.18000000       0.00000000       0.00000000   69319.32812500
2
Properties=species:S:1:pos:R:3:forces:R:3 energy=2842.6729036884085 pbc="F F F"
Ga       0.00000000       0.00000000       0.00000000       0.00000000       0.00000000  -24938.56054688
Ga       0.00000000       0.00000000       0.23878788       0.00000000       0.00000000   24938.56054688
2
Properties=species:S:1:pos:R:3:forces:R:3 energy=1868.2847200978263 pbc="F F F"
Ga       0.00000000       0.00000000       0.00000000       0.00000000       0.00000000  -10599.12304688
Ga       0.00000000       0.00000000       0.29757576       0.00000000       0.00000000   10599.12304688
2
Properties=species:S:1:pos:R:3:forces:R:3 energy=1431.8417269337638 pbc="F F F"
Ga       0.00000000       0.00000000       0.00000000       0.00000000       0.00000000   -5052.16503906
Ga       0.00000000       0.00000000       0.35636364       0.00000000       0.00000000    5052.16503906
2
Properties=species:S:1:pos:R:3:forces:R:3 energy=1202.606741588537 pbc="F F F"
Ga       0.00000000       0.00000000       0.00000000       0.00000000       0.00000000   -3015.21850586
Ga       0.00000000       0.00000000       0.41515152       0.00000000       0.00000000    3015.21850586
2
Properties=species:S:1:pos:R:3:forces:R:3 energy=1056.3916537105833 pbc="F F F"
Ga       0.00000000       0.00000000       0.00000000       0.00000000       0.00000000   -2117.38696289
Ga       0.00000000       0.00000000       0.47393939       0.00000000       0.00000000    2117.38696289
2
Properties=species:S:1:pos:R:3:forces:R:3 energy=940.4155795108402 pbc="F F F"
Ga       0.00000000       0.00000000       0.00000000       0.00000000       0.00000000   -1932.47070312
Ga       0.00000000       0.00000000       0.53272727       0.00000000       0.00000000    1932.47070312
2
Properties=species:S:1:pos:R:3:forces:R:3 energy=820.8009555285844 pbc="F F F"
Ga       0.00000000       0.00000000       0.00000000       0.00000000       0.00000000   -2158.31103516
Ga       0.00000000       0.00000000       0.59151515       0.00000000       0.00000000    2158.31103516
2
Properties=species:S:1:pos:R:3:forces:R:3 energy=681.6378086161167 pbc="F F F"
Ga       0.00000000       0.00000000       0.00000000       0.00000000       0.00000000   -2612.60424805
Ga       0.00000000       0.00000000       0.65030303       0.00000000       0.00000000    2612.60424805
2
Properties=species:S:1:pos:R:3:forces:R:3 energy=517.1774205338933 pbc="F F F"
Ga       0.00000000       0.00000000       0.00000000       0.00000000       0.00000000   -2864.03149414
Ga       0.00000000       0.00000000       0.70909091       0.00000000       0.00000000    2864.03149414
2
Properties=species:S:1:pos:R:3:forces:R:3 energy=369.7659826913318 pbc="F F F"
Ga       0.00000000       0.00000000       0.00000000       0.00000000       0.00000000   -2156.26220703
Ga       0.00000000       0.00000000       0.76787879       0.00000000       0.00000000    2156.26220703
2
Properties=species:S:1:pos:R:3:forces:R:3 energy=258.3049843842588 pbc="F F F"
Ga       0.00000000       0.00000000       0.00000000       0.00000000       0.00000000   -1645.29125977
Ga       0.00000000       0.00000000       0.82666667       0.00000000       0.00000000    1645.29125977
2
Properties=species:S:1:pos:R:3:forces:R:3 energy=177.56157649158035 pbc="F F F"
Ga       0.00000000       0.00000000       0.00000000       0.00000000       0.00000000   -1110.79406738
Ga       0.00000000       0.00000000       0.88545455       0.00000000       0.00000000    1110.79406738
2
Properties=species:S:1:pos:R:3:forces:R:3 energy=123.94674692115345 pbc="F F F"
Ga       0.00000000       0.00000000       0.00000000       0.00000000       0.00000000    -740.45983887
Ga       0.00000000       0.00000000       0.94424242       0.00000000       0.00000000     740.45983887
2
Properties=species:S:1:pos:R:3:forces:R:3 energy=87.66767190998452 pbc="F F F"
Ga       0.00000000       0.00000000       0.00000000       0.00000000       0.00000000    -513.04779053
Ga       0.00000000       0.00000000       1.00303030       0.00000000       0.00000000     513.04779053
2
Properties=species:S:1:pos:R:3:forces:R:3 energy=62.21384582932141 pbc="F F F"
Ga       0.00000000       0.00000000       0.00000000       0.00000000       0.00000000    -359.34558105
Ga       0.00000000       0.00000000       1.06181818       0.00000000       0.00000000     359.34558105
2
Properties=species:S:1:pos:R:3:forces:R:3 energy=44.80443835605193 pbc="F F F"
Ga       0.00000000       0.00000000       0.00000000       0.00000000       0.00000000    -238.38552856
Ga       0.00000000       0.00000000       1.12060606       0.00000000       0.00000000     238.38552856
2
Properties=species:S:1:pos:R:3:forces:R:3 energy=33.470440154118485 pbc="F F F"
Ga       0.00000000       0.00000000       0.00000000       0.00000000       0.00000000    -153.78060913
Ga       0.00000000       0.00000000       1.17939394       0.00000000       0.00000000     153.78060913
2
Properties=species:S:1:pos:R:3:forces:R:3 energy=25.991977890210993 pbc="F F F"
Ga       0.00000000       0.00000000       0.00000000       0.00000000       0.00000000    -105.83945465
Ga       0.00000000       0.00000000       1.23818182       0.00000000       0.00000000     105.83945465
2
Properties=species:S:1:pos:R:3:forces:R:3 energy=20.581585591162856 pbc="F F F"
Ga       0.00000000       0.00000000       0.00000000       0.00000000       0.00000000     -80.72848511
Ga       0.00000000       0.00000000       1.29696970       0.00000000       0.00000000      80.72848511
2
Properties=species:S:1:pos:R:3:forces:R:3 energy=16.306894145173587 pbc="F F F"
Ga       0.00000000       0.00000000       0.00000000       0.00000000       0.00000000     -65.75218964
Ga       0.00000000       0.00000000       1.35575758       0.00000000       0.00000000      65.75218964
2
Properties=species:S:1:pos:R:3:forces:R:3 energy=12.766311433820858 pbc="F F F"
Ga       0.00000000       0.00000000       0.00000000       0.00000000       0.00000000     -55.16873550
Ga       0.00000000       0.00000000       1.41454545       0.00000000       0.00000000      55.16873550
2
Properties=species:S:1:pos:R:3:forces:R:3 energy=9.785734822789191 pbc="F F F"
Ga       0.00000000       0.00000000       0.00000000       0.00000000       0.00000000     -46.40289307
Ga       0.00000000       0.00000000       1.47333333       0.00000000       0.00000000      46.40289307
2
Properties=species:S:1:pos:R:3:forces:R:3 energy=7.295853341173205 pbc="F F F"
Ga       0.00000000       0.00000000       0.00000000       0.00000000       0.00000000     -38.42408752
Ga       0.00000000       0.00000000       1.53212121       0.00000000       0.00000000      38.42408752
2
Properties=species:S:1:pos:R:3:forces:R:3 energy=5.250957092219721 pbc="F F F"
Ga       0.00000000       0.00000000       0.00000000       0.00000000       0.00000000     -31.31334877
Ga       0.00000000       0.00000000       1.59090909       0.00000000       0.00000000      31.31334877
2
Properties=species:S:1:pos:R:3:forces:R:3 energy=3.593197866329316 pbc="F F F"
Ga       0.00000000       0.00000000       0.00000000       0.00000000       0.00000000     -25.26317978
Ga       0.00000000       0.00000000       1.64969697       0.00000000       0.00000000      25.26317978
2
Properties=species:S:1:pos:R:3:forces:R:3 energy=2.2607210680993433 pbc="F F F"
Ga       0.00000000       0.00000000       0.00000000       0.00000000       0.00000000     -20.22556877
Ga       0.00000000       0.00000000       1.70848485       0.00000000       0.00000000      20.22556877
2
Properties=species:S:1:pos:R:3:forces:R:3 energy=1.1981770176048299 pbc="F F F"
Ga       0.00000000       0.00000000       0.00000000       0.00000000       0.00000000     -16.05557823
Ga       0.00000000       0.00000000       1.76727273       0.00000000       0.00000000      16.05557823
2
Properties=species:S:1:pos:R:3:forces:R:3 energy=0.3584128878450693 pbc="F F F"
Ga       0.00000000       0.00000000       0.00000000       0.00000000       0.00000000     -12.63005447
Ga       0.00000000       0.00000000       1.82606061       0.00000000       0.00000000      12.63005447
2
Properties=species:S:1:pos:R:3:forces:R:3 energy=-0.29970751078515023 pbc="F F F"
Ga       0.00000000       0.00000000       0.00000000       0.00000000       0.00000000      -9.86266708
Ga       0.00000000       0.00000000       1.88484848       0.00000000       0.00000000       9.86266708
2
Properties=species:S:1:pos:R:3:forces:R:3 energy=-0.8124404138301438 pbc="F F F"
Ga       0.00000000       0.00000000       0.00000000       0.00000000       0.00000000      -7.66833591
Ga       0.00000000       0.00000000       1.94363636       0.00000000       0.00000000       7.66833591
2
Properties=species:S:1:pos:R:3:forces:R:3 energy=-1.2106227213358238 pbc="F F F"
Ga       0.00000000       0.00000000       0.00000000       0.00000000       0.00000000      -5.94862413
Ga       0.00000000       0.00000000       2.00242424       0.00000000       0.00000000       5.94862413
2
Properties=species:S:1:pos:R:3:forces:R:3 energy=-1.5191578335127098 pbc="F F F"
Ga       0.00000000       0.00000000       0.00000000       0.00000000       0.00000000      -4.60210562
Ga       0.00000000       0.00000000       2.06121212       0.00000000       0.00000000       4.60210562
2
Properties=species:S:1:pos:R:3:forces:R:3 energy=-1.7572405396446407 pbc="F F F"
Ga       0.00000000       0.00000000       0.00000000       0.00000000       0.00000000      -3.53800631
Ga       0.00000000       0.00000000       2.12000000       0.00000000       0.00000000       3.53800631
2
Properties=species:S:1:pos:R:3:forces:R:3 energy=-1.9392403575084534 pbc="F F F"
Ga       0.00000000       0.00000000       0.00000000       0.00000000       0.00000000      -2.68374109
Ga       0.00000000       0.00000000       2.17878788       0.00000000       0.00000000       2.68374109
2
Properties=species:S:1:pos:R:3:forces:R:3 energy=-2.075839214732406 pbc="F F F"
Ga       0.00000000       0.00000000       0.00000000       0.00000000       0.00000000      -1.98593378
Ga       0.00000000       0.00000000       2.23757576       0.00000000       0.00000000       1.98593378
2
Properties=species:S:1:pos:R:3:forces:R:3 energy=-2.175067987408063 pbc="F F F"
Ga       0.00000000       0.00000000       0.00000000       0.00000000       0.00000000      -1.40740955
Ga       0.00000000       0.00000000       2.29636364       0.00000000       0.00000000       1.40740955
2
Properties=species:S:1:pos:R:3:forces:R:3 energy=-2.2431506602514224 pbc="F F F"
Ga       0.00000000       0.00000000       0.00000000       0.00000000       0.00000000      -0.92280370
Ga       0.00000000       0.00000000       2.35515152       0.00000000       0.00000000       0.92280370
2
Properties=species:S:1:pos:R:3:forces:R:3 energy=-2.2850620455121504 pbc="F F F"
Ga       0.00000000       0.00000000       0.00000000       0.00000000       0.00000000      -0.51463819
Ga       0.00000000       0.00000000       2.41393939       0.00000000       0.00000000       0.51463819
2
Properties=species:S:1:pos:R:3:forces:R:3 energy=-2.3049118571294995 pbc="F F F"
Ga       0.00000000       0.00000000       0.00000000       0.00000000       0.00000000      -0.17048387
Ga       0.00000000       0.00000000       2.47272727       0.00000000       0.00000000       0.17048387
2
Properties=species:S:1:pos:R:3:forces:R:3 energy=-2.306181011382529 pbc="F F F"
Ga       0.00000000       0.00000000       0.00000000       0.00000000       0.00000000       0.11876737
Ga       0.00000000       0.00000000       2.53151515       0.00000000       0.00000000      -0.11876737
2
Properties=species:S:1:pos:R:3:forces:R:3 energy=-2.291892955645733 pbc="F F F"
Ga       0.00000000       0.00000000       0.00000000       0.00000000       0.00000000       0.35973698
Ga       0.00000000       0.00000000       2.59030303       0.00000000       0.00000000      -0.35973698
2
Properties=species:S:1:pos:R:3:forces:R:3 energy=-2.2647360893380313 pbc="F F F"
Ga       0.00000000       0.00000000       0.00000000       0.00000000       0.00000000       0.55723947
Ga       0.00000000       0.00000000       2.64909091       0.00000000       0.00000000      -0.55723947
2
Properties=species:S:1:pos:R:3:forces:R:3 energy=-2.2271566108250833 pbc="F F F"
Ga       0.00000000       0.00000000       0.00000000       0.00000000       0.00000000       0.71481717
Ga       0.00000000       0.00000000       2.70787879       0.00000000       0.00000000      -0.71481717
2
Properties=species:S:1:pos:R:3:forces:R:3 energy=-2.1814159278530925 pbc="F F F"
Ga       0.00000000       0.00000000       0.00000000       0.00000000       0.00000000       0.83537638
Ga       0.00000000       0.00000000       2.76666667       0.00000000       0.00000000      -0.83537638
2
Properties=species:S:1:pos:R:3:forces:R:3 energy=-2.1296051217920615 pbc="F F F"
Ga       0.00000000       0.00000000       0.00000000       0.00000000       0.00000000       0.92182916
Ga       0.00000000       0.00000000       2.82545455       0.00000000       0.00000000      -0.92182916
2
Properties=species:S:1:pos:R:3:forces:R:3 energy=-2.0736283769833252 pbc="F F F"
Ga       0.00000000       0.00000000       0.00000000       0.00000000       0.00000000       0.97789228
Ga       0.00000000       0.00000000       2.88424242       0.00000000       0.00000000      -0.97789228
2
Properties=species:S:1:pos:R:3:forces:R:3 energy=-2.0151197649196746 pbc="F F F"
Ga       0.00000000       0.00000000       0.00000000       0.00000000       0.00000000       1.00895834
Ga       0.00000000       0.00000000       2.94303030       0.00000000       0.00000000      -1.00895834
2
Properties=species:S:1:pos:R:3:forces:R:3 energy=-1.9553593574830892 pbc="F F F"
Ga       0.00000000       0.00000000       0.00000000       0.00000000       0.00000000       1.02153945
Ga       0.00000000       0.00000000       3.00181818       0.00000000       0.00000000      -1.02153945
2
Properties=species:S:1:pos:R:3:forces:R:3 energy=-1.895277619291743 pbc="F F F"
Ga       0.00000000       0.00000000       0.00000000       0.00000000       0.00000000       1.02042401
Ga       0.00000000       0.00000000       3.06060606       0.00000000       0.00000000      -1.02042401
2
Properties=species:S:1:pos:R:3:forces:R:3 energy=-1.8356089294797238 pbc="F F F"
Ga       0.00000000       0.00000000       0.00000000       0.00000000       0.00000000       1.00775790
Ga       0.00000000       0.00000000       3.11939394       0.00000000       0.00000000      -1.00775790
2
Properties=species:S:1:pos:R:3:forces:R:3 energy=-1.7769790530734986 pbc="F F F"
Ga       0.00000000       0.00000000       0.00000000       0.00000000       0.00000000       0.98547345
Ga       0.00000000       0.00000000       3.17818182       0.00000000       0.00000000      -0.98547345
2
Properties=species:S:1:pos:R:3:forces:R:3 energy=-1.7198726001765534 pbc="F F F"
Ga       0.00000000       0.00000000       0.00000000       0.00000000       0.00000000       0.95650232
Ga       0.00000000       0.00000000       3.23696970       0.00000000       0.00000000      -0.95650232
2
Properties=species:S:1:pos:R:3:forces:R:3 energy=-1.6645858152893622 pbc="F F F"
Ga       0.00000000       0.00000000       0.00000000       0.00000000       0.00000000       0.92405540
Ga       0.00000000       0.00000000       3.29575758       0.00000000       0.00000000      -0.92405540
2
Properties=species:S:1:pos:R:3:forces:R:3 energy=-1.6112409912782117 pbc="F F F"
Ga       0.00000000       0.00000000       0.00000000       0.00000000       0.00000000       0.89080143
Ga       0.00000000       0.00000000       3.35454545       0.00000000       0.00000000      -0.89080143
2
Properties=species:S:1:pos:R:3:forces:R:3 energy=-1.5598290289152557 pbc="F F F"
Ga       0.00000000       0.00000000       0.00000000       0.00000000       0.00000000       0.85852319
Ga       0.00000000       0.00000000       3.41333333       0.00000000       0.00000000      -0.85852319
2
Properties=species:S:1:pos:R:3:forces:R:3 energy=-1.510262730135292 pbc="F F F"
Ga       0.00000000       0.00000000       0.00000000       0.00000000       0.00000000       0.82809943
Ga       0.00000000       0.00000000       3.47212121       0.00000000       0.00000000      -0.82809943
2
Properties=species:S:1:pos:R:3:forces:R:3 energy=-1.462425709555109 pbc="F F F"
Ga       0.00000000       0.00000000       0.00000000       0.00000000       0.00000000       0.79966545
Ga       0.00000000       0.00000000       3.53090909       0.00000000       0.00000000      -0.79966545
2
Properties=species:S:1:pos:R:3:forces:R:3 energy=-1.416209356377292 pbc="F F F"
Ga       0.00000000       0.00000000       0.00000000       0.00000000       0.00000000       0.77285320
Ga       0.00000000       0.00000000       3.58969697       0.00000000       0.00000000      -0.77285320
2
Properties=species:S:1:pos:R:3:forces:R:3 energy=-1.3715365100337302 pbc="F F F"
Ga       0.00000000       0.00000000       0.00000000       0.00000000       0.00000000       0.74703664
Ga       0.00000000       0.00000000       3.64848485       0.00000000       0.00000000      -0.74703664
2
Properties=species:S:1:pos:R:3:forces:R:3 energy=-1.3283700981155442 pbc="F F F"
Ga       0.00000000       0.00000000       0.00000000       0.00000000       0.00000000       0.72154015
Ga       0.00000000       0.00000000       3.70727273       0.00000000       0.00000000      -0.72154015
2
Properties=species:S:1:pos:R:3:forces:R:3 energy=-1.2867071995873476 pbc="F F F"
Ga       0.00000000       0.00000000       0.00000000       0.00000000       0.00000000       0.69575632
Ga       0.00000000       0.00000000       3.76606061       0.00000000       0.00000000      -0.69575632
2
Properties=species:S:1:pos:R:3:forces:R:3 energy=-1.2465806613683124 pbc="F F F"
Ga       0.00000000       0.00000000       0.00000000       0.00000000       0.00000000       0.66923910
Ga       0.00000000       0.00000000       3.82484848       0.00000000       0.00000000      -0.66923910
2
Properties=species:S:1:pos:R:3:forces:R:3 energy=-1.2080410620514839 pbc="F F F"
Ga       0.00000000       0.00000000       0.00000000       0.00000000       0.00000000       0.64169961
Ga       0.00000000       0.00000000       3.88363636       0.00000000       0.00000000      -0.64169961
2
Properties=species:S:1:pos:R:3:forces:R:3 energy=-1.1711545082838521 pbc="F F F"
Ga       0.00000000       0.00000000       0.00000000       0.00000000       0.00000000       0.61301082
Ga       0.00000000       0.00000000       3.94242424       0.00000000       0.00000000      -0.61301082
2
Properties=species:S:1:pos:R:3:forces:R:3 energy=-1.1359883961758717 pbc="F F F"
Ga       0.00000000       0.00000000       0.00000000       0.00000000       0.00000000       0.58319509
Ga       0.00000000       0.00000000       4.00121212       0.00000000       0.00000000      -0.58319509
2
Properties=species:S:1:pos:R:3:forces:R:3 energy=-1.1026043284361755 pbc="F F F"
Ga       0.00000000       0.00000000       0.00000000       0.00000000       0.00000000       0.55240065
Ga       0.00000000       0.00000000       4.06000000       0.00000000       0.00000000      -0.55240065
2
Properties=species:S:1:pos:R:3:forces:R:3 energy=-1.0710536129289707 pbc="F F F"
Ga       0.00000000       0.00000000       0.00000000       0.00000000       0.00000000       0.52089375
Ga       0.00000000       0.00000000       4.11878788       0.00000000       0.00000000      -0.52089375
2
Properties=species:S:1:pos:R:3:forces:R:3 energy=-1.0413662110561552 pbc="F F F"
Ga       0.00000000       0.00000000       0.00000000       0.00000000       0.00000000       0.48904774
Ga       0.00000000       0.00000000       4.17757576       0.00000000       0.00000000      -0.48904774
2
Properties=species:S:1:pos:R:3:forces:R:3 energy=-1.0135505019225834 pbc="F F F"
Ga       0.00000000       0.00000000       0.00000000       0.00000000       0.00000000       0.45732197
Ga       0.00000000       0.00000000       4.23636364       0.00000000       0.00000000      -0.45732197
2
Properties=species:S:1:pos:R:3:forces:R:3 energy=-0.9875837703515042 pbc="F F F"
Ga       0.00000000       0.00000000       0.00000000       0.00000000       0.00000000       0.42622891
Ga       0.00000000       0.00000000       4.29515152       0.00000000       0.00000000      -0.42622891
2
Properties=species:S:1:pos:R:3:forces:R:3 energy=-0.9634139264997689 pbc="F F F"
Ga       0.00000000       0.00000000       0.00000000       0.00000000       0.00000000       0.39629775
Ga       0.00000000       0.00000000       4.35393939       0.00000000       0.00000000      -0.39629775
2
Properties=species:S:1:pos:R:3:forces:R:3 energy=-0.9409569094279557 pbc="F F F"
Ga       0.00000000       0.00000000       0.00000000       0.00000000       0.00000000       0.36800995
Ga       0.00000000       0.00000000       4.41272727       0.00000000       0.00000000      -0.36800995
2
Properties=species:S:1:pos:R:3:forces:R:3 energy=-0.920104984817283 pbc="F F F"
Ga       0.00000000       0.00000000       0.00000000       0.00000000       0.00000000       0.34173808
Ga       0.00000000       0.00000000       4.47151515       0.00000000       0.00000000      -0.34173808
2
Properties=species:S:1:pos:R:3:forces:R:3 energy=-0.9007329305974007 pbc="F F F"
Ga       0.00000000       0.00000000       0.00000000       0.00000000       0.00000000       0.31768420
Ga       0.00000000       0.00000000       4.53030303       0.00000000       0.00000000      -0.31768420
2
Properties=species:S:1:pos:R:3:forces:R:3 energy=-0.8827100036407497 pbc="F F F"
Ga       0.00000000       0.00000000       0.00000000       0.00000000       0.00000000       0.29582402
Ga       0.00000000       0.00000000       4.58909091       0.00000000       0.00000000      -0.29582402
2
Properties=species:S:1:pos:R:3:forces:R:3 energy=-0.8659138739941745 pbc="F F F"
Ga       0.00000000       0.00000000       0.00000000       0.00000000       0.00000000       0.27588865
Ga       0.00000000       0.00000000       4.64787879       0.00000000       0.00000000      -0.27588865
2
Properties=species:S:1:pos:R:3:forces:R:3 energy=-0.8502435743419746 pbc="F F F"
Ga       0.00000000       0.00000000       0.00000000       0.00000000       0.00000000       0.25739887
Ga       0.00000000       0.00000000       4.70666667       0.00000000       0.00000000      -0.25739887
2
Properties=species:S:1:pos:R:3:forces:R:3 energy=-0.8356328861243603 pbc="F F F"
Ga       0.00000000       0.00000000       0.00000000       0.00000000       0.00000000       0.23977134
Ga       0.00000000       0.00000000       4.76545455       0.00000000       0.00000000      -0.23977134
2
Properties=species:S:1:pos:R:3:forces:R:3 energy=-0.8220454281979148 pbc="F F F"
Ga       0.00000000       0.00000000       0.00000000       0.00000000       0.00000000       0.22249487
Ga       0.00000000       0.00000000       4.82424242       0.00000000       0.00000000      -0.22249487
2
Properties=species:S:1:pos:R:3:forces:R:3 energy=-0.8094713779961568 pbc="F F F"
Ga       0.00000000       0.00000000       0.00000000       0.00000000       0.00000000       0.20534238
Ga       0.00000000       0.00000000       4.88303030       0.00000000       0.00000000      -0.20534238
2
Properties=species:S:1:pos:R:3:forces:R:3 energy=-0.7978953392902955 pbc="F F F"
Ga       0.00000000       0.00000000       0.00000000       0.00000000       0.00000000       0.18857384
Ga       0.00000000       0.00000000       4.94181818       0.00000000       0.00000000      -0.18857384
2
Properties=species:S:1:pos:R:3:forces:R:3 energy=-0.7872750158137152 pbc="F F F"
Ga       0.00000000       0.00000000       0.00000000       0.00000000       0.00000000       0.17302328
Ga       0.00000000       0.00000000       5.00060606       0.00000000       0.00000000      -0.17302328
2
Properties=species:S:1:pos:R:3:forces:R:3 energy=-0.7775026898224034 pbc="F F F"
Ga       0.00000000       0.00000000       0.00000000       0.00000000       0.00000000       0.15996893
Ga       0.00000000       0.00000000       5.05939394       0.00000000       0.00000000      -0.15996893
2
Properties=species:S:1:pos:R:3:forces:R:3 energy=-0.7683915783829663 pbc="F F F"
Ga       0.00000000       0.00000000       0.00000000       0.00000000       0.00000000       0.15071380
Ga       0.00000000       0.00000000       5.11818182       0.00000000       0.00000000      -0.15071380
2
Properties=species:S:1:pos:R:3:forces:R:3 energy=-0.7596953694409151 pbc="F F F"
Ga       0.00000000       0.00000000       0.00000000       0.00000000       0.00000000       0.14587221
Ga       0.00000000       0.00000000       5.17696970       0.00000000       0.00000000      -0.14587221
2
Properties=species:S:1:pos:R:3:forces:R:3 energy=-0.7511725938370882 pbc="F F F"
Ga       0.00000000       0.00000000       0.00000000       0.00000000       0.00000000       0.14446171
Ga       0.00000000       0.00000000       5.23575758       0.00000000       0.00000000      -0.14446171
2
Properties=species:S:1:pos:R:3:forces:R:3 energy=-0.7427066753978738 pbc="F F F"
Ga       0.00000000       0.00000000       0.00000000       0.00000000       0.00000000       0.14319679
Ga       0.00000000       0.00000000       5.29454545       0.00000000       0.00000000      -0.14319679
2
Properties=species:S:1:pos:R:3:forces:R:3 energy=-0.7344252315076262 pbc="F F F"
Ga       0.00000000       0.00000000       0.00000000       0.00000000       0.00000000       0.13749208
Ga       0.00000000       0.00000000       5.35333333       0.00000000       0.00000000      -0.13749208
2
Properties=species:S:1:pos:R:3:forces:R:3 energy=-0.7266377171467646 pbc="F F F"
Ga       0.00000000       0.00000000       0.00000000       0.00000000       0.00000000       0.12727770
Ga       0.00000000       0.00000000       5.41212121       0.00000000       0.00000000      -0.12727770
2
Properties=species:S:1:pos:R:3:forces:R:3 energy=-0.7193334230701385 pbc="F F F"
Ga       0.00000000       0.00000000       0.00000000       0.00000000       0.00000000       0.12341808
Ga       0.00000000       0.00000000       5.47090909       0.00000000       0.00000000      -0.12341808
2
Properties=species:S:1:pos:R:3:forces:R:3 energy=-0.7119010670476045 pbc="F F F"
Ga       0.00000000       0.00000000       0.00000000       0.00000000       0.00000000       0.12977222
Ga       0.00000000       0.00000000       5.52969697       0.00000000       0.00000000      -0.12977222
2
Properties=species:S:1:pos:R:3:forces:R:3 energy=-0.7042890584632003 pbc="F F F"
Ga       0.00000000       0.00000000       0.00000000       0.00000000       0.00000000       0.12612206
Ga       0.00000000       0.00000000       5.58848485       0.00000000       0.00000000      -0.12612206
2
Properties=species:S:1:pos:R:3:forces:R:3 energy=-0.6973591912773068 pbc="F F F"
Ga       0.00000000       0.00000000       0.00000000       0.00000000       0.00000000       0.10876095
Ga       0.00000000       0.00000000       5.64727273       0.00000000       0.00000000      -0.10876095
2
Properties=species:S:1:pos:R:3:forces:R:3 energy=-0.6913489499374885 pbc="F F F"
Ga       0.00000000       0.00000000       0.00000000       0.00000000       0.00000000       0.09929023
Ga       0.00000000       0.00000000       5.70606061       0.00000000       0.00000000      -0.09929023
2
Properties=species:S:1:pos:R:3:forces:R:3 energy=-0.6851736500699281 pbc="F F F"
Ga       0.00000000       0.00000000       0.00000000       0.00000000       0.00000000       0.11320151
Ga       0.00000000       0.00000000       5.76484848       0.00000000       0.00000000      -0.11320151
2
Properties=species:S:1:pos:R:3:forces:R:3 energy=-0.6782547010441096 pbc="F F F"
Ga       0.00000000       0.00000000       0.00000000       0.00000000       0.00000000       0.11621368
Ga       0.00000000       0.00000000       5.82363636       0.00000000       0.00000000      -0.11621368
2
Properties=species:S:1:pos:R:3:forces:R:3 energy=-0.6724055646656903 pbc="F F F"
Ga       0.00000000       0.00000000       0.00000000       0.00000000       0.00000000       0.07750517
Ga       0.00000000       0.00000000       5.88242424       0.00000000       0.00000000      -0.07750517
2
Properties=species:S:1:pos:R:3:forces:R:3 energy=-0.6693312939787943 pbc="F F F"
Ga       0.00000000       0.00000000       0.00000000       0.00000000       0.00000000       0.02879216
Ga       0.00000000       0.00000000       5.94121212       0.00000000       0.00000000      -0.02879216
2
Properties=species:S:1:pos:R:3:forces:R:3 energy=-0.668439160796699 pbc="F F F"
Ga       0.00000000       0.00000000       0.00000000       0.00000000       0.00000000       0.00820687
Ga       0.00000000       0.00000000       6.00000000       0.00000000       0.00000000      -0.00820687
