2
Properties=species:S:1:pos:R:3:forces:R:3 energy=21643.948103325718 pbc="F F F"
Hf       0.00000000       0.00000000       0.00000000       0.00000000       0.00000000 -250037.54687500
Hf       0.00000000       0.00000000       0.18000000       0.00000000       0.00000000  250037.54687500
2
Properties=species:S:1:pos:R:3:forces:R:3 energy=12845.181501763218 pbc="F F F"
Hf       0.00000000       0.00000000       0.00000000       0.00000000       0.00000000  -84725.48437500
Hf       0.00000000       0.00000000       0.23878788       0.00000000       0.00000000   84725.48437500
2
Properties=species:S:1:pos:R:3:forces:R:3 energy=9540.442243950718 pbc="F F F"
Hf       0.00000000       0.00000000       0.00000000       0.00000000       0.00000000  -36790.96875000
Hf       0.00000000       0.00000000       0.29757576       0.00000000       0.00000000   36790.96875000
2
Properties=species:S:1:pos:R:3:forces:R:3 energy=7896.656111141386 pbc="F F F"
Hf       0.00000000       0.00000000       0.00000000       0.00000000       0.00000000  -22160.26953125
Hf       0.00000000       0.00000000       0.35636364       0.00000000       0.00000000   22160.26953125
2
Properties=species:S:1:pos:R:3:forces:R:3 energy=6711.330427547636 pbc="F F F"
Hf       0.00000000       0.00000000       0.00000000       0.00000000       0.00000000  -19303.76171875
Hf       0.00000000       0.00000000       0.41515152       0.00000000       0.00000000   19303.76171875
2
Properties=species:S:1:pos:R:3:forces:R:3 energy=5548.9388259883035 pbc="F F F"
Hf       0.00000000       0.00000000       0.00000000       0.00000000       0.00000000  -20528.43554688
Hf       0.00000000       0.00000000       0.47393939       0.00000000       0.00000000   20528.43554688
2
Properties=species:S:1:pos:R:3:forces:R:3 energy=4297.944685372807 pbc="F F F"
Hf       0.00000000       0.00000000       0.00000000       0.00000000       0.00000000  -21783.85937500
Hf       0.00000000       0.00000000       0.53272727       0.00000000       0.00000000   21783.85937500
2
Properties=species:S:1:pos:R:3:forces:R:3 energy=3036.589949057353 pbc="F F F"
Hf       0.00000000       0.00000000       0.00000000       0.00000000       0.00000000  -20609.01367188
Hf       0.00000000       0.00000000       0.59151515       0.00000000       0.00000000   20609.01367188
2
Properties=species:S:1:pos:R:3:forces:R:3 energy=1818.0934891154225 pbc="F F F"
Hf       0.00000000       0.00000000       0.00000000       0.00000000       0.00000000  -14399.27148438
Hf       0.00000000       0.00000000       0.65030303       0.00000000       0.00000000   14399.27148438
2
Properties=species:S:1:pos:R:3:forces:R:3 energy=1091.488386614374 pbc="F F F"
Hf       0.00000000       0.00000000       0.00000000       0.00000000       0.00000000  -10011.87402344
Hf       0.00000000       0.00000000       0.70909091       0.00000000       0.00000000   10011.87402344
2
Properties=species:S:1:pos:R:3:forces:R:3 energy=698.1910844189653 pbc="F F F"
Hf       0.00000000       0.00000000       0.00000000       0.00000000       0.00000000   -5398.91503906
Hf       0.00000000       0.00000000       0.76787879       0.00000000       0.00000000    5398.91503906
2
Properties=species:S:1:pos:R:3:forces:R:3 energy=415.62043630480144 pbc="F F F"
Hf       0.00000000       0.00000000       0.00000000       0.00000000       0.00000000   -3783.80566406
Hf       0.00000000       0.00000000       0.82666667       0.00000000       0.00000000    3783.80566406
2
Properties=species:S:1:pos:R:3:forces:R:3 energy=251.8192279227493 pbc="F F F"
Hf       0.00000000       0.00000000       0.00000000       0.00000000       0.00000000   -2043.33715820
Hf       0.00000000       0.00000000       0.88545455       0.00000000       0.00000000    2043.33715820
2
Properties=species:S:1:pos:R:3:forces:R:3 energy=172.22712602719133 pbc="F F F"
Hf       0.00000000       0.00000000       0.00000000       0.00000000       0.00000000    -827.12091064
Hf       0.00000000       0.00000000       0.94424242       0.00000000       0.00000000     827.12091064
2
Properties=species:S:1:pos:R:3:forces:R:3 energy=139.50704872478698 pbc="F F F"
Hf       0.00000000       0.00000000       0.00000000       0.00000000       0.00000000    -430.22766113
Hf       0.00000000       0.00000000       1.00303030       0.00000000       0.00000000     430.22766113
2
Properties=species:S:1:pos:R:3:forces:R:3 energy=114.36765234874615 pbc="F F F"
Hf       0.00000000       0.00000000       0.00000000       0.00000000       0.00000000    -392.94821167
Hf       0.00000000       0.00000000       1.06181818       0.00000000       0.00000000     392.94821167
2
Properties=species:S:1:pos:R:3:forces:R:3 energy=93.29719527355654 pbc="F F F"
Hf       0.00000000       0.00000000       0.00000000       0.00000000       0.00000000    -329.70370483
Hf       0.00000000       0.00000000       1.12060606       0.00000000       0.00000000     329.70370483
2
Properties=species:S:1:pos:R:3:forces:R:3 energy=75.00603519691198 pbc="F F F"
Hf       0.00000000       0.00000000       0.00000000       0.00000000       0.00000000    -294.78549194
Hf       0.00000000       0.00000000       1.17939394       0.00000000       0.00000000     294.78549194
2
Properties=species:S:1:pos:R:3:forces:R:3 energy=58.69973091784272 pbc="F F F"
Hf       0.00000000       0.00000000       0.00000000       0.00000000       0.00000000    -258.10089111
Hf       0.00000000       0.00000000       1.23818182       0.00000000       0.00000000     258.10089111
2
Properties=species:S:1:pos:R:3:forces:R:3 energy=44.82414810229831 pbc="F F F"
Hf       0.00000000       0.00000000       0.00000000       0.00000000       0.00000000    -213.73114014
Hf       0.00000000       0.00000000       1.29696970       0.00000000       0.00000000     213.73114014
2
Properties=species:S:1:pos:R:3:forces:R:3 energy=33.452559496538555 pbc="F F F"
Hf       0.00000000       0.00000000       0.00000000       0.00000000       0.00000000    -174.76432800
Hf       0.00000000       0.00000000       1.35575758       0.00000000       0.00000000     174.76432800
2
Properties=species:S:1:pos:R:3:forces:R:3 energy=24.11966172389246 pbc="F F F"
Hf       0.00000000       0.00000000       0.00000000       0.00000000       0.00000000    -143.56369019
Hf       0.00000000       0.00000000       1.41454545       0.00000000       0.00000000     143.56369019
2
Properties=species:S:1:pos:R:3:forces:R:3 energy=16.510635499107682 pbc="F F F"
Hf       0.00000000       0.00000000       0.00000000       0.00000000       0.00000000    -115.79212952
Hf       0.00000000       0.00000000       1.47333333       0.00000000       0.00000000     115.79212952
2
Properties=species:S:1:pos:R:3:forces:R:3 energy=10.430847404821767 pbc="F F F"
Hf       0.00000000       0.00000000       0.00000000       0.00000000       0.00000000     -91.79982758
Hf       0.00000000       0.00000000       1.53212121       0.00000000       0.00000000      91.79982758
2
Properties=species:S:1:pos:R:3:forces:R:3 energy=5.629003854684419 pbc="F F F"
Hf       0.00000000       0.00000000       0.00000000       0.00000000       0.00000000     -72.24008942
Hf       0.00000000       0.00000000       1.59090909       0.00000000       0.00000000      72.24008942
2
Properties=species:S:1:pos:R:3:forces:R:3 energy=1.8672985981972956 pbc="F F F"
Hf       0.00000000       0.00000000       0.00000000       0.00000000       0.00000000     -56.27788162
Hf       0.00000000       0.00000000       1.64969697       0.00000000       0.00000000      56.27788162
2
Properties=species:S:1:pos:R:3:forces:R:3 energy=-1.0502469174505928 pbc="F F F"
Hf       0.00000000       0.00000000       0.00000000       0.00000000       0.00000000     -43.49865723
Hf       0.00000000       0.00000000       1.70848485       0.00000000       0.00000000      43.49865723
2
Properties=species:S:1:pos:R:3:forces:R:3 energy=-3.3043357381967993 pbc="F F F"
Hf       0.00000000       0.00000000       0.00000000       0.00000000       0.00000000     -33.62406921
Hf       0.00000000       0.00000000       1.76727273       0.00000000       0.00000000      33.62406921
2
Properties=species:S:1:pos:R:3:forces:R:3 energy=-5.047887020274922 pbc="F F F"
Hf       0.00000000       0.00000000       0.00000000       0.00000000       0.00000000     -26.01074028
Hf       0.00000000       0.00000000       1.82606061       0.00000000       0.00000000      26.01074028
2
Properties=species:S:1:pos:R:3:forces:R:3 energy=-6.394437550884428 pbc="F F F"
Hf       0.00000000       0.00000000       0.00000000       0.00000000       0.00000000     -20.03222656
Hf       0.00000000       0.00000000       1.88484848       0.00000000       0.00000000      20.03222656
2
Properties=species:S:1:pos:R:3:forces:R:3 energy=-7.427241486770243 pbc="F F F"
Hf       0.00000000       0.00000000       0.00000000       0.00000000       0.00000000     -15.28630733
Hf       0.00000000       0.00000000       1.94363636       0.00000000       0.00000000      15.28630733
2
Properties=species:S:1:pos:R:3:forces:R:3 energy=-8.211047490600146 pbc="F F F"
Hf       0.00000000       0.00000000       0.00000000       0.00000000       0.00000000     -11.52749634
Hf       0.00000000       0.00000000       2.00242424       0.00000000       0.00000000      11.52749634
2
Properties=species:S:1:pos:R:3:forces:R:3 energy=-8.798152067814376 pbc="F F F"
Hf       0.00000000       0.00000000       0.00000000       0.00000000       0.00000000      -8.56257725
Hf       0.00000000       0.00000000       2.06121212       0.00000000       0.00000000       8.56257725
2
Properties=species:S:1:pos:R:3:forces:R:3 energy=-9.229777740054438 pbc="F F F"
Hf       0.00000000       0.00000000       0.00000000       0.00000000       0.00000000      -6.21105146
Hf       0.00000000       0.00000000       2.12000000       0.00000000       0.00000000       6.21105146
2
Properties=species:S:1:pos:R:3:forces:R:3 energy=-9.537991882237224 pbc="F F F"
Hf       0.00000000       0.00000000       0.00000000       0.00000000       0.00000000      -4.35047436
Hf       0.00000000       0.00000000       2.17878788       0.00000000       0.00000000       4.35047436
2
Properties=species:S:1:pos:R:3:forces:R:3 energy=-9.749775173216534 pbc="F F F"
Hf       0.00000000       0.00000000       0.00000000       0.00000000       0.00000000      -2.92226481
Hf       0.00000000       0.00000000       2.23757576       0.00000000       0.00000000       2.92226481
2
Properties=species:S:1:pos:R:3:forces:R:3 energy=-9.888692436353235 pbc="F F F"
Hf       0.00000000       0.00000000       0.00000000       0.00000000       0.00000000      -1.85531139
Hf       0.00000000       0.00000000       2.29636364       0.00000000       0.00000000       1.85531139
2
Properties=species:S:1:pos:R:3:forces:R:3 energy=-9.972805543784737 pbc="F F F"
Hf       0.00000000       0.00000000       0.00000000       0.00000000       0.00000000      -1.03848398
Hf       0.00000000       0.00000000       2.35515152       0.00000000       0.00000000       1.03848398
2
Properties=species:S:1:pos:R:3:forces:R:3 energy=-10.013740938355445 pbc="F F F"
Hf       0.00000000       0.00000000       0.00000000       0.00000000       0.00000000      -0.37394738
Hf       0.00000000       0.00000000       2.41393939       0.00000000       0.00000000       0.37394738
2
Properties=species:S:1:pos:R:3:forces:R:3 energy=-10.01878507466963 pbc="F F F"
Hf       0.00000000       0.00000000       0.00000000       0.00000000       0.00000000       0.18660712
Hf       0.00000000       0.00000000       2.47272727       0.00000000       0.00000000      -0.18660712
2
Properties=species:S:1:pos:R:3:forces:R:3 energy=-9.993606328975675 pbc="F F F"
Hf       0.00000000       0.00000000       0.00000000       0.00000000       0.00000000       0.65470928
Hf       0.00000000       0.00000000       2.53151515       0.00000000       0.00000000      -0.65470928
2
Properties=species:S:1:pos:R:3:forces:R:3 energy=-9.94359647664461 pbc="F F F"
Hf       0.00000000       0.00000000       0.00000000       0.00000000       0.00000000       1.03172374
Hf       0.00000000       0.00000000       2.59030303       0.00000000       0.00000000      -1.03172374
2
Properties=species:S:1:pos:R:3:forces:R:3 energy=-9.873979800524458 pbc="F F F"
Hf       0.00000000       0.00000000       0.00000000       0.00000000       0.00000000       1.32318735
Hf       0.00000000       0.00000000       2.64909091       0.00000000       0.00000000      -1.32318735
2
Properties=species:S:1:pos:R:3:forces:R:3 energy=-9.789486680578554 pbc="F F F"
Hf       0.00000000       0.00000000       0.00000000       0.00000000       0.00000000       1.53989768
Hf       0.00000000       0.00000000       2.70787879       0.00000000       0.00000000      -1.53989768
2
Properties=species:S:1:pos:R:3:forces:R:3 energy=-9.694149009754208 pbc="F F F"
Hf       0.00000000       0.00000000       0.00000000       0.00000000       0.00000000       1.69405675
Hf       0.00000000       0.00000000       2.76666667       0.00000000       0.00000000      -1.69405675
2
Properties=species:S:1:pos:R:3:forces:R:3 energy=-9.591327054775116 pbc="F F F"
Hf       0.00000000       0.00000000       0.00000000       0.00000000       0.00000000       1.79605818
Hf       0.00000000       0.00000000       2.82545455       0.00000000       0.00000000      -1.79605818
2
Properties=species:S:1:pos:R:3:forces:R:3 energy=-9.483846860631262 pbc="F F F"
Hf       0.00000000       0.00000000       0.00000000       0.00000000       0.00000000       1.85362315
Hf       0.00000000       0.00000000       2.88424242       0.00000000       0.00000000      -1.85362315
2
Properties=species:S:1:pos:R:3:forces:R:3 energy=-9.374136980162843 pbc="F F F"
Hf       0.00000000       0.00000000       0.00000000       0.00000000       0.00000000       1.87290418
Hf       0.00000000       0.00000000       2.94303030       0.00000000       0.00000000      -1.87290418
2
Properties=species:S:1:pos:R:3:forces:R:3 energy=-9.264263512440296 pbc="F F F"
Hf       0.00000000       0.00000000       0.00000000       0.00000000       0.00000000       1.86034167
Hf       0.00000000       0.00000000       3.00181818       0.00000000       0.00000000      -1.86034167
2
Properties=species:S:1:pos:R:3:forces:R:3 energy=-9.15587454352292 pbc="F F F"
Hf       0.00000000       0.00000000       0.00000000       0.00000000       0.00000000       1.82387698
Hf       0.00000000       0.00000000       3.06060606       0.00000000       0.00000000      -1.82387698
2
Properties=species:S:1:pos:R:3:forces:R:3 energy=-9.050101393773486 pbc="F F F"
Hf       0.00000000       0.00000000       0.00000000       0.00000000       0.00000000       1.77310812
Hf       0.00000000       0.00000000       3.11939394       0.00000000       0.00000000      -1.77310812
2
Properties=species:S:1:pos:R:3:forces:R:3 energy=-8.947471459649279 pbc="F F F"
Hf       0.00000000       0.00000000       0.00000000       0.00000000       0.00000000       1.71873403
Hf       0.00000000       0.00000000       3.17818182       0.00000000       0.00000000      -1.71873403
2
Properties=species:S:1:pos:R:3:forces:R:3 energy=-8.84788253167442 pbc="F F F"
Hf       0.00000000       0.00000000       0.00000000       0.00000000       0.00000000       1.67128015
Hf       0.00000000       0.00000000       3.23696970       0.00000000       0.00000000      -1.67128015
2
Properties=species:S:1:pos:R:3:forces:R:3 energy=-8.75069543603349 pbc="F F F"
Hf       0.00000000       0.00000000       0.00000000       0.00000000       0.00000000       1.63755417
Hf       0.00000000       0.00000000       3.29575758       0.00000000       0.00000000      -1.63755417
2
Properties=species:S:1:pos:R:3:forces:R:3 energy=-8.655099678177116 pbc="F F F"
Hf       0.00000000       0.00000000       0.00000000       0.00000000       0.00000000       1.61608815
Hf       0.00000000       0.00000000       3.35454545       0.00000000       0.00000000      -1.61608815
2
Properties=species:S:1:pos:R:3:forces:R:3 energy=-8.560606733312268 pbc="F F F"
Hf       0.00000000       0.00000000       0.00000000       0.00000000       0.00000000       1.59848845
Hf       0.00000000       0.00000000       3.41333333       0.00000000       0.00000000      -1.59848845
2
Properties=species:S:1:pos:R:3:forces:R:3 energy=-8.467240593898467 pbc="F F F"
Hf       0.00000000       0.00000000       0.00000000       0.00000000       0.00000000       1.57673860
Hf       0.00000000       0.00000000       3.47212121       0.00000000       0.00000000      -1.57673860
2
Properties=species:S:1:pos:R:3:forces:R:3 energy=-8.375380480870174 pbc="F F F"
Hf       0.00000000       0.00000000       0.00000000       0.00000000       0.00000000       1.54693818
Hf       0.00000000       0.00000000       3.53090909       0.00000000       0.00000000      -1.54693818
2
Properties=species:S:1:pos:R:3:forces:R:3 energy=-8.285543095287448 pbc="F F F"
Hf       0.00000000       0.00000000       0.00000000       0.00000000       0.00000000       1.50772631
Hf       0.00000000       0.00000000       3.58969697       0.00000000       0.00000000      -1.50772631
2
Properties=species:S:1:pos:R:3:forces:R:3 energy=-8.198303193231231 pbc="F F F"
Hf       0.00000000       0.00000000       0.00000000       0.00000000       0.00000000       1.45853233
Hf       0.00000000       0.00000000       3.64848485       0.00000000       0.00000000      -1.45853233
2
Properties=species:S:1:pos:R:3:forces:R:3 energy=-8.11425206884898 pbc="F F F"
Hf       0.00000000       0.00000000       0.00000000       0.00000000       0.00000000       1.39932811
Hf       0.00000000       0.00000000       3.70727273       0.00000000       0.00000000      -1.39932811
2
Properties=species:S:1:pos:R:3:forces:R:3 energy=-8.03395608245454 pbc="F F F"
Hf       0.00000000       0.00000000       0.00000000       0.00000000       0.00000000       1.33096206
Hf       0.00000000       0.00000000       3.76606061       0.00000000       0.00000000      -1.33096206
2
Properties=species:S:1:pos:R:3:forces:R:3 energy=-7.957906717486553 pbc="F F F"
Hf       0.00000000       0.00000000       0.00000000       0.00000000       0.00000000       1.25529528
Hf       0.00000000       0.00000000       3.82484848       0.00000000       0.00000000      -1.25529528
2
Properties=species:S:1:pos:R:3:forces:R:3 energy=-7.886455640357423 pbc="F F F"
Hf       0.00000000       0.00000000       0.00000000       0.00000000       0.00000000       1.17495227
Hf       0.00000000       0.00000000       3.88363636       0.00000000       0.00000000      -1.17495227
2
Properties=species:S:1:pos:R:3:forces:R:3 energy=-7.819793861690809 pbc="F F F"
Hf       0.00000000       0.00000000       0.00000000       0.00000000       0.00000000       1.09288955
Hf       0.00000000       0.00000000       3.94242424       0.00000000       0.00000000      -1.09288955
2
Properties=species:S:1:pos:R:3:forces:R:3 energy=-7.75793864765058 pbc="F F F"
Hf       0.00000000       0.00000000       0.00000000       0.00000000       0.00000000       1.01188099
Hf       0.00000000       0.00000000       4.00121212       0.00000000       0.00000000      -1.01188099
2
Properties=species:S:1:pos:R:3:forces:R:3 energy=-7.700757035353191 pbc="F F F"
Hf       0.00000000       0.00000000       0.00000000       0.00000000       0.00000000       0.93416160
Hf       0.00000000       0.00000000       4.06000000       0.00000000       0.00000000      -0.93416160
2
Properties=species:S:1:pos:R:3:forces:R:3 energy=-7.648008284046058 pbc="F F F"
Hf       0.00000000       0.00000000       0.00000000       0.00000000       0.00000000       0.86128128
Hf       0.00000000       0.00000000       4.11878788       0.00000000       0.00000000      -0.86128128
2
Properties=species:S:1:pos:R:3:forces:R:3 energy=-7.599379395476096 pbc="F F F"
Hf       0.00000000       0.00000000       0.00000000       0.00000000       0.00000000       0.79407781
Hf       0.00000000       0.00000000       4.17757576       0.00000000       0.00000000      -0.79407781
2
Properties=species:S:1:pos:R:3:forces:R:3 energy=-7.554526891825966 pbc="F F F"
Hf       0.00000000       0.00000000       0.00000000       0.00000000       0.00000000       0.73279595
Hf       0.00000000       0.00000000       4.23636364       0.00000000       0.00000000      -0.73279595
2
Properties=species:S:1:pos:R:3:forces:R:3 energy=-7.513107027517428 pbc="F F F"
Hf       0.00000000       0.00000000       0.00000000       0.00000000       0.00000000       0.67723936
Hf       0.00000000       0.00000000       4.29515152       0.00000000       0.00000000      -0.67723936
2
Properties=species:S:1:pos:R:3:forces:R:3 energy=-7.474797373596354 pbc="F F F"
Hf       0.00000000       0.00000000       0.00000000       0.00000000       0.00000000       0.62694502
Hf       0.00000000       0.00000000       4.35393939       0.00000000       0.00000000      -0.62694502
2
Properties=species:S:1:pos:R:3:forces:R:3 energy=-7.4393033350618305 pbc="F F F"
Hf       0.00000000       0.00000000       0.00000000       0.00000000       0.00000000       0.58129972
Hf       0.00000000       0.00000000       4.41272727       0.00000000       0.00000000      -0.58129972
2
Properties=species:S:1:pos:R:3:forces:R:3 energy=-7.406371635355119 pbc="F F F"
Hf       0.00000000       0.00000000       0.00000000       0.00000000       0.00000000       0.53966671
Hf       0.00000000       0.00000000       4.47151515       0.00000000       0.00000000      -0.53966671
2
Properties=species:S:1:pos:R:3:forces:R:3 energy=-7.37578463866327 pbc="F F F"
Hf       0.00000000       0.00000000       0.00000000       0.00000000       0.00000000       0.50142384
Hf       0.00000000       0.00000000       4.53030303       0.00000000       0.00000000      -0.50142384
2
Properties=species:S:1:pos:R:3:forces:R:3 energy=-7.347361805773174 pbc="F F F"
Hf       0.00000000       0.00000000       0.00000000       0.00000000       0.00000000       0.46597749
Hf       0.00000000       0.00000000       4.58909091       0.00000000       0.00000000      -0.46597749
2
Properties=species:S:1:pos:R:3:forces:R:3 energy=-7.3209547356306475 pbc="F F F"
Hf       0.00000000       0.00000000       0.00000000       0.00000000       0.00000000       0.43273622
Hf       0.00000000       0.00000000       4.64787879       0.00000000       0.00000000      -0.43273622
2
Properties=species:S:1:pos:R:3:forces:R:3 energy=-7.296450495201066 pbc="F F F"
Hf       0.00000000       0.00000000       0.00000000       0.00000000       0.00000000       0.40111130
Hf       0.00000000       0.00000000       4.70666667       0.00000000       0.00000000      -0.40111130
2
Properties=species:S:1:pos:R:3:forces:R:3 energy=-7.273772962945648 pbc="F F F"
Hf       0.00000000       0.00000000       0.00000000       0.00000000       0.00000000       0.37052199
Hf       0.00000000       0.00000000       4.76545455       0.00000000       0.00000000      -0.37052199
2
Properties=species:S:1:pos:R:3:forces:R:3 energy=-7.252875289629935 pbc="F F F"
Hf       0.00000000       0.00000000       0.00000000       0.00000000       0.00000000       0.34045878
Hf       0.00000000       0.00000000       4.82424242       0.00000000       0.00000000      -0.34045878
2
Properties=species:S:1:pos:R:3:forces:R:3 energy=-7.233740825151542 pbc="F F F"
Hf       0.00000000       0.00000000       0.00000000       0.00000000       0.00000000       0.31059006
Hf       0.00000000       0.00000000       4.88303030       0.00000000       0.00000000      -0.31059006
2
Properties=species:S:1:pos:R:3:forces:R:3 energy=-7.216355292426572 pbc="F F F"
Hf       0.00000000       0.00000000       0.00000000       0.00000000       0.00000000       0.28088272
Hf       0.00000000       0.00000000       4.94181818       0.00000000       0.00000000      -0.28088272
2
Properties=species:S:1:pos:R:3:forces:R:3 energy=-7.200703275299292 pbc="F F F"
Hf       0.00000000       0.00000000       0.00000000       0.00000000       0.00000000       0.25172988
Hf       0.00000000       0.00000000       5.00060606       0.00000000       0.00000000      -0.25172988
2
Properties=species:S:1:pos:R:3:forces:R:3 energy=-7.186731117110634 pbc="F F F"
Hf       0.00000000       0.00000000       0.00000000       0.00000000       0.00000000       0.22392167
Hf       0.00000000       0.00000000       5.05939394       0.00000000       0.00000000      -0.22392167
2
Properties=species:S:1:pos:R:3:forces:R:3 energy=-7.174328130811874 pbc="F F F"
Hf       0.00000000       0.00000000       0.00000000       0.00000000       0.00000000       0.19852729
Hf       0.00000000       0.00000000       5.11818182       0.00000000       0.00000000      -0.19852729
2
Properties=species:S:1:pos:R:3:forces:R:3 energy=-7.163322348611899 pbc="F F F"
Hf       0.00000000       0.00000000       0.00000000       0.00000000       0.00000000       0.17654577
Hf       0.00000000       0.00000000       5.17696970       0.00000000       0.00000000      -0.17654577
2
Properties=species:S:1:pos:R:3:forces:R:3 energy=-7.153496677419782 pbc="F F F"
Hf       0.00000000       0.00000000       0.00000000       0.00000000       0.00000000       0.15836532
Hf       0.00000000       0.00000000       5.23575758       0.00000000       0.00000000      -0.15836532
2
Properties=species:S:1:pos:R:3:forces:R:3 energy=-7.144642702248109 pbc="F F F"
Hf       0.00000000       0.00000000       0.00000000       0.00000000       0.00000000       0.14322874
Hf       0.00000000       0.00000000       5.29454545       0.00000000       0.00000000      -0.14322874
2
Properties=species:S:1:pos:R:3:forces:R:3 energy=-7.1366303012702526 pbc="F F F"
Hf       0.00000000       0.00000000       0.00000000       0.00000000       0.00000000       0.12943999
Hf       0.00000000       0.00000000       5.35333333       0.00000000       0.00000000      -0.12943999
2
Properties=species:S:1:pos:R:3:forces:R:3 energy=-7.129402264395283 pbc="F F F"
Hf       0.00000000       0.00000000       0.00000000       0.00000000       0.00000000       0.11689527
Hf       0.00000000       0.00000000       5.41212121       0.00000000       0.00000000      -0.11689527
2
Properties=species:S:1:pos:R:3:forces:R:3 energy=-7.122787373101948 pbc="F F F"
Hf       0.00000000       0.00000000       0.00000000       0.00000000       0.00000000       0.10927539
Hf       0.00000000       0.00000000       5.47090909       0.00000000       0.00000000      -0.10927539
2
Properties=species:S:1:pos:R:3:forces:R:3 energy=-7.116461217428327 pbc="F F F"
Hf       0.00000000       0.00000000       0.00000000       0.00000000       0.00000000       0.10593808
Hf       0.00000000       0.00000000       5.52969697       0.00000000       0.00000000      -0.10593808
2
Properties=species:S:1:pos:R:3:forces:R:3 energy=-7.110425369798491 pbc="F F F"
Hf       0.00000000       0.00000000       0.00000000       0.00000000       0.00000000       0.09824058
Hf       0.00000000       0.00000000       5.58848485       0.00000000       0.00000000      -0.09824058
2
Properties=species:S:1:pos:R:3:forces:R:3 energy=-7.10500403765893 pbc="F F F"
Hf       0.00000000       0.00000000       0.00000000       0.00000000       0.00000000       0.08615725
Hf       0.00000000       0.00000000       5.64727273       0.00000000       0.00000000      -0.08615725
2
Properties=species:S:1:pos:R:3:forces:R:3 energy=-7.100174492241597 pbc="F F F"
Hf       0.00000000       0.00000000       0.00000000       0.00000000       0.00000000       0.08027933
Hf       0.00000000       0.00000000       5.70606061       0.00000000       0.00000000      -0.08027933
2
Properties=species:S:1:pos:R:3:forces:R:3 energy=-7.09528572196927 pbc="F F F"
Hf       0.00000000       0.00000000       0.00000000       0.00000000       0.00000000       0.08718739
Hf       0.00000000       0.00000000       5.76484848       0.00000000       0.00000000      -0.08718739
2
Properties=species:S:1:pos:R:3:forces:R:3 energy=-7.090053159117084 pbc="F F F"
Hf       0.00000000       0.00000000       0.00000000       0.00000000       0.00000000       0.08744897
Hf       0.00000000       0.00000000       5.82363636       0.00000000       0.00000000      -0.08744897
2
Properties=species:S:1:pos:R:3:forces:R:3 energy=-7.085524609343049 pbc="F F F"
Hf       0.00000000       0.00000000       0.00000000       0.00000000       0.00000000       0.06340371
Hf       0.00000000       0.00000000       5.88242424       0.00000000       0.00000000      -0.06340371
2
Properties=species:S:1:pos:R:3:forces:R:3 energy=-7.082728983880724 pbc="F F F"
Hf       0.00000000       0.00000000       0.00000000       0.00000000       0.00000000       0.03266969
Hf       0.00000000       0.00000000       5.94121212       0.00000000       0.00000000      -0.03266969
2
Properties=species:S:1:pos:R:3:forces:R:3 energy=-7.081321576662359 pbc="F F F"
Hf       0.00000000       0.00000000       0.00000000       0.00000000       0.00000000       0.01939954
Hf       0.00000000       0.00000000       6.00000000       0.00000000       0.00000000      -0.01939954
