2
Properties=species:S:1:pos:R:3:forces:R:3 energy=8913.528366407229 pbc="F F F"
In       0.00000000       0.00000000       0.00000000       0.00000000       0.00000000 -140118.42187500
In       0.00000000       0.00000000       0.18000000       0.00000000       0.00000000  140118.42187500
2
Properties=species:S:1:pos:R:3:forces:R:3 energy=3930.565475782228 pbc="F F F"
In       0.00000000       0.00000000       0.00000000       0.00000000       0.00000000  -48372.22656250
In       0.00000000       0.00000000       0.23878788       0.00000000       0.00000000   48372.22656250
2
Properties=species:S:1:pos:R:3:forces:R:3 energy=2070.538620313478 pbc="F F F"
In       0.00000000       0.00000000       0.00000000       0.00000000       0.00000000  -19823.30078125
In       0.00000000       0.00000000       0.29757576       0.00000000       0.00000000   19823.30078125
2
Properties=species:S:1:pos:R:3:forces:R:3 energy=1264.567917188478 pbc="F F F"
In       0.00000000       0.00000000       0.00000000       0.00000000       0.00000000   -9209.30468750
In       0.00000000       0.00000000       0.35636364       0.00000000       0.00000000    9209.30468750
2
Properties=species:S:1:pos:R:3:forces:R:3 energy=869.2203219799699 pbc="F F F"
In       0.00000000       0.00000000       0.00000000       0.00000000       0.00000000   -4856.19873047
In       0.00000000       0.00000000       0.41515152       0.00000000       0.00000000    4856.19873047
2
Properties=species:S:1:pos:R:3:forces:R:3 energy=646.490707728493 pbc="F F F"
In       0.00000000       0.00000000       0.00000000       0.00000000       0.00000000   -2946.03393555
In       0.00000000       0.00000000       0.47393939       0.00000000       0.00000000    2946.03393555
2
Properties=species:S:1:pos:R:3:forces:R:3 energy=507.45640598651966 pbc="F F F"
In       0.00000000       0.00000000       0.00000000       0.00000000       0.00000000   -1952.26965332
In       0.00000000       0.00000000       0.53272727       0.00000000       0.00000000    1952.26965332
2
Properties=species:S:1:pos:R:3:forces:R:3 energy=406.6067966368622 pbc="F F F"
In       0.00000000       0.00000000       0.00000000       0.00000000       0.00000000   -1520.79345703
In       0.00000000       0.00000000       0.59151515       0.00000000       0.00000000    1520.79345703
2
Properties=species:S:1:pos:R:3:forces:R:3 energy=325.64683574371173 pbc="F F F"
In       0.00000000       0.00000000       0.00000000       0.00000000       0.00000000   -1250.63842773
In       0.00000000       0.00000000       0.65030303       0.00000000       0.00000000    1250.63842773
2
Properties=species:S:1:pos:R:3:forces:R:3 energy=258.0300145211735 pbc="F F F"
In       0.00000000       0.00000000       0.00000000       0.00000000       0.00000000   -1059.77819824
In       0.00000000       0.00000000       0.70909091       0.00000000       0.00000000    1059.77819824
2
Properties=species:S:1:pos:R:3:forces:R:3 energy=199.69838010105943 pbc="F F F"
In       0.00000000       0.00000000       0.00000000       0.00000000       0.00000000    -935.60278320
In       0.00000000       0.00000000       0.76787879       0.00000000       0.00000000     935.60278320
2
Properties=species:S:1:pos:R:3:forces:R:3 energy=147.81268384198208 pbc="F F F"
In       0.00000000       0.00000000       0.00000000       0.00000000       0.00000000    -840.42895508
In       0.00000000       0.00000000       0.82666667       0.00000000       0.00000000     840.42895508
2
Properties=species:S:1:pos:R:3:forces:R:3 energy=106.63737583302273 pbc="F F F"
In       0.00000000       0.00000000       0.00000000       0.00000000       0.00000000    -552.40222168
In       0.00000000       0.00000000       0.88545455       0.00000000       0.00000000     552.40222168
2
Properties=species:S:1:pos:R:3:forces:R:3 energy=79.73550540642677 pbc="F F F"
In       0.00000000       0.00000000       0.00000000       0.00000000       0.00000000    -382.06277466
In       0.00000000       0.00000000       0.94424242       0.00000000       0.00000000     382.06277466
2
Properties=species:S:1:pos:R:3:forces:R:3 energy=60.55497146178632 pbc="F F F"
In       0.00000000       0.00000000       0.00000000       0.00000000       0.00000000    -275.98416138
In       0.00000000       0.00000000       1.00303030       0.00000000       0.00000000     275.98416138
2
Properties=species:S:1:pos:R:3:forces:R:3 energy=47.11717828763357 pbc="F F F"
In       0.00000000       0.00000000       0.00000000       0.00000000       0.00000000    -183.54476929
In       0.00000000       0.00000000       1.06181818       0.00000000       0.00000000     183.54476929
2
Properties=species:S:1:pos:R:3:forces:R:3 energy=38.43893730550327 pbc="F F F"
In       0.00000000       0.00000000       0.00000000       0.00000000       0.00000000    -116.48014069
In       0.00000000       0.00000000       1.12060606       0.00000000       0.00000000     116.48014069
2
Properties=species:S:1:pos:R:3:forces:R:3 energy=32.96213926996202 pbc="F F F"
In       0.00000000       0.00000000       0.00000000       0.00000000       0.00000000     -72.89447784
In       0.00000000       0.00000000       1.17939394       0.00000000       0.00000000      72.89447784
2
Properties=species:S:1:pos:R:3:forces:R:3 energy=29.597735858746155 pbc="F F F"
In       0.00000000       0.00000000       0.00000000       0.00000000       0.00000000     -43.27086639
In       0.00000000       0.00000000       1.23818182       0.00000000       0.00000000      43.27086639
2
Properties=species:S:1:pos:R:3:forces:R:3 energy=27.679595155609864 pbc="F F F"
In       0.00000000       0.00000000       0.00000000       0.00000000       0.00000000     -24.06926727
In       0.00000000       0.00000000       1.29696970       0.00000000       0.00000000      24.06926727
2
Properties=species:S:1:pos:R:3:forces:R:3 energy=26.445990857186352 pbc="F F F"
In       0.00000000       0.00000000       0.00000000       0.00000000       0.00000000     -20.88515091
In       0.00000000       0.00000000       1.35575758       0.00000000       0.00000000      20.88515091
2
Properties=species:S:1:pos:R:3:forces:R:3 energy=24.94992255497024 pbc="F F F"
In       0.00000000       0.00000000       0.00000000       0.00000000       0.00000000     -31.32415771
In       0.00000000       0.00000000       1.41454545       0.00000000       0.00000000      31.32415771
2
Properties=species:S:1:pos:R:3:forces:R:3 energy=22.72784741526724 pbc="F F F"
In       0.00000000       0.00000000       0.00000000       0.00000000       0.00000000     -43.77906799
In       0.00000000       0.00000000       1.47333333       0.00000000       0.00000000      43.77906799
2
Properties=species:S:1:pos:R:3:forces:R:3 energy=19.908301773316364 pbc="F F F"
In       0.00000000       0.00000000       0.00000000       0.00000000       0.00000000     -51.06427383
In       0.00000000       0.00000000       1.53212121       0.00000000       0.00000000      51.06427383
2
Properties=species:S:1:pos:R:3:forces:R:3 energy=16.843851537050462 pbc="F F F"
In       0.00000000       0.00000000       0.00000000       0.00000000       0.00000000     -52.31868362
In       0.00000000       0.00000000       1.59090909       0.00000000       0.00000000      52.31868362
2
Properties=species:S:1:pos:R:3:forces:R:3 energy=13.836835455515873 pbc="F F F"
In       0.00000000       0.00000000       0.00000000       0.00000000       0.00000000     -49.48070526
In       0.00000000       0.00000000       1.64969697       0.00000000       0.00000000      49.48070526
2
Properties=species:S:1:pos:R:3:forces:R:3 energy=11.068632077009264 pbc="F F F"
In       0.00000000       0.00000000       0.00000000       0.00000000       0.00000000     -44.45032120
In       0.00000000       0.00000000       1.70848485       0.00000000       0.00000000      44.45032120
2
Properties=species:S:1:pos:R:3:forces:R:3 energy=8.628330037877015 pbc="F F F"
In       0.00000000       0.00000000       0.00000000       0.00000000       0.00000000     -38.50140762
In       0.00000000       0.00000000       1.76727273       0.00000000       0.00000000      38.50140762
2
Properties=species:S:1:pos:R:3:forces:R:3 energy=6.542593333743439 pbc="F F F"
In       0.00000000       0.00000000       0.00000000       0.00000000       0.00000000     -32.49714661
In       0.00000000       0.00000000       1.82606061       0.00000000       0.00000000      32.49714661
2
Properties=species:S:1:pos:R:3:forces:R:3 energy=4.79935824426741 pbc="F F F"
In       0.00000000       0.00000000       0.00000000       0.00000000       0.00000000     -26.89821625
In       0.00000000       0.00000000       1.88484848       0.00000000       0.00000000      26.89821625
2
Properties=species:S:1:pos:R:3:forces:R:3 energy=3.3678156584227446 pbc="F F F"
In       0.00000000       0.00000000       0.00000000       0.00000000       0.00000000     -21.91832352
In       0.00000000       0.00000000       1.94363636       0.00000000       0.00000000      21.91832352
2
Properties=species:S:1:pos:R:3:forces:R:3 energy=2.2080555290070416 pbc="F F F"
In       0.00000000       0.00000000       0.00000000       0.00000000       0.00000000     -17.66160774
In       0.00000000       0.00000000       2.00242424       0.00000000       0.00000000      17.66160774
2
Properties=species:S:1:pos:R:3:forces:R:3 energy=1.2769465112210319 pbc="F F F"
In       0.00000000       0.00000000       0.00000000       0.00000000       0.00000000     -14.13214111
In       0.00000000       0.00000000       2.06121212       0.00000000       0.00000000      14.13214111
2
Properties=species:S:1:pos:R:3:forces:R:3 energy=0.5335628388624932 pbc="F F F"
In       0.00000000       0.00000000       0.00000000       0.00000000       0.00000000     -11.25980949
In       0.00000000       0.00000000       2.12000000       0.00000000       0.00000000      11.25980949
2
Properties=species:S:1:pos:R:3:forces:R:3 energy=-0.057855648825582126 pbc="F F F"
In       0.00000000       0.00000000       0.00000000       0.00000000       0.00000000      -8.94480419
In       0.00000000       0.00000000       2.17878788       0.00000000       0.00000000       8.94480419
2
Properties=species:S:1:pos:R:3:forces:R:3 energy=-0.5270903995978955 pbc="F F F"
In       0.00000000       0.00000000       0.00000000       0.00000000       0.00000000      -7.08742857
In       0.00000000       0.00000000       2.23757576       0.00000000       0.00000000       7.08742857
2
Properties=species:S:1:pos:R:3:forces:R:3 energy=-0.8984109032605871 pbc="F F F"
In       0.00000000       0.00000000       0.00000000       0.00000000       0.00000000      -5.60035181
In       0.00000000       0.00000000       2.29636364       0.00000000       0.00000000       5.60035181
2
Properties=species:S:1:pos:R:3:forces:R:3 energy=-1.19136771938266 pbc="F F F"
In       0.00000000       0.00000000       0.00000000       0.00000000       0.00000000      -4.41030884
In       0.00000000       0.00000000       2.35515152       0.00000000       0.00000000       4.41030884
2
Properties=species:S:1:pos:R:3:forces:R:3 energy=-1.421567460055172 pbc="F F F"
In       0.00000000       0.00000000       0.00000000       0.00000000       0.00000000      -3.45600271
In       0.00000000       0.00000000       2.41393939       0.00000000       0.00000000       3.45600271
2
Properties=species:S:1:pos:R:3:forces:R:3 energy=-1.601329718607858 pbc="F F F"
In       0.00000000       0.00000000       0.00000000       0.00000000       0.00000000      -2.68671584
In       0.00000000       0.00000000       2.47272727       0.00000000       0.00000000       2.68671584
2
Properties=species:S:1:pos:R:3:forces:R:3 energy=-1.7402865584551237 pbc="F F F"
In       0.00000000       0.00000000       0.00000000       0.00000000       0.00000000      -2.06192541
In       0.00000000       0.00000000       2.53151515       0.00000000       0.00000000       2.06192541
2
Properties=species:S:1:pos:R:3:forces:R:3 energy=-1.8459782430976164 pbc="F F F"
In       0.00000000       0.00000000       0.00000000       0.00000000       0.00000000      -1.55049729
In       0.00000000       0.00000000       2.59030303       0.00000000       0.00000000       1.55049729
2
Properties=species:S:1:pos:R:3:forces:R:3 energy=-1.9243479114923048 pbc="F F F"
In       0.00000000       0.00000000       0.00000000       0.00000000       0.00000000      -1.12904501
In       0.00000000       0.00000000       2.64909091       0.00000000       0.00000000       1.12904501
2
Properties=species:S:1:pos:R:3:forces:R:3 energy=-1.9801393636125981 pbc="F F F"
In       0.00000000       0.00000000       0.00000000       0.00000000       0.00000000      -0.77982527
In       0.00000000       0.00000000       2.70787879       0.00000000       0.00000000       0.77982527
2
Properties=species:S:1:pos:R:3:forces:R:3 energy=-2.017177612591684 pbc="F F F"
In       0.00000000       0.00000000       0.00000000       0.00000000       0.00000000      -0.48895526
In       0.00000000       0.00000000       2.76666667       0.00000000       0.00000000       0.48895526
2
Properties=species:S:1:pos:R:3:forces:R:3 energy=-2.0385538813647663 pbc="F F F"
In       0.00000000       0.00000000       0.00000000       0.00000000       0.00000000      -0.24535380
In       0.00000000       0.00000000       2.82545455       0.00000000       0.00000000       0.24535380
2
Properties=species:S:1:pos:R:3:forces:R:3 energy=-2.046778937157615 pbc="F F F"
In       0.00000000       0.00000000       0.00000000       0.00000000       0.00000000      -0.04030514
In       0.00000000       0.00000000       2.88424242       0.00000000       0.00000000       0.04030514
2
Properties=species:S:1:pos:R:3:forces:R:3 energy=-2.0439188621958153 pbc="F F F"
In       0.00000000       0.00000000       0.00000000       0.00000000       0.00000000       0.13271092
In       0.00000000       0.00000000       2.94303030       0.00000000       0.00000000      -0.13271092
2
Properties=species:S:1:pos:R:3:forces:R:3 energy=-2.0317122969610524 pbc="F F F"
In       0.00000000       0.00000000       0.00000000       0.00000000       0.00000000       0.27828279
In       0.00000000       0.00000000       3.00181818       0.00000000       0.00000000      -0.27828279
2
Properties=species:S:1:pos:R:3:forces:R:3 energy=-2.011675756695013 pbc="F F F"
In       0.00000000       0.00000000       0.00000000       0.00000000       0.00000000       0.39953941
In       0.00000000       0.00000000       3.06060606       0.00000000       0.00000000      -0.39953941
2
Properties=species:S:1:pos:R:3:forces:R:3 energy=-1.985168989464915 pbc="F F F"
In       0.00000000       0.00000000       0.00000000       0.00000000       0.00000000       0.49872795
In       0.00000000       0.00000000       3.11939394       0.00000000       0.00000000      -0.49872795
2
Properties=species:S:1:pos:R:3:forces:R:3 energy=-1.9534332560575116 pbc="F F F"
In       0.00000000       0.00000000       0.00000000       0.00000000       0.00000000       0.57771891
In       0.00000000       0.00000000       3.17818182       0.00000000       0.00000000      -0.57771891
2
Properties=species:S:1:pos:R:3:forces:R:3 energy=-1.9176023327681784 pbc="F F F"
In       0.00000000       0.00000000       0.00000000       0.00000000       0.00000000       0.63837361
In       0.00000000       0.00000000       3.23696970       0.00000000       0.00000000      -0.63837361
2
Properties=species:S:1:pos:R:3:forces:R:3 energy=-1.878693022445777 pbc="F F F"
In       0.00000000       0.00000000       0.00000000       0.00000000       0.00000000       0.68287843
In       0.00000000       0.00000000       3.29575758       0.00000000       0.00000000      -0.68287843
2
Properties=species:S:1:pos:R:3:forces:R:3 energy=-1.837574276066343 pbc="F F F"
In       0.00000000       0.00000000       0.00000000       0.00000000       0.00000000       0.71405262
In       0.00000000       0.00000000       3.35454545       0.00000000       0.00000000      -0.71405262
2
Properties=species:S:1:pos:R:3:forces:R:3 energy=-1.794936287890757 pbc="F F F"
In       0.00000000       0.00000000       0.00000000       0.00000000       0.00000000       0.73506397
In       0.00000000       0.00000000       3.41333333       0.00000000       0.00000000      -0.73506397
2
Properties=species:S:1:pos:R:3:forces:R:3 energy=-1.7513001262508063 pbc="F F F"
In       0.00000000       0.00000000       0.00000000       0.00000000       0.00000000       0.74824333
In       0.00000000       0.00000000       3.47212121       0.00000000       0.00000000      -0.74824333
2
Properties=species:S:1:pos:R:3:forces:R:3 energy=-1.7070982006293596 pbc="F F F"
In       0.00000000       0.00000000       0.00000000       0.00000000       0.00000000       0.75441438
In       0.00000000       0.00000000       3.53090909       0.00000000       0.00000000      -0.75441438
2
Properties=species:S:1:pos:R:3:forces:R:3 energy=-1.6627330697827905 pbc="F F F"
In       0.00000000       0.00000000       0.00000000       0.00000000       0.00000000       0.75380123
In       0.00000000       0.00000000       3.58969697       0.00000000       0.00000000      -0.75380123
2
Properties=species:S:1:pos:R:3:forces:R:3 energy=-1.6185899391808949 pbc="F F F"
In       0.00000000       0.00000000       0.00000000       0.00000000       0.00000000       0.74703729
In       0.00000000       0.00000000       3.64848485       0.00000000       0.00000000      -0.74703729
2
Properties=species:S:1:pos:R:3:forces:R:3 energy=-1.5749988022208854 pbc="F F F"
In       0.00000000       0.00000000       0.00000000       0.00000000       0.00000000       0.73523366
In       0.00000000       0.00000000       3.70727273       0.00000000       0.00000000      -0.73523366
2
Properties=species:S:1:pos:R:3:forces:R:3 energy=-1.5322184243253416 pbc="F F F"
In       0.00000000       0.00000000       0.00000000       0.00000000       0.00000000       0.71962601
In       0.00000000       0.00000000       3.76606061       0.00000000       0.00000000      -0.71962601
2
Properties=species:S:1:pos:R:3:forces:R:3 energy=-1.490440594909779 pbc="F F F"
In       0.00000000       0.00000000       0.00000000       0.00000000       0.00000000       0.70131886
In       0.00000000       0.00000000       3.82484848       0.00000000       0.00000000      -0.70131886
2
Properties=species:S:1:pos:R:3:forces:R:3 energy=-1.4497962248953975 pbc="F F F"
In       0.00000000       0.00000000       0.00000000       0.00000000       0.00000000       0.68116736
In       0.00000000       0.00000000       3.88363636       0.00000000       0.00000000      -0.68116736
2
Properties=species:S:1:pos:R:3:forces:R:3 energy=-1.410376183344544 pbc="F F F"
In       0.00000000       0.00000000       0.00000000       0.00000000       0.00000000       0.65976733
In       0.00000000       0.00000000       3.94242424       0.00000000       0.00000000      -0.65976733
2
Properties=species:S:1:pos:R:3:forces:R:3 energy=-1.3722415609792837 pbc="F F F"
In       0.00000000       0.00000000       0.00000000       0.00000000       0.00000000       0.63749564
In       0.00000000       0.00000000       4.00121212       0.00000000       0.00000000      -0.63749564
2
Properties=species:S:1:pos:R:3:forces:R:3 energy=-1.3354350154149779 pbc="F F F"
In       0.00000000       0.00000000       0.00000000       0.00000000       0.00000000       0.61457705
In       0.00000000       0.00000000       4.06000000       0.00000000       0.00000000      -0.61457705
2
Properties=species:S:1:pos:R:3:forces:R:3 energy=-1.299991350116933 pbc="F F F"
In       0.00000000       0.00000000       0.00000000       0.00000000       0.00000000       0.59117132
In       0.00000000       0.00000000       4.11878788       0.00000000       0.00000000      -0.59117132
2
Properties=species:S:1:pos:R:3:forces:R:3 energy=-1.2659339059476105 pbc="F F F"
In       0.00000000       0.00000000       0.00000000       0.00000000       0.00000000       0.56743294
In       0.00000000       0.00000000       4.17757576       0.00000000       0.00000000      -0.56743294
2
Properties=species:S:1:pos:R:3:forces:R:3 energy=-1.2332768739964934 pbc="F F F"
In       0.00000000       0.00000000       0.00000000       0.00000000       0.00000000       0.54356885
In       0.00000000       0.00000000       4.23636364       0.00000000       0.00000000      -0.54356885
2
Properties=species:S:1:pos:R:3:forces:R:3 energy=-1.2020201624130737 pbc="F F F"
In       0.00000000       0.00000000       0.00000000       0.00000000       0.00000000       0.51984441
In       0.00000000       0.00000000       4.29515152       0.00000000       0.00000000      -0.51984441
2
Properties=species:S:1:pos:R:3:forces:R:3 energy=-1.1721473931916373 pbc="F F F"
In       0.00000000       0.00000000       0.00000000       0.00000000       0.00000000       0.49657786
In       0.00000000       0.00000000       4.35393939       0.00000000       0.00000000      -0.49657786
2
Properties=species:S:1:pos:R:3:forces:R:3 energy=-1.1436200335736282 pbc="F F F"
In       0.00000000       0.00000000       0.00000000       0.00000000       0.00000000       0.47408786
In       0.00000000       0.00000000       4.41272727       0.00000000       0.00000000      -0.47408786
2
Properties=species:S:1:pos:R:3:forces:R:3 energy=-1.116385320881558 pbc="F F F"
In       0.00000000       0.00000000       0.00000000       0.00000000       0.00000000       0.45263615
In       0.00000000       0.00000000       4.47151515       0.00000000       0.00000000      -0.45263615
2
Properties=species:S:1:pos:R:3:forces:R:3 energy=-1.0903773322347894 pbc="F F F"
In       0.00000000       0.00000000       0.00000000       0.00000000       0.00000000       0.43235889
In       0.00000000       0.00000000       4.53030303       0.00000000       0.00000000      -0.43235889
2
Properties=species:S:1:pos:R:3:forces:R:3 energy=-1.065528541514979 pbc="F F F"
In       0.00000000       0.00000000       0.00000000       0.00000000       0.00000000       0.41320693
In       0.00000000       0.00000000       4.58909091       0.00000000       0.00000000      -0.41320693
2
Properties=species:S:1:pos:R:3:forces:R:3 energy=-1.0417779477725209 pbc="F F F"
In       0.00000000       0.00000000       0.00000000       0.00000000       0.00000000       0.39492381
In       0.00000000       0.00000000       4.64787879       0.00000000       0.00000000      -0.39492381
2
Properties=species:S:1:pos:R:3:forces:R:3 energy=-1.0190860005623659 pbc="F F F"
In       0.00000000       0.00000000       0.00000000       0.00000000       0.00000000       0.37707466
In       0.00000000       0.00000000       4.70666667       0.00000000       0.00000000      -0.37707466
2
Properties=species:S:1:pos:R:3:forces:R:3 energy=-0.9974444467977223 pbc="F F F"
In       0.00000000       0.00000000       0.00000000       0.00000000       0.00000000       0.35915565
In       0.00000000       0.00000000       4.76545455       0.00000000       0.00000000      -0.35915565
2
Properties=species:S:1:pos:R:3:forces:R:3 energy=-0.9768662575650888 pbc="F F F"
In       0.00000000       0.00000000       0.00000000       0.00000000       0.00000000       0.34078467
In       0.00000000       0.00000000       4.82424242       0.00000000       0.00000000      -0.34078467
2
Properties=species:S:1:pos:R:3:forces:R:3 energy=-0.9573868913251311 pbc="F F F"
In       0.00000000       0.00000000       0.00000000       0.00000000       0.00000000       0.32192990
In       0.00000000       0.00000000       4.88303030       0.00000000       0.00000000      -0.32192990
2
Properties=species:S:1:pos:R:3:forces:R:3 energy=-0.9390157999064599 pbc="F F F"
In       0.00000000       0.00000000       0.00000000       0.00000000       0.00000000       0.30310452
In       0.00000000       0.00000000       4.94181818       0.00000000       0.00000000      -0.30310452
2
Properties=species:S:1:pos:R:3:forces:R:3 energy=-0.9217250814483687 pbc="F F F"
In       0.00000000       0.00000000       0.00000000       0.00000000       0.00000000       0.28547415
In       0.00000000       0.00000000       5.00060606       0.00000000       0.00000000      -0.28547415
2
Properties=species:S:1:pos:R:3:forces:R:3 energy=-0.9053949447347103 pbc="F F F"
In       0.00000000       0.00000000       0.00000000       0.00000000       0.00000000       0.27065906
In       0.00000000       0.00000000       5.05939394       0.00000000       0.00000000      -0.27065906
2
Properties=species:S:1:pos:R:3:forces:R:3 energy=-0.8898159825059123 pbc="F F F"
In       0.00000000       0.00000000       0.00000000       0.00000000       0.00000000       0.26020813
In       0.00000000       0.00000000       5.11818182       0.00000000       0.00000000      -0.26020813
2
Properties=species:S:1:pos:R:3:forces:R:3 energy=-0.8747037961877271 pbc="F F F"
In       0.00000000       0.00000000       0.00000000       0.00000000       0.00000000       0.25468594
In       0.00000000       0.00000000       5.17696970       0.00000000       0.00000000      -0.25468594
2
Properties=species:S:1:pos:R:3:forces:R:3 energy=-0.8598051095819524 pbc="F F F"
In       0.00000000       0.00000000       0.00000000       0.00000000       0.00000000       0.25244391
In       0.00000000       0.00000000       5.23575758       0.00000000       0.00000000      -0.25244391
2
Properties=species:S:1:pos:R:3:forces:R:3 energy=-0.8450505591616413 pbc="F F F"
In       0.00000000       0.00000000       0.00000000       0.00000000       0.00000000       0.24870978
In       0.00000000       0.00000000       5.29454545       0.00000000       0.00000000      -0.24870978
2
Properties=species:S:1:pos:R:3:forces:R:3 energy=-0.8307157232305697 pbc="F F F"
In       0.00000000       0.00000000       0.00000000       0.00000000       0.00000000       0.23736472
In       0.00000000       0.00000000       5.35333333       0.00000000       0.00000000      -0.23736472
2
Properties=species:S:1:pos:R:3:forces:R:3 energy=-0.8172786203048275 pbc="F F F"
In       0.00000000       0.00000000       0.00000000       0.00000000       0.00000000       0.21977539
In       0.00000000       0.00000000       5.41212121       0.00000000       0.00000000      -0.21977539
2
Properties=species:S:1:pos:R:3:forces:R:3 energy=-0.8046705605073902 pbc="F F F"
In       0.00000000       0.00000000       0.00000000       0.00000000       0.00000000       0.21227199
In       0.00000000       0.00000000       5.47090909       0.00000000       0.00000000      -0.21227199
2
Properties=species:S:1:pos:R:3:forces:R:3 energy=-0.7920361899395432 pbc="F F F"
In       0.00000000       0.00000000       0.00000000       0.00000000       0.00000000       0.21745647
In       0.00000000       0.00000000       5.52969697       0.00000000       0.00000000      -0.21745647
2
Properties=species:S:1:pos:R:3:forces:R:3 energy=-0.7794573682975192 pbc="F F F"
In       0.00000000       0.00000000       0.00000000       0.00000000       0.00000000       0.20601776
In       0.00000000       0.00000000       5.58848485       0.00000000       0.00000000      -0.20601776
2
Properties=species:S:1:pos:R:3:forces:R:3 energy=-0.7682088385365178 pbc="F F F"
In       0.00000000       0.00000000       0.00000000       0.00000000       0.00000000       0.17592570
In       0.00000000       0.00000000       5.64727273       0.00000000       0.00000000      -0.17592570
2
Properties=species:S:1:pos:R:3:forces:R:3 energy=-0.7585139173418662 pbc="F F F"
In       0.00000000       0.00000000       0.00000000       0.00000000       0.00000000       0.15917225
In       0.00000000       0.00000000       5.70606061       0.00000000       0.00000000      -0.15917225
2
Properties=species:S:1:pos:R:3:forces:R:3 energy=-0.7487384906120981 pbc="F F F"
In       0.00000000       0.00000000       0.00000000       0.00000000       0.00000000       0.17666931
In       0.00000000       0.00000000       5.76484848       0.00000000       0.00000000      -0.17666931
2
Properties=species:S:1:pos:R:3:forces:R:3 energy=-0.7380743955598075 pbc="F F F"
In       0.00000000       0.00000000       0.00000000       0.00000000       0.00000000       0.17698961
In       0.00000000       0.00000000       5.82363636       0.00000000       0.00000000      -0.17698961
2
Properties=species:S:1:pos:R:3:forces:R:3 energy=-0.7292385105123024 pbc="F F F"
In       0.00000000       0.00000000       0.00000000       0.00000000       0.00000000       0.11663607
In       0.00000000       0.00000000       5.88242424       0.00000000       0.00000000      -0.11663607
2
Properties=species:S:1:pos:R:3:forces:R:3 energy=-0.7246249449739484 pbc="F F F"
In       0.00000000       0.00000000       0.00000000       0.00000000       0.00000000       0.04308365
In       0.00000000       0.00000000       5.94121212       0.00000000       0.00000000      -0.04308365
2
Properties=species:S:1:pos:R:3:forces:R:3 energy=-0.7232928888081342 pbc="F F F"
In       0.00000000       0.00000000       0.00000000       0.00000000       0.00000000       0.01224228
In       0.00000000       0.00000000       6.00000000       0.00000000       0.00000000      -0.01224228
