2
Properties=species:S:1:pos:R:3:forces:R:3 energy=900524.6672658812 pbc="F F F"
La       0.00000000       0.00000000       0.00000000       0.00000000       0.00000000 -243632.75000000
La       0.00000000       0.00000000       0.18000000       0.00000000       0.00000000  243632.75000000
2
Properties=species:S:1:pos:R:3:forces:R:3 energy=887297.8547658812 pbc="F F F"
La       0.00000000       0.00000000       0.00000000       0.00000000       0.00000000 -244464.57812500
La       0.00000000       0.00000000       0.23878788       0.00000000       0.00000000  244464.57812500
2
Properties=species:S:1:pos:R:3:forces:R:3 energy=868399.6672658812 pbc="F F F"
La       0.00000000       0.00000000       0.00000000       0.00000000       0.00000000 -423098.21875000
La       0.00000000       0.00000000       0.29757576       0.00000000       0.00000000  423098.21875000
2
Properties=species:S:1:pos:R:3:forces:R:3 energy=834719.9797658812 pbc="F F F"
La       0.00000000       0.00000000       0.00000000       0.00000000       0.00000000 -745784.06250000
La       0.00000000       0.00000000       0.35636364       0.00000000       0.00000000  745784.06250000
2
Properties=species:S:1:pos:R:3:forces:R:3 energy=778148.1672658876 pbc="F F F"
La       0.00000000       0.00000000       0.00000000       0.00000000       0.00000000 -1198211.00000000
La       0.00000000       0.00000000       0.41515152       0.00000000       0.00000000 1198211.00000000
2
Properties=species:S:1:pos:R:3:forces:R:3 energy=692254.7297658876 pbc="F F F"
La       0.00000000       0.00000000       0.00000000       0.00000000       0.00000000 -1730546.87500000
La       0.00000000       0.00000000       0.47393939       0.00000000       0.00000000 1730546.87500000
2
Properties=species:S:1:pos:R:3:forces:R:3 energy=575243.3547659003 pbc="F F F"
La       0.00000000       0.00000000       0.00000000       0.00000000       0.00000000 -2232287.00000000
La       0.00000000       0.00000000       0.53272727       0.00000000       0.00000000 2232287.00000000
2
Properties=species:S:1:pos:R:3:forces:R:3 energy=433625.9485159129 pbc="F F F"
La       0.00000000       0.00000000       0.00000000       0.00000000       0.00000000 -2537155.00000000
La       0.00000000       0.00000000       0.59151515       0.00000000       0.00000000 2537155.00000000
2
Properties=species:S:1:pos:R:3:forces:R:3 energy=292430.04226593196 pbc="F F F"
La       0.00000000       0.00000000       0.00000000       0.00000000       0.00000000 -2342808.50000000
La       0.00000000       0.00000000       0.65030303       0.00000000       0.00000000 2342808.50000000
2
Properties=species:S:1:pos:R:3:forces:R:3 energy=164484.30789096362 pbc="F F F"
La       0.00000000       0.00000000       0.00000000       0.00000000       0.00000000 -1949432.25000000
La       0.00000000       0.00000000       0.70909091       0.00000000       0.00000000 1949432.25000000
2
Properties=species:S:1:pos:R:3:forces:R:3 energy=69600.77664102064 pbc="F F F"
La       0.00000000       0.00000000       0.00000000       0.00000000       0.00000000 -1252596.37500000
La       0.00000000       0.00000000       0.76787879       0.00000000       0.00000000 1252596.37500000
2
Properties=species:S:1:pos:R:3:forces:R:3 energy=17211.81375047167 pbc="F F F"
La       0.00000000       0.00000000       0.00000000       0.00000000       0.00000000 -555262.68750000
La       0.00000000       0.00000000       0.82666667       0.00000000       0.00000000  555262.68750000
2
Properties=species:S:1:pos:R:3:forces:R:3 energy=-870.9909979431111 pbc="F F F"
La       0.00000000       0.00000000       0.00000000       0.00000000       0.00000000 -114428.79687500
La       0.00000000       0.00000000       0.88545455       0.00000000       0.00000000  114428.79687500
2
Properties=species:S:1:pos:R:3:forces:R:3 energy=-2280.4145207402744 pbc="F F F"
La       0.00000000       0.00000000       0.00000000       0.00000000       0.00000000   22251.39648438
La       0.00000000       0.00000000       0.94424242       0.00000000       0.00000000  -22251.39648438
2
Properties=species:S:1:pos:R:3:forces:R:3 energy=-376.6254885424406 pbc="F F F"
La       0.00000000       0.00000000       0.00000000       0.00000000       0.00000000   19782.02148438
La       0.00000000       0.00000000       1.00303030       0.00000000       0.00000000  -19782.02148438
2
Properties=species:S:1:pos:R:3:forces:R:3 energy=86.41149906002215 pbc="F F F"
La       0.00000000       0.00000000       0.00000000       0.00000000       0.00000000    1174.82568359
La       0.00000000       0.00000000       1.06181818       0.00000000       0.00000000   -1174.82568359
2
Properties=species:S:1:pos:R:3:forces:R:3 energy=95.49543042207037 pbc="F F F"
La       0.00000000       0.00000000       0.00000000       0.00000000       0.00000000     -45.00625229
La       0.00000000       0.00000000       1.12060606       0.00000000       0.00000000      45.00625229
2
Properties=species:S:1:pos:R:3:forces:R:3 energy=92.42967317745708 pbc="F F F"
La       0.00000000       0.00000000       0.00000000       0.00000000       0.00000000     -49.08958817
La       0.00000000       0.00000000       1.17939394       0.00000000       0.00000000      49.08958817
2
Properties=species:S:1:pos:R:3:forces:R:3 energy=86.83902137054378 pbc="F F F"
La       0.00000000       0.00000000       0.00000000       0.00000000       0.00000000    -128.13133240
La       0.00000000       0.00000000       1.23818182       0.00000000       0.00000000     128.13133240
2
Properties=species:S:1:pos:R:3:forces:R:3 energy=78.35742431279384 pbc="F F F"
La       0.00000000       0.00000000       0.00000000       0.00000000       0.00000000    -155.97912598
La       0.00000000       0.00000000       1.29696970       0.00000000       0.00000000     155.97912598
2
Properties=species:S:1:pos:R:3:forces:R:3 energy=68.90320937376411 pbc="F F F"
La       0.00000000       0.00000000       0.00000000       0.00000000       0.00000000    -164.68885803
La       0.00000000       0.00000000       1.35575758       0.00000000       0.00000000     164.68885803
2
Properties=species:S:1:pos:R:3:forces:R:3 energy=59.03456218153232 pbc="F F F"
La       0.00000000       0.00000000       0.00000000       0.00000000       0.00000000    -170.13911438
La       0.00000000       0.00000000       1.41454545       0.00000000       0.00000000     170.13911438
2
Properties=species:S:1:pos:R:3:forces:R:3 energy=49.10332757438128 pbc="F F F"
La       0.00000000       0.00000000       0.00000000       0.00000000       0.00000000    -165.64413452
La       0.00000000       0.00000000       1.47333333       0.00000000       0.00000000     165.64413452
2
Properties=species:S:1:pos:R:3:forces:R:3 energy=39.761540362517636 pbc="F F F"
La       0.00000000       0.00000000       0.00000000       0.00000000       0.00000000    -150.99888611
La       0.00000000       0.00000000       1.53212121       0.00000000       0.00000000     150.99888611
2
Properties=species:S:1:pos:R:3:forces:R:3 energy=31.427640499752698 pbc="F F F"
La       0.00000000       0.00000000       0.00000000       0.00000000       0.00000000    -132.24620056
La       0.00000000       0.00000000       1.59090909       0.00000000       0.00000000     132.24620056
2
Properties=species:S:1:pos:R:3:forces:R:3 energy=24.219820734843697 pbc="F F F"
La       0.00000000       0.00000000       0.00000000       0.00000000       0.00000000    -113.04263306
La       0.00000000       0.00000000       1.64969697       0.00000000       0.00000000     113.04263306
2
Properties=species:S:1:pos:R:3:forces:R:3 energy=18.121712277851568 pbc="F F F"
La       0.00000000       0.00000000       0.00000000       0.00000000       0.00000000     -94.56298065
La       0.00000000       0.00000000       1.70848485       0.00000000       0.00000000      94.56298065
2
Properties=species:S:1:pos:R:3:forces:R:3 energy=13.081840684261172 pbc="F F F"
La       0.00000000       0.00000000       0.00000000       0.00000000       0.00000000     -77.11481476
La       0.00000000       0.00000000       1.76727273       0.00000000       0.00000000      77.11481476
2
Properties=species:S:1:pos:R:3:forces:R:3 energy=9.018640185837931 pbc="F F F"
La       0.00000000       0.00000000       0.00000000       0.00000000       0.00000000     -61.52088928
La       0.00000000       0.00000000       1.82606061       0.00000000       0.00000000      61.52088928
2
Properties=species:S:1:pos:R:3:forces:R:3 energy=5.794284975091607 pbc="F F F"
La       0.00000000       0.00000000       0.00000000       0.00000000       0.00000000     -48.65252686
La       0.00000000       0.00000000       1.88484848       0.00000000       0.00000000      48.65252686
2
Properties=species:S:1:pos:R:3:forces:R:3 energy=3.245421497170754 pbc="F F F"
La       0.00000000       0.00000000       0.00000000       0.00000000       0.00000000     -38.46565247
La       0.00000000       0.00000000       1.94363636       0.00000000       0.00000000      38.46565247
2
Properties=species:S:1:pos:R:3:forces:R:3 energy=1.2300883612546132 pbc="F F F"
La       0.00000000       0.00000000       0.00000000       0.00000000       0.00000000     -30.40316963
La       0.00000000       0.00000000       2.00242424       0.00000000       0.00000000      30.40316963
2
Properties=species:S:1:pos:R:3:forces:R:3 energy=-0.36032775898841285 pbc="F F F"
La       0.00000000       0.00000000       0.00000000       0.00000000       0.00000000     -23.93210983
La       0.00000000       0.00000000       2.06121212       0.00000000       0.00000000      23.93210983
2
Properties=species:S:1:pos:R:3:forces:R:3 energy=-1.6072695317783499 pbc="F F F"
La       0.00000000       0.00000000       0.00000000       0.00000000       0.00000000     -18.66557884
La       0.00000000       0.00000000       2.12000000       0.00000000       0.00000000      18.66557884
2
Properties=species:S:1:pos:R:3:forces:R:3 energy=-2.5732955297220212 pbc="F F F"
La       0.00000000       0.00000000       0.00000000       0.00000000       0.00000000     -14.33684731
La       0.00000000       0.00000000       2.17878788       0.00000000       0.00000000      14.33684731
2
Properties=species:S:1:pos:R:3:forces:R:3 energy=-3.307209902912987 pbc="F F F"
La       0.00000000       0.00000000       0.00000000       0.00000000       0.00000000     -10.73753834
La       0.00000000       0.00000000       2.23757576       0.00000000       0.00000000      10.73753834
2
Properties=species:S:1:pos:R:3:forces:R:3 energy=-3.846806183967055 pbc="F F F"
La       0.00000000       0.00000000       0.00000000       0.00000000       0.00000000      -7.70431232
La       0.00000000       0.00000000       2.29636364       0.00000000       0.00000000       7.70431232
2
Properties=species:S:1:pos:R:3:forces:R:3 energy=-4.222348817834403 pbc="F F F"
La       0.00000000       0.00000000       0.00000000       0.00000000       0.00000000      -5.14817858
La       0.00000000       0.00000000       2.35515152       0.00000000       0.00000000       5.14817858
2
Properties=species:S:1:pos:R:3:forces:R:3 energy=-4.461086121391043 pbc="F F F"
La       0.00000000       0.00000000       0.00000000       0.00000000       0.00000000      -3.05108523
La       0.00000000       0.00000000       2.41393939       0.00000000       0.00000000       3.05108523
2
Properties=species:S:1:pos:R:3:forces:R:3 energy=-4.590294283480069 pbc="F F F"
La       0.00000000       0.00000000       0.00000000       0.00000000       0.00000000      -1.42330873
La       0.00000000       0.00000000       2.47272727       0.00000000       0.00000000       1.42330873
2
Properties=species:S:1:pos:R:3:forces:R:3 energy=-4.637484170518239 pbc="F F F"
La       0.00000000       0.00000000       0.00000000       0.00000000       0.00000000      -0.25564998
La       0.00000000       0.00000000       2.53151515       0.00000000       0.00000000       0.25564998
2
Properties=species:S:1:pos:R:3:forces:R:3 energy=-4.628246341659015 pbc="F F F"
La       0.00000000       0.00000000       0.00000000       0.00000000       0.00000000       0.51079279
La       0.00000000       0.00000000       2.59030303       0.00000000       0.00000000      -0.51079279
2
Properties=species:S:1:pos:R:3:forces:R:3 energy=-4.583250981126311 pbc="F F F"
La       0.00000000       0.00000000       0.00000000       0.00000000       0.00000000       0.98033166
La       0.00000000       0.00000000       2.64909091       0.00000000       0.00000000      -0.98033166
2
Properties=species:S:1:pos:R:3:forces:R:3 energy=-4.516555506441539 pbc="F F F"
La       0.00000000       0.00000000       0.00000000       0.00000000       0.00000000       1.26648593
La       0.00000000       0.00000000       2.70787879       0.00000000       0.00000000      -1.26648593
2
Properties=species:S:1:pos:R:3:forces:R:3 energy=-4.436244121094344 pbc="F F F"
La       0.00000000       0.00000000       0.00000000       0.00000000       0.00000000       1.45418978
La       0.00000000       0.00000000       2.76666667       0.00000000       0.00000000      -1.45418978
2
Properties=species:S:1:pos:R:3:forces:R:3 energy=-4.34661774221272 pbc="F F F"
La       0.00000000       0.00000000       0.00000000       0.00000000       0.00000000       1.58783984
La       0.00000000       0.00000000       2.82545455       0.00000000       0.00000000      -1.58783984
2
Properties=species:S:1:pos:R:3:forces:R:3 energy=-4.250297365617871 pbc="F F F"
La       0.00000000       0.00000000       0.00000000       0.00000000       0.00000000       1.68305373
La       0.00000000       0.00000000       2.88424242       0.00000000       0.00000000      -1.68305373
2
Properties=species:S:1:pos:R:3:forces:R:3 energy=-4.14940468128586 pbc="F F F"
La       0.00000000       0.00000000       0.00000000       0.00000000       0.00000000       1.74387753
La       0.00000000       0.00000000       2.94303030       0.00000000       0.00000000      -1.74387753
2
Properties=species:S:1:pos:R:3:forces:R:3 energy=-4.045867325828668 pbc="F F F"
La       0.00000000       0.00000000       0.00000000       0.00000000       0.00000000       1.77389252
La       0.00000000       0.00000000       3.00181818       0.00000000       0.00000000      -1.77389252
2
Properties=species:S:1:pos:R:3:forces:R:3 energy=-3.9413191568440054 pbc="F F F"
La       0.00000000       0.00000000       0.00000000       0.00000000       0.00000000       1.77950406
La       0.00000000       0.00000000       3.06060606       0.00000000       0.00000000      -1.77950406
2
Properties=species:S:1:pos:R:3:forces:R:3 energy=-3.836966739855156 pbc="F F F"
La       0.00000000       0.00000000       0.00000000       0.00000000       0.00000000       1.76852119
La       0.00000000       0.00000000       3.11939394       0.00000000       0.00000000      -1.76852119
2
Properties=species:S:1:pos:R:3:forces:R:3 energy=-3.7335754073359277 pbc="F F F"
La       0.00000000       0.00000000       0.00000000       0.00000000       0.00000000       1.74758291
La       0.00000000       0.00000000       3.17818182       0.00000000       0.00000000      -1.74758291
2
Properties=species:S:1:pos:R:3:forces:R:3 energy=-3.631607921305489 pbc="F F F"
La       0.00000000       0.00000000       0.00000000       0.00000000       0.00000000       1.72059739
La       0.00000000       0.00000000       3.23696970       0.00000000       0.00000000      -1.72059739
2
Properties=species:S:1:pos:R:3:forces:R:3 energy=-3.531369499533014 pbc="F F F"
La       0.00000000       0.00000000       0.00000000       0.00000000       0.00000000       1.68881488
La       0.00000000       0.00000000       3.29575758       0.00000000       0.00000000      -1.68881488
2
Properties=species:S:1:pos:R:3:forces:R:3 energy=-3.4331443480445674 pbc="F F F"
La       0.00000000       0.00000000       0.00000000       0.00000000       0.00000000       1.65197706
La       0.00000000       0.00000000       3.35454545       0.00000000       0.00000000      -1.65197706
2
Properties=species:S:1:pos:R:3:forces:R:3 energy=-3.337243198479709 pbc="F F F"
La       0.00000000       0.00000000       0.00000000       0.00000000       0.00000000       1.60974169
La       0.00000000       0.00000000       3.41333333       0.00000000       0.00000000      -1.60974169
2
Properties=species:S:1:pos:R:3:forces:R:3 energy=-3.243976287789018 pbc="F F F"
La       0.00000000       0.00000000       0.00000000       0.00000000       0.00000000       1.56246936
La       0.00000000       0.00000000       3.47212121       0.00000000       0.00000000      -1.56246936
2
Properties=species:S:1:pos:R:3:forces:R:3 energy=-3.1536129464611204 pbc="F F F"
La       0.00000000       0.00000000       0.00000000       0.00000000       0.00000000       1.51124585
La       0.00000000       0.00000000       3.53090909       0.00000000       0.00000000      -1.51124585
2
Properties=species:S:1:pos:R:3:forces:R:3 energy=-3.0663406421713364 pbc="F F F"
La       0.00000000       0.00000000       0.00000000       0.00000000       0.00000000       1.45752752
La       0.00000000       0.00000000       3.58969697       0.00000000       0.00000000      -1.45752752
2
Properties=species:S:1:pos:R:3:forces:R:3 energy=-2.982257884081763 pbc="F F F"
La       0.00000000       0.00000000       0.00000000       0.00000000       0.00000000       1.40299833
La       0.00000000       0.00000000       3.64848485       0.00000000       0.00000000      -1.40299833
2
Properties=species:S:1:pos:R:3:forces:R:3 energy=-2.9013550049069408 pbc="F F F"
La       0.00000000       0.00000000       0.00000000       0.00000000       0.00000000       1.34986782
La       0.00000000       0.00000000       3.70727273       0.00000000       0.00000000      -1.34986782
2
Properties=species:S:1:pos:R:3:forces:R:3 energy=-2.823455160796914 pbc="F F F"
La       0.00000000       0.00000000       0.00000000       0.00000000       0.00000000       1.30144131
La       0.00000000       0.00000000       3.76606061       0.00000000       0.00000000      -1.30144131
2
Properties=species:S:1:pos:R:3:forces:R:3 energy=-2.7481653527347634 pbc="F F F"
La       0.00000000       0.00000000       0.00000000       0.00000000       0.00000000       1.26173866
La       0.00000000       0.00000000       3.82484848       0.00000000       0.00000000      -1.26173866
2
Properties=species:S:1:pos:R:3:forces:R:3 energy=-2.6748880529852785 pbc="F F F"
La       0.00000000       0.00000000       0.00000000       0.00000000       0.00000000       1.23292625
La       0.00000000       0.00000000       3.88363636       0.00000000       0.00000000      -1.23292625
2
Properties=species:S:1:pos:R:3:forces:R:3 energy=-2.6030421855819834 pbc="F F F"
La       0.00000000       0.00000000       0.00000000       0.00000000       0.00000000       1.21212006
La       0.00000000       0.00000000       3.94242424       0.00000000       0.00000000      -1.21212006
2
Properties=species:S:1:pos:R:3:forces:R:3 energy=-2.532360247602524 pbc="F F F"
La       0.00000000       0.00000000       0.00000000       0.00000000       0.00000000       1.19203293
La       0.00000000       0.00000000       4.00121212       0.00000000       0.00000000      -1.19203293
2
Properties=species:S:1:pos:R:3:forces:R:3 energy=-2.4630049246757344 pbc="F F F"
La       0.00000000       0.00000000       0.00000000       0.00000000       0.00000000       1.16618931
La       0.00000000       0.00000000       4.06000000       0.00000000       0.00000000      -1.16618931
2
Properties=species:S:1:pos:R:3:forces:R:3 energy=-2.3953937486397234 pbc="F F F"
La       0.00000000       0.00000000       0.00000000       0.00000000       0.00000000       1.13284028
La       0.00000000       0.00000000       4.11878788       0.00000000       0.00000000      -1.13284028
2
Properties=species:S:1:pos:R:3:forces:R:3 energy=-2.329913753120764 pbc="F F F"
La       0.00000000       0.00000000       0.00000000       0.00000000       0.00000000       1.09420872
La       0.00000000       0.00000000       4.17757576       0.00000000       0.00000000      -1.09420872
2
Properties=species:S:1:pos:R:3:forces:R:3 energy=-2.2667750194844825 pbc="F F F"
La       0.00000000       0.00000000       0.00000000       0.00000000       0.00000000       1.05377889
La       0.00000000       0.00000000       4.23636364       0.00000000       0.00000000      -1.05377889
2
Properties=species:S:1:pos:R:3:forces:R:3 energy=-2.205991586867532 pbc="F F F"
La       0.00000000       0.00000000       0.00000000       0.00000000       0.00000000       1.01445174
La       0.00000000       0.00000000       4.29515152       0.00000000       0.00000000      -1.01445174
2
Properties=species:S:1:pos:R:3:forces:R:3 energy=-2.1474434949299606 pbc="F F F"
La       0.00000000       0.00000000       0.00000000       0.00000000       0.00000000       0.97804451
La       0.00000000       0.00000000       4.35393939       0.00000000       0.00000000      -0.97804451
2
Properties=species:S:1:pos:R:3:forces:R:3 energy=-2.0909249733397917 pbc="F F F"
La       0.00000000       0.00000000       0.00000000       0.00000000       0.00000000       0.94538295
La       0.00000000       0.00000000       4.41272727       0.00000000       0.00000000      -0.94538295
2
Properties=species:S:1:pos:R:3:forces:R:3 energy=-2.036212437916825 pbc="F F F"
La       0.00000000       0.00000000       0.00000000       0.00000000       0.00000000       0.91658282
La       0.00000000       0.00000000       4.47151515       0.00000000       0.00000000      -0.91658282
2
Properties=species:S:1:pos:R:3:forces:R:3 energy=-1.983088518305771 pbc="F F F"
La       0.00000000       0.00000000       0.00000000       0.00000000       0.00000000       0.89120847
La       0.00000000       0.00000000       4.53030303       0.00000000       0.00000000      -0.89120847
2
Properties=species:S:1:pos:R:3:forces:R:3 energy=-1.931377539867718 pbc="F F F"
La       0.00000000       0.00000000       0.00000000       0.00000000       0.00000000       0.86840874
La       0.00000000       0.00000000       4.58909091       0.00000000       0.00000000      -0.86840874
2
Properties=species:S:1:pos:R:3:forces:R:3 energy=-1.8809574552968393 pbc="F F F"
La       0.00000000       0.00000000       0.00000000       0.00000000       0.00000000       0.84706849
La       0.00000000       0.00000000       4.64787879       0.00000000       0.00000000      -0.84706849
2
Properties=species:S:1:pos:R:3:forces:R:3 energy=-1.8317774082398426 pbc="F F F"
La       0.00000000       0.00000000       0.00000000       0.00000000       0.00000000       0.82594824
La       0.00000000       0.00000000       4.70666667       0.00000000       0.00000000      -0.82594824
2
Properties=species:S:1:pos:R:3:forces:R:3 energy=-1.783861223211541 pbc="F F F"
La       0.00000000       0.00000000       0.00000000       0.00000000       0.00000000       0.80403018
La       0.00000000       0.00000000       4.76545455       0.00000000       0.00000000      -0.80403018
2
Properties=species:S:1:pos:R:3:forces:R:3 energy=-1.7372667040460783 pbc="F F F"
La       0.00000000       0.00000000       0.00000000       0.00000000       0.00000000       0.78090006
La       0.00000000       0.00000000       4.82424242       0.00000000       0.00000000      -0.78090006
2
Properties=species:S:1:pos:R:3:forces:R:3 energy=-1.692059990060434 pbc="F F F"
La       0.00000000       0.00000000       0.00000000       0.00000000       0.00000000       0.75724190
La       0.00000000       0.00000000       4.88303030       0.00000000       0.00000000      -0.75724190
2
Properties=species:S:1:pos:R:3:forces:R:3 energy=-1.648204754771585 pbc="F F F"
La       0.00000000       0.00000000       0.00000000       0.00000000       0.00000000       0.73516089
La       0.00000000       0.00000000       4.94181818       0.00000000       0.00000000      -0.73516089
2
Properties=species:S:1:pos:R:3:forces:R:3 energy=-1.6055188834071954 pbc="F F F"
La       0.00000000       0.00000000       0.00000000       0.00000000       0.00000000       0.71817511
La       0.00000000       0.00000000       5.00060606       0.00000000       0.00000000      -0.71817511
2
Properties=species:S:1:pos:R:3:forces:R:3 energy=-1.5635817926027418 pbc="F F F"
La       0.00000000       0.00000000       0.00000000       0.00000000       0.00000000       0.71039736
La       0.00000000       0.00000000       5.05939394       0.00000000       0.00000000      -0.71039736
2
Properties=species:S:1:pos:R:3:forces:R:3 energy=-1.5217536892853616 pbc="F F F"
La       0.00000000       0.00000000       0.00000000       0.00000000       0.00000000       0.71469671
La       0.00000000       0.00000000       5.11818182       0.00000000       0.00000000      -0.71469671
2
Properties=species:S:1:pos:R:3:forces:R:3 energy=-1.4793368378359422 pbc="F F F"
La       0.00000000       0.00000000       0.00000000       0.00000000       0.00000000       0.72979552
La       0.00000000       0.00000000       5.17696970       0.00000000       0.00000000      -0.72979552
2
Properties=species:S:1:pos:R:3:forces:R:3 energy=-1.435910864142406 pbc="F F F"
La       0.00000000       0.00000000       0.00000000       0.00000000       0.00000000       0.74668413
La       0.00000000       0.00000000       5.23575758       0.00000000       0.00000000      -0.74668413
2
Properties=species:S:1:pos:R:3:forces:R:3 energy=-1.3918643466677314 pbc="F F F"
La       0.00000000       0.00000000       0.00000000       0.00000000       0.00000000       0.74741524
La       0.00000000       0.00000000       5.29454545       0.00000000       0.00000000      -0.74741524
2
Properties=species:S:1:pos:R:3:forces:R:3 energy=-1.3486676623391085 pbc="F F F"
La       0.00000000       0.00000000       0.00000000       0.00000000       0.00000000       0.71690881
La       0.00000000       0.00000000       5.35333333       0.00000000       0.00000000      -0.71690881
2
Properties=species:S:1:pos:R:3:forces:R:3 energy=-1.3077929860625714 pbc="F F F"
La       0.00000000       0.00000000       0.00000000       0.00000000       0.00000000       0.67689735
La       0.00000000       0.00000000       5.41212121       0.00000000       0.00000000      -0.67689735
2
Properties=species:S:1:pos:R:3:forces:R:3 energy=-1.2680794026283646 pbc="F F F"
La       0.00000000       0.00000000       0.00000000       0.00000000       0.00000000       0.68469751
La       0.00000000       0.00000000       5.47090909       0.00000000       0.00000000      -0.68469751
2
Properties=species:S:1:pos:R:3:forces:R:3 energy=-1.2267672908840679 pbc="F F F"
La       0.00000000       0.00000000       0.00000000       0.00000000       0.00000000       0.71537089
La       0.00000000       0.00000000       5.52969697       0.00000000       0.00000000      -0.71537089
2
Properties=species:S:1:pos:R:3:forces:R:3 energy=-1.1854448205503727 pbc="F F F"
La       0.00000000       0.00000000       0.00000000       0.00000000       0.00000000       0.67627674
La       0.00000000       0.00000000       5.58848485       0.00000000       0.00000000      -0.67627674
2
Properties=species:S:1:pos:R:3:forces:R:3 energy=-1.1482374090349807 pbc="F F F"
La       0.00000000       0.00000000       0.00000000       0.00000000       0.00000000       0.59019303
La       0.00000000       0.00000000       5.64727273       0.00000000       0.00000000      -0.59019303
2
Properties=species:S:1:pos:R:3:forces:R:3 energy=-1.1146317460177477 pbc="F F F"
La       0.00000000       0.00000000       0.00000000       0.00000000       0.00000000       0.57620472
La       0.00000000       0.00000000       5.70606061       0.00000000       0.00000000      -0.57620472
2
Properties=species:S:1:pos:R:3:forces:R:3 energy=-1.0777282981395133 pbc="F F F"
La       0.00000000       0.00000000       0.00000000       0.00000000       0.00000000       0.68768615
La       0.00000000       0.00000000       5.76484848       0.00000000       0.00000000      -0.68768615
2
Properties=species:S:1:pos:R:3:forces:R:3 energy=-1.03566757125865 pbc="F F F"
La       0.00000000       0.00000000       0.00000000       0.00000000       0.00000000       0.70514011
La       0.00000000       0.00000000       5.82363636       0.00000000       0.00000000      -0.70514011
2
Properties=species:S:1:pos:R:3:forces:R:3 energy=-1.000272370958664 pbc="F F F"
La       0.00000000       0.00000000       0.00000000       0.00000000       0.00000000       0.46720648
La       0.00000000       0.00000000       5.88242424       0.00000000       0.00000000      -0.46720648
2
Properties=species:S:1:pos:R:3:forces:R:3 energy=-0.9819755694402557 pbc="F F F"
La       0.00000000       0.00000000       0.00000000       0.00000000       0.00000000       0.16563003
La       0.00000000       0.00000000       5.94121212       0.00000000       0.00000000      -0.16563003
2
Properties=species:S:1:pos:R:3:forces:R:3 energy=-0.9771897102310176 pbc="F F F"
La       0.00000000       0.00000000       0.00000000       0.00000000       0.00000000       0.03887901
La       0.00000000       0.00000000       6.00000000       0.00000000       0.00000000      -0.03887901
