2
Properties=species:S:1:pos:R:3:forces:R:3 energy=4481.414438293947 pbc="F F F"
Mg       0.00000000       0.00000000       0.00000000       0.00000000       0.00000000  -84401.73437500
Mg       0.00000000       0.00000000       0.10000000       0.00000000       0.00000000   84401.73437500
2
Properties=species:S:1:pos:R:3:forces:R:3 energy=1808.6759129033212 pbc="F F F"
Mg       0.00000000       0.00000000       0.00000000       0.00000000       0.00000000  -22122.46289062
Mg       0.00000000       0.00000000       0.15959596       0.00000000       0.00000000   22122.46289062
2
Properties=species:S:1:pos:R:3:forces:R:3 energy=997.5443821416026 pbc="F F F"
Mg       0.00000000       0.00000000       0.00000000       0.00000000       0.00000000   -7987.33398438
Mg       0.00000000       0.00000000       0.21919192       0.00000000       0.00000000    7987.33398438
2
Properties=species:S:1:pos:R:3:forces:R:3 energy=677.1654758916026 pbc="F F F"
Mg       0.00000000       0.00000000       0.00000000       0.00000000       0.00000000   -3525.90283203
Mg       0.00000000       0.00000000       0.27878788       0.00000000       0.00000000    3525.90283203
2
Properties=species:S:1:pos:R:3:forces:R:3 energy=524.0586643681651 pbc="F F F"
Mg       0.00000000       0.00000000       0.00000000       0.00000000       0.00000000   -1869.33898926
Mg       0.00000000       0.00000000       0.33838384       0.00000000       0.00000000    1869.33898926
2
Properties=species:S:1:pos:R:3:forces:R:3 energy=434.77930647068007 pbc="F F F"
Mg       0.00000000       0.00000000       0.00000000       0.00000000       0.00000000   -1230.39392090
Mg       0.00000000       0.00000000       0.39797980       0.00000000       0.00000000    1230.39392090
2
Properties=species:S:1:pos:R:3:forces:R:3 energy=369.10398300335885 pbc="F F F"
Mg       0.00000000       0.00000000       0.00000000       0.00000000       0.00000000   -1018.82641602
Mg       0.00000000       0.00000000       0.45757576       0.00000000       0.00000000    1018.82641602
2
Properties=species:S:1:pos:R:3:forces:R:3 energy=309.9061681063021 pbc="F F F"
Mg       0.00000000       0.00000000       0.00000000       0.00000000       0.00000000    -983.30413818
Mg       0.00000000       0.00000000       0.51717172       0.00000000       0.00000000     983.30413818
2
Properties=species:S:1:pos:R:3:forces:R:3 energy=251.28229732638485 pbc="F F F"
Mg       0.00000000       0.00000000       0.00000000       0.00000000       0.00000000    -980.62957764
Mg       0.00000000       0.00000000       0.57676768       0.00000000       0.00000000     980.62957764
2
Properties=species:S:1:pos:R:3:forces:R:3 energy=194.12002022508238 pbc="F F F"
Mg       0.00000000       0.00000000       0.00000000       0.00000000       0.00000000    -925.26678467
Mg       0.00000000       0.00000000       0.63636364       0.00000000       0.00000000     925.26678467
2
Properties=species:S:1:pos:R:3:forces:R:3 energy=142.38260891612828 pbc="F F F"
Mg       0.00000000       0.00000000       0.00000000       0.00000000       0.00000000    -800.97485352
Mg       0.00000000       0.00000000       0.69595960       0.00000000       0.00000000     800.97485352
2
Properties=species:S:1:pos:R:3:forces:R:3 energy=100.48685725444292 pbc="F F F"
Mg       0.00000000       0.00000000       0.00000000       0.00000000       0.00000000    -581.33569336
Mg       0.00000000       0.00000000       0.75555556       0.00000000       0.00000000     581.33569336
2
Properties=species:S:1:pos:R:3:forces:R:3 energy=73.89659431856752 pbc="F F F"
Mg       0.00000000       0.00000000       0.00000000       0.00000000       0.00000000    -337.89459229
Mg       0.00000000       0.00000000       0.81515152       0.00000000       0.00000000     337.89459229
2
Properties=species:S:1:pos:R:3:forces:R:3 energy=57.363597814448646 pbc="F F F"
Mg       0.00000000       0.00000000       0.00000000       0.00000000       0.00000000    -231.36845398
Mg       0.00000000       0.00000000       0.87474747       0.00000000       0.00000000     231.36845398
2
Properties=species:S:1:pos:R:3:forces:R:3 energy=45.22089469776473 pbc="F F F"
Mg       0.00000000       0.00000000       0.00000000       0.00000000       0.00000000    -179.14735413
Mg       0.00000000       0.00000000       0.93434343       0.00000000       0.00000000     179.14735413
2
Properties=species:S:1:pos:R:3:forces:R:3 energy=35.913362662719564 pbc="F F F"
Mg       0.00000000       0.00000000       0.00000000       0.00000000       0.00000000    -133.52619934
Mg       0.00000000       0.00000000       0.99393939       0.00000000       0.00000000     133.52619934
2
Properties=species:S:1:pos:R:3:forces:R:3 energy=29.18307487610114 pbc="F F F"
Mg       0.00000000       0.00000000       0.00000000       0.00000000       0.00000000     -94.14682007
Mg       0.00000000       0.00000000       1.05353535       0.00000000       0.00000000      94.14682007
2
Properties=species:S:1:pos:R:3:forces:R:3 energy=24.442270526658092 pbc="F F F"
Mg       0.00000000       0.00000000       0.00000000       0.00000000       0.00000000     -67.00925446
Mg       0.00000000       0.00000000       1.11313131       0.00000000       0.00000000      67.00925446
2
Properties=species:S:1:pos:R:3:forces:R:3 energy=20.96921477850681 pbc="F F F"
Mg       0.00000000       0.00000000       0.00000000       0.00000000       0.00000000     -51.29936600
Mg       0.00000000       0.00000000       1.17272727       0.00000000       0.00000000      51.29936600
2
Properties=species:S:1:pos:R:3:forces:R:3 energy=18.14638840504065 pbc="F F F"
Mg       0.00000000       0.00000000       0.00000000       0.00000000       0.00000000     -44.57800674
Mg       0.00000000       0.00000000       1.23232323       0.00000000       0.00000000      44.57800674
2
Properties=species:S:1:pos:R:3:forces:R:3 energy=15.592645190702285 pbc="F F F"
Mg       0.00000000       0.00000000       0.00000000       0.00000000       0.00000000     -41.04235077
Mg       0.00000000       0.00000000       1.29191919       0.00000000       0.00000000      41.04235077
2
Properties=species:S:1:pos:R:3:forces:R:3 energy=13.292166774024318 pbc="F F F"
Mg       0.00000000       0.00000000       0.00000000       0.00000000       0.00000000     -35.89931488
Mg       0.00000000       0.00000000       1.35151515       0.00000000       0.00000000      35.89931488
2
Properties=species:S:1:pos:R:3:forces:R:3 energy=11.320708559434477 pbc="F F F"
Mg       0.00000000       0.00000000       0.00000000       0.00000000       0.00000000     -30.35584450
Mg       0.00000000       0.00000000       1.41111111       0.00000000       0.00000000      30.35584450
2
Properties=species:S:1:pos:R:3:forces:R:3 energy=9.656229561921124 pbc="F F F"
Mg       0.00000000       0.00000000       0.00000000       0.00000000       0.00000000     -25.66489220
Mg       0.00000000       0.00000000       1.47070707       0.00000000       0.00000000      25.66489220
2
Properties=species:S:1:pos:R:3:forces:R:3 energy=8.244206661927121 pbc="F F F"
Mg       0.00000000       0.00000000       0.00000000       0.00000000       0.00000000     -21.84872437
Mg       0.00000000       0.00000000       1.53030303       0.00000000       0.00000000      21.84872437
2
Properties=species:S:1:pos:R:3:forces:R:3 energy=7.038678458776814 pbc="F F F"
Mg       0.00000000       0.00000000       0.00000000       0.00000000       0.00000000     -18.71124458
Mg       0.00000000       0.00000000       1.58989899       0.00000000       0.00000000      18.71124458
2
Properties=species:S:1:pos:R:3:forces:R:3 energy=6.002299070911543 pbc="F F F"
Mg       0.00000000       0.00000000       0.00000000       0.00000000       0.00000000     -16.15901184
Mg       0.00000000       0.00000000       1.64949495       0.00000000       0.00000000      16.15901184
2
Properties=species:S:1:pos:R:3:forces:R:3 energy=5.10347048790536 pbc="F F F"
Mg       0.00000000       0.00000000       0.00000000       0.00000000       0.00000000     -14.06787586
Mg       0.00000000       0.00000000       1.70909091       0.00000000       0.00000000      14.06787586
2
Properties=species:S:1:pos:R:3:forces:R:3 energy=4.31937143375829 pbc="F F F"
Mg       0.00000000       0.00000000       0.00000000       0.00000000       0.00000000     -12.28947830
Mg       0.00000000       0.00000000       1.76868687       0.00000000       0.00000000      12.28947830
2
Properties=species:S:1:pos:R:3:forces:R:3 energy=3.63412919857436 pbc="F F F"
Mg       0.00000000       0.00000000       0.00000000       0.00000000       0.00000000     -10.74005795
Mg       0.00000000       0.00000000       1.82828283       0.00000000       0.00000000      10.74005795
2
Properties=species:S:1:pos:R:3:forces:R:3 energy=3.0357191863381594 pbc="F F F"
Mg       0.00000000       0.00000000       0.00000000       0.00000000       0.00000000      -9.36880970
Mg       0.00000000       0.00000000       1.88787879       0.00000000       0.00000000       9.36880970
2
Properties=species:S:1:pos:R:3:forces:R:3 energy=2.5144577086854962 pbc="F F F"
Mg       0.00000000       0.00000000       0.00000000       0.00000000       0.00000000      -8.14837646
Mg       0.00000000       0.00000000       1.94747475       0.00000000       0.00000000       8.14837646
2
Properties=species:S:1:pos:R:3:forces:R:3 energy=2.0617519626288097 pbc="F F F"
Mg       0.00000000       0.00000000       0.00000000       0.00000000       0.00000000      -7.06608868
Mg       0.00000000       0.00000000       2.00707071       0.00000000       0.00000000       7.06608868
2
Properties=species:S:1:pos:R:3:forces:R:3 energy=1.6697814756570077 pbc="F F F"
Mg       0.00000000       0.00000000       0.00000000       0.00000000       0.00000000      -6.10737753
Mg       0.00000000       0.00000000       2.06666667       0.00000000       0.00000000       6.10737753
2
Properties=species:S:1:pos:R:3:forces:R:3 energy=1.3316789382282384 pbc="F F F"
Mg       0.00000000       0.00000000       0.00000000       0.00000000       0.00000000      -5.25571012
Mg       0.00000000       0.00000000       2.12626263       0.00000000       0.00000000       5.25571012
2
Properties=species:S:1:pos:R:3:forces:R:3 energy=1.0414760083885355 pbc="F F F"
Mg       0.00000000       0.00000000       0.00000000       0.00000000       0.00000000      -4.49820280
Mg       0.00000000       0.00000000       2.18585859       0.00000000       0.00000000       4.49820280
2
Properties=species:S:1:pos:R:3:forces:R:3 energy=0.7938158498254635 pbc="F F F"
Mg       0.00000000       0.00000000       0.00000000       0.00000000       0.00000000      -3.82709408
Mg       0.00000000       0.00000000       2.24545455       0.00000000       0.00000000       3.82709408
2
Properties=species:S:1:pos:R:3:forces:R:3 energy=0.5837020315868597 pbc="F F F"
Mg       0.00000000       0.00000000       0.00000000       0.00000000       0.00000000      -3.23720431
Mg       0.00000000       0.00000000       2.30505051       0.00000000       0.00000000       3.23720431
2
Properties=species:S:1:pos:R:3:forces:R:3 energy=0.4064661026940727 pbc="F F F"
Mg       0.00000000       0.00000000       0.00000000       0.00000000       0.00000000      -2.72272611
Mg       0.00000000       0.00000000       2.36464646       0.00000000       0.00000000       2.72272611
2
Properties=species:S:1:pos:R:3:forces:R:3 energy=0.2578271874072415 pbc="F F F"
Mg       0.00000000       0.00000000       0.00000000       0.00000000       0.00000000      -2.27611327
Mg       0.00000000       0.00000000       2.42424242       0.00000000       0.00000000       2.27611327
2
Properties=species:S:1:pos:R:3:forces:R:3 energy=0.13398840901142428 pbc="F F F"
Mg       0.00000000       0.00000000       0.00000000       0.00000000       0.00000000      -1.88910687
Mg       0.00000000       0.00000000       2.48383838       0.00000000       0.00000000       1.88910687
2
Properties=species:S:1:pos:R:3:forces:R:3 energy=0.03162740775832863 pbc="F F F"
Mg       0.00000000       0.00000000       0.00000000       0.00000000       0.00000000      -1.55417299
Mg       0.00000000       0.00000000       2.54343434       0.00000000       0.00000000       1.55417299
2
Properties=species:S:1:pos:R:3:forces:R:3 energy=-0.05216773839164104 pbc="F F F"
Mg       0.00000000       0.00000000       0.00000000       0.00000000       0.00000000      -1.26517606
Mg       0.00000000       0.00000000       2.60303030       0.00000000       0.00000000       1.26517606
2
Properties=species:S:1:pos:R:3:forces:R:3 energy=-0.11998364486424665 pbc="F F F"
Mg       0.00000000       0.00000000       0.00000000       0.00000000       0.00000000      -1.01712322
Mg       0.00000000       0.00000000       2.66262626       0.00000000       0.00000000       1.01712322
2
Properties=species:S:1:pos:R:3:forces:R:3 energy=-0.17412734732140167 pbc="F F F"
Mg       0.00000000       0.00000000       0.00000000       0.00000000       0.00000000      -0.80561930
Mg       0.00000000       0.00000000       2.72222222       0.00000000       0.00000000       0.80561930
2
Properties=species:S:1:pos:R:3:forces:R:3 energy=-0.2166501684016534 pbc="F F F"
Mg       0.00000000       0.00000000       0.00000000       0.00000000       0.00000000      -0.62647152
Mg       0.00000000       0.00000000       2.78181818       0.00000000       0.00000000       0.62647152
2
Properties=species:S:1:pos:R:3:forces:R:3 energy=-0.24935943019192877 pbc="F F F"
Mg       0.00000000       0.00000000       0.00000000       0.00000000       0.00000000      -0.47563201
Mg       0.00000000       0.00000000       2.84141414       0.00000000       0.00000000       0.47563201
2
Properties=species:S:1:pos:R:3:forces:R:3 energy=-0.2738291959282033 pbc="F F F"
Mg       0.00000000       0.00000000       0.00000000       0.00000000       0.00000000      -0.34938538
Mg       0.00000000       0.00000000       2.90101010       0.00000000       0.00000000       0.34938538
2
Properties=species:S:1:pos:R:3:forces:R:3 energy=-0.29142939839887433 pbc="F F F"
Mg       0.00000000       0.00000000       0.00000000       0.00000000       0.00000000      -0.24461500
Mg       0.00000000       0.00000000       2.96060606       0.00000000       0.00000000       0.24461500
2
Properties=species:S:1:pos:R:3:forces:R:3 energy=-0.30336569951528164 pbc="F F F"
Mg       0.00000000       0.00000000       0.00000000       0.00000000       0.00000000      -0.15901266
Mg       0.00000000       0.00000000       3.02020202       0.00000000       0.00000000       0.15901266
2
Properties=species:S:1:pos:R:3:forces:R:3 energy=-0.3107346422907495 pbc="F F F"
Mg       0.00000000       0.00000000       0.00000000       0.00000000       0.00000000      -0.09115613
Mg       0.00000000       0.00000000       3.07979798       0.00000000       0.00000000       0.09115613
2
Properties=species:S:1:pos:R:3:forces:R:3 energy=-0.3145673479683204 pbc="F F F"
Mg       0.00000000       0.00000000       0.00000000       0.00000000       0.00000000      -0.04022329
Mg       0.00000000       0.00000000       3.13939394       0.00000000       0.00000000       0.04022329
2
Properties=species:S:1:pos:R:3:forces:R:3 energy=-0.3158381892125426 pbc="F F F"
Mg       0.00000000       0.00000000       0.00000000       0.00000000       0.00000000      -0.00476015
Mg       0.00000000       0.00000000       3.19898990       0.00000000       0.00000000       0.00476015
2
Properties=species:S:1:pos:R:3:forces:R:3 energy=-0.3153556084895021 pbc="F F F"
Mg       0.00000000       0.00000000       0.00000000       0.00000000       0.00000000       0.01974751
Mg       0.00000000       0.00000000       3.25858586       0.00000000       0.00000000      -0.01974751
2
Properties=species:S:1:pos:R:3:forces:R:3 energy=-0.31353135093879725 pbc="F F F"
Mg       0.00000000       0.00000000       0.00000000       0.00000000       0.00000000       0.04185963
Mg       0.00000000       0.00000000       3.31818182       0.00000000       0.00000000      -0.04185963
2
Properties=species:S:1:pos:R:3:forces:R:3 energy=-0.31026245380163664 pbc="F F F"
Mg       0.00000000       0.00000000       0.00000000       0.00000000       0.00000000       0.06888536
Mg       0.00000000       0.00000000       3.37777778       0.00000000       0.00000000      -0.06888536
2
Properties=species:S:1:pos:R:3:forces:R:3 energy=-0.3052350002198735 pbc="F F F"
Mg       0.00000000       0.00000000       0.00000000       0.00000000       0.00000000       0.10003822
Mg       0.00000000       0.00000000       3.43737374       0.00000000       0.00000000      -0.10003822
2
Properties=species:S:1:pos:R:3:forces:R:3 energy=-0.29838029341914807 pbc="F F F"
Mg       0.00000000       0.00000000       0.00000000       0.00000000       0.00000000       0.12918010
Mg       0.00000000       0.00000000       3.49696970       0.00000000       0.00000000      -0.12918010
2
Properties=species:S:1:pos:R:3:forces:R:3 energy=-0.28996604309248225 pbc="F F F"
Mg       0.00000000       0.00000000       0.00000000       0.00000000       0.00000000       0.15199833
Mg       0.00000000       0.00000000       3.55656566       0.00000000       0.00000000      -0.15199833
2
Properties=species:S:1:pos:R:3:forces:R:3 energy=-0.28040302879553836 pbc="F F F"
Mg       0.00000000       0.00000000       0.00000000       0.00000000       0.00000000       0.16784391
Mg       0.00000000       0.00000000       3.61616162       0.00000000       0.00000000      -0.16784391
2
Properties=species:S:1:pos:R:3:forces:R:3 energy=-0.2700752052241689 pbc="F F F"
Mg       0.00000000       0.00000000       0.00000000       0.00000000       0.00000000       0.17791590
Mg       0.00000000       0.00000000       3.67575758       0.00000000       0.00000000      -0.17791590
2
Properties=species:S:1:pos:R:3:forces:R:3 energy=-0.2592814675949837 pbc="F F F"
Mg       0.00000000       0.00000000       0.00000000       0.00000000       0.00000000       0.18371800
Mg       0.00000000       0.00000000       3.73535354       0.00000000       0.00000000      -0.18371800
2
Properties=species:S:1:pos:R:3:forces:R:3 energy=-0.24823733593817504 pbc="F F F"
Mg       0.00000000       0.00000000       0.00000000       0.00000000       0.00000000       0.18649466
Mg       0.00000000       0.00000000       3.79494949       0.00000000       0.00000000      -0.18649466
2
Properties=species:S:1:pos:R:3:forces:R:3 energy=-0.2370945968720286 pbc="F F F"
Mg       0.00000000       0.00000000       0.00000000       0.00000000       0.00000000       0.18715951
Mg       0.00000000       0.00000000       3.85454545       0.00000000       0.00000000      -0.18715951
2
Properties=species:S:1:pos:R:3:forces:R:3 energy=-0.22595868291462695 pbc="F F F"
Mg       0.00000000       0.00000000       0.00000000       0.00000000       0.00000000       0.18635246
Mg       0.00000000       0.00000000       3.91414141       0.00000000       0.00000000      -0.18635246
2
Properties=species:S:1:pos:R:3:forces:R:3 energy=-0.21490347265816628 pbc="F F F"
Mg       0.00000000       0.00000000       0.00000000       0.00000000       0.00000000       0.18450423
Mg       0.00000000       0.00000000       3.97373737       0.00000000       0.00000000      -0.18450423
2
Properties=species:S:1:pos:R:3:forces:R:3 energy=-0.20398252493142402 pbc="F F F"
Mg       0.00000000       0.00000000       0.00000000       0.00000000       0.00000000       0.18188351
Mg       0.00000000       0.00000000       4.03333333       0.00000000       0.00000000      -0.18188351
2
Properties=species:S:1:pos:R:3:forces:R:3 energy=-0.1932368941203631 pbc="F F F"
Mg       0.00000000       0.00000000       0.00000000       0.00000000       0.00000000       0.17863426
Mg       0.00000000       0.00000000       4.09292929       0.00000000       0.00000000      -0.17863426
2
Properties=species:S:1:pos:R:3:forces:R:3 energy=-0.18270198063078333 pbc="F F F"
Mg       0.00000000       0.00000000       0.00000000       0.00000000       0.00000000       0.17481178
Mg       0.00000000       0.00000000       4.15252525       0.00000000       0.00000000      -0.17481178
2
Properties=species:S:1:pos:R:3:forces:R:3 energy=-0.17241214631870388 pbc="F F F"
Mg       0.00000000       0.00000000       0.00000000       0.00000000       0.00000000       0.17041613
Mg       0.00000000       0.00000000       4.21212121       0.00000000       0.00000000      -0.17041613
2
Properties=species:S:1:pos:R:3:forces:R:3 energy=-0.16240163482262227 pbc="F F F"
Mg       0.00000000       0.00000000       0.00000000       0.00000000       0.00000000       0.16542697
Mg       0.00000000       0.00000000       4.27171717       0.00000000       0.00000000      -0.16542697
2
Properties=species:S:1:pos:R:3:forces:R:3 energy=-0.15270666533570942 pbc="F F F"
Mg       0.00000000       0.00000000       0.00000000       0.00000000       0.00000000       0.15983112
Mg       0.00000000       0.00000000       4.33131313       0.00000000       0.00000000      -0.15983112
2
Properties=species:S:1:pos:R:3:forces:R:3 energy=-0.14336279439233124 pbc="F F F"
Mg       0.00000000       0.00000000       0.00000000       0.00000000       0.00000000       0.15364534
Mg       0.00000000       0.00000000       4.39090909       0.00000000       0.00000000      -0.15364534
2
Properties=species:S:1:pos:R:3:forces:R:3 energy=-0.1344038668050944 pbc="F F F"
Mg       0.00000000       0.00000000       0.00000000       0.00000000       0.00000000       0.14692245
Mg       0.00000000       0.00000000       4.45050505       0.00000000       0.00000000      -0.14692245
2
Properties=species:S:1:pos:R:3:forces:R:3 energy=-0.12585974399872688 pbc="F F F"
Mg       0.00000000       0.00000000       0.00000000       0.00000000       0.00000000       0.13975066
Mg       0.00000000       0.00000000       4.51010101       0.00000000       0.00000000      -0.13975066
2
Properties=species:S:1:pos:R:3:forces:R:3 energy=-0.11775349779599445 pbc="F F F"
Mg       0.00000000       0.00000000       0.00000000       0.00000000       0.00000000       0.13223675
Mg       0.00000000       0.00000000       4.56969697       0.00000000       0.00000000      -0.13223675
2
Properties=species:S:1:pos:R:3:forces:R:3 energy=-0.11010270117308772 pbc="F F F"
Mg       0.00000000       0.00000000       0.00000000       0.00000000       0.00000000       0.12448888
Mg       0.00000000       0.00000000       4.62929293       0.00000000       0.00000000      -0.12448888
2
Properties=species:S:1:pos:R:3:forces:R:3 energy=-0.10291846621471501 pbc="F F F"
Mg       0.00000000       0.00000000       0.00000000       0.00000000       0.00000000       0.11659472
Mg       0.00000000       0.00000000       4.68888889       0.00000000       0.00000000      -0.11659472
2
Properties=species:S:1:pos:R:3:forces:R:3 energy=-0.09620720567196117 pbc="F F F"
Mg       0.00000000       0.00000000       0.00000000       0.00000000       0.00000000       0.10861492
Mg       0.00000000       0.00000000       4.74848485       0.00000000       0.00000000      -0.10861492
2
Properties=species:S:1:pos:R:3:forces:R:3 energy=-0.08997345726329412 pbc="F F F"
Mg       0.00000000       0.00000000       0.00000000       0.00000000       0.00000000       0.10058504
Mg       0.00000000       0.00000000       4.80808081       0.00000000       0.00000000      -0.10058504
2
Properties=species:S:1:pos:R:3:forces:R:3 energy=-0.08421862528740671 pbc="F F F"
Mg       0.00000000       0.00000000       0.00000000       0.00000000       0.00000000       0.09253919
Mg       0.00000000       0.00000000       4.86767677       0.00000000       0.00000000      -0.09253919
2
Properties=species:S:1:pos:R:3:forces:R:3 energy=-0.07894231204727098 pbc="F F F"
Mg       0.00000000       0.00000000       0.00000000       0.00000000       0.00000000       0.08454702
Mg       0.00000000       0.00000000       4.92727273       0.00000000       0.00000000      -0.08454702
2
Properties=species:S:1:pos:R:3:forces:R:3 energy=-0.07413747238890406 pbc="F F F"
Mg       0.00000000       0.00000000       0.00000000       0.00000000       0.00000000       0.07674877
Mg       0.00000000       0.00000000       4.98686869       0.00000000       0.00000000      -0.07674877
2
Properties=species:S:1:pos:R:3:forces:R:3 energy=-0.06978632690743185 pbc="F F F"
Mg       0.00000000       0.00000000       0.00000000       0.00000000       0.00000000       0.06937850
Mg       0.00000000       0.00000000       5.04646465       0.00000000       0.00000000      -0.06937850
2
Properties=species:S:1:pos:R:3:forces:R:3 energy=-0.06585377935913168 pbc="F F F"
Mg       0.00000000       0.00000000       0.00000000       0.00000000       0.00000000       0.06274131
Mg       0.00000000       0.00000000       5.10606061       0.00000000       0.00000000      -0.06274131
2
Properties=species:S:1:pos:R:3:forces:R:3 energy=-0.06228723440522599 pbc="F F F"
Mg       0.00000000       0.00000000       0.00000000       0.00000000       0.00000000       0.05712979
Mg       0.00000000       0.00000000       5.16565657       0.00000000       0.00000000      -0.05712979
2
Properties=species:S:1:pos:R:3:forces:R:3 energy=-0.05902104933378893 pbc="F F F"
Mg       0.00000000       0.00000000       0.00000000       0.00000000       0.00000000       0.05266913
Mg       0.00000000       0.00000000       5.22525253       0.00000000       0.00000000      -0.05266913
2
Properties=species:S:1:pos:R:3:forces:R:3 energy=-0.05599161247747142 pbc="F F F"
Mg       0.00000000       0.00000000       0.00000000       0.00000000       0.00000000       0.04909921
Mg       0.00000000       0.00000000       5.28484848       0.00000000       0.00000000      -0.04909921
2
Properties=species:S:1:pos:R:3:forces:R:3 energy=-0.053164700152572186 pbc="F F F"
Mg       0.00000000       0.00000000       0.00000000       0.00000000       0.00000000       0.04574216
Mg       0.00000000       0.00000000       5.34444444       0.00000000       0.00000000      -0.04574216
2
Properties=species:S:1:pos:R:3:forces:R:3 energy=-0.05054268965725786 pbc="F F F"
Mg       0.00000000       0.00000000       0.00000000       0.00000000       0.00000000       0.04229507
Mg       0.00000000       0.00000000       5.40404040       0.00000000       0.00000000      -0.04229507
2
Properties=species:S:1:pos:R:3:forces:R:3 energy=-0.04809564126381649 pbc="F F F"
Mg       0.00000000       0.00000000       0.00000000       0.00000000       0.00000000       0.04024556
Mg       0.00000000       0.00000000       5.46363636       0.00000000       0.00000000      -0.04024556
2
Properties=species:S:1:pos:R:3:forces:R:3 energy=-0.045695106641180844 pbc="F F F"
Mg       0.00000000       0.00000000       0.00000000       0.00000000       0.00000000       0.04053843
Mg       0.00000000       0.00000000       5.52323232       0.00000000       0.00000000      -0.04053843
2
Properties=species:S:1:pos:R:3:forces:R:3 energy=-0.043289947580615135 pbc="F F F"
Mg       0.00000000       0.00000000       0.00000000       0.00000000       0.00000000       0.03963555
Mg       0.00000000       0.00000000       5.58282828       0.00000000       0.00000000      -0.03963555
2
Properties=species:S:1:pos:R:3:forces:R:3 energy=-0.041030667585934114 pbc="F F F"
Mg       0.00000000       0.00000000       0.00000000       0.00000000       0.00000000       0.03593789
Mg       0.00000000       0.00000000       5.64242424       0.00000000       0.00000000      -0.03593789
2
Properties=species:S:1:pos:R:3:forces:R:3 energy=-0.03898349754200847 pbc="F F F"
Mg       0.00000000       0.00000000       0.00000000       0.00000000       0.00000000       0.03339132
Mg       0.00000000       0.00000000       5.70202020       0.00000000       0.00000000      -0.03339132
2
Properties=species:S:1:pos:R:3:forces:R:3 energy=-0.03694914304697798 pbc="F F F"
Mg       0.00000000       0.00000000       0.00000000       0.00000000       0.00000000       0.03556386
Mg       0.00000000       0.00000000       5.76161616       0.00000000       0.00000000      -0.03556386
2
Properties=species:S:1:pos:R:3:forces:R:3 energy=-0.034773393794882035 pbc="F F F"
Mg       0.00000000       0.00000000       0.00000000       0.00000000       0.00000000       0.03618155
Mg       0.00000000       0.00000000       5.82121212       0.00000000       0.00000000      -0.03618155
2
Properties=species:S:1:pos:R:3:forces:R:3 energy=-0.03282964682755028 pbc="F F F"
Mg       0.00000000       0.00000000       0.00000000       0.00000000       0.00000000       0.02786423
Mg       0.00000000       0.00000000       5.88080808       0.00000000       0.00000000      -0.02786423
2
Properties=species:S:1:pos:R:3:forces:R:3 energy=-0.03150692306757809 pbc="F F F"
Mg       0.00000000       0.00000000       0.00000000       0.00000000       0.00000000       0.01669630
Mg       0.00000000       0.00000000       5.94040404       0.00000000       0.00000000      -0.01669630
2
Properties=species:S:1:pos:R:3:forces:R:3 energy=-0.03071185125206901 pbc="F F F"
Mg       0.00000000       0.00000000       0.00000000       0.00000000       0.00000000       0.01149992
Mg       0.00000000       0.00000000       6.00000000       0.00000000       0.00000000      -0.01149992
