2
Properties=species:S:1:pos:R:3:forces:R:3 energy=4257.4229464598975 pbc="F F F"
Mn       0.00000000       0.00000000       0.00000000       0.00000000       0.00000000  -49510.00000000
Mn       0.00000000       0.00000000       0.18000000       0.00000000       0.00000000   49510.00000000
2
Properties=species:S:1:pos:R:3:forces:R:3 energy=2448.4021945067725 pbc="F F F"
Mn       0.00000000       0.00000000       0.00000000       0.00000000       0.00000000  -18230.13085938
Mn       0.00000000       0.00000000       0.23878788       0.00000000       0.00000000   18230.13085938
2
Properties=species:S:1:pos:R:3:forces:R:3 energy=1726.292453295835 pbc="F F F"
Mn       0.00000000       0.00000000       0.00000000       0.00000000       0.00000000   -8036.92724609
Mn       0.00000000       0.00000000       0.29757576       0.00000000       0.00000000    8036.92724609
2
Properties=species:S:1:pos:R:3:forces:R:3 energy=1384.8864474396278 pbc="F F F"
Mn       0.00000000       0.00000000       0.00000000       0.00000000       0.00000000   -4166.20800781
Mn       0.00000000       0.00000000       0.35636364       0.00000000       0.00000000    4166.20800781
2
Properties=species:S:1:pos:R:3:forces:R:3 energy=1191.7206759584205 pbc="F F F"
Mn       0.00000000       0.00000000       0.00000000       0.00000000       0.00000000   -2650.23779297
Mn       0.00000000       0.00000000       0.41515152       0.00000000       0.00000000    2650.23779297
2
Properties=species:S:1:pos:R:3:forces:R:3 energy=1053.2287326117169 pbc="F F F"
Mn       0.00000000       0.00000000       0.00000000       0.00000000       0.00000000   -2180.11279297
Mn       0.00000000       0.00000000       0.47393939       0.00000000       0.00000000    2180.11279297
2
Properties=species:S:1:pos:R:3:forces:R:3 energy=925.2155490369738 pbc="F F F"
Mn       0.00000000       0.00000000       0.00000000       0.00000000       0.00000000   -2236.39331055
Mn       0.00000000       0.00000000       0.53272727       0.00000000       0.00000000    2236.39331055
2
Properties=species:S:1:pos:R:3:forces:R:3 energy=785.4463840359252 pbc="F F F"
Mn       0.00000000       0.00000000       0.00000000       0.00000000       0.00000000   -2538.59790039
Mn       0.00000000       0.00000000       0.59151515       0.00000000       0.00000000    2538.59790039
2
Properties=species:S:1:pos:R:3:forces:R:3 energy=624.2250706132157 pbc="F F F"
Mn       0.00000000       0.00000000       0.00000000       0.00000000       0.00000000   -2954.74609375
Mn       0.00000000       0.00000000       0.65030303       0.00000000       0.00000000    2954.74609375
2
Properties=species:S:1:pos:R:3:forces:R:3 energy=449.24786732960627 pbc="F F F"
Mn       0.00000000       0.00000000       0.00000000       0.00000000       0.00000000   -2942.83105469
Mn       0.00000000       0.00000000       0.70909091       0.00000000       0.00000000    2942.83105469
2
Properties=species:S:1:pos:R:3:forces:R:3 energy=289.2991980322289 pbc="F F F"
Mn       0.00000000       0.00000000       0.00000000       0.00000000       0.00000000   -2331.52636719
Mn       0.00000000       0.00000000       0.76787879       0.00000000       0.00000000    2331.52636719
2
Properties=species:S:1:pos:R:3:forces:R:3 energy=179.52426537047356 pbc="F F F"
Mn       0.00000000       0.00000000       0.00000000       0.00000000       0.00000000   -1474.37939453
Mn       0.00000000       0.00000000       0.82666667       0.00000000       0.00000000    1474.37939453
2
Properties=species:S:1:pos:R:3:forces:R:3 energy=119.12763631891363 pbc="F F F"
Mn       0.00000000       0.00000000       0.00000000       0.00000000       0.00000000    -747.62915039
Mn       0.00000000       0.00000000       0.88545455       0.00000000       0.00000000     747.62915039
2
Properties=species:S:1:pos:R:3:forces:R:3 energy=80.85290222415672 pbc="F F F"
Mn       0.00000000       0.00000000       0.00000000       0.00000000       0.00000000    -569.07238770
Mn       0.00000000       0.00000000       0.94424242       0.00000000       0.00000000     569.07238770
2
Properties=species:S:1:pos:R:3:forces:R:3 energy=52.48920190232292 pbc="F F F"
Mn       0.00000000       0.00000000       0.00000000       0.00000000       0.00000000    -400.03582764
Mn       0.00000000       0.00000000       1.00303030       0.00000000       0.00000000     400.03582764
2
Properties=species:S:1:pos:R:3:forces:R:3 energy=32.95403876419877 pbc="F F F"
Mn       0.00000000       0.00000000       0.00000000       0.00000000       0.00000000    -273.49621582
Mn       0.00000000       0.00000000       1.06181818       0.00000000       0.00000000     273.49621582
2
Properties=species:S:1:pos:R:3:forces:R:3 energy=19.465434246956058 pbc="F F F"
Mn       0.00000000       0.00000000       0.00000000       0.00000000       0.00000000    -190.77996826
Mn       0.00000000       0.00000000       1.12060606       0.00000000       0.00000000     190.77996826
2
Properties=species:S:1:pos:R:3:forces:R:3 energy=10.061621220463772 pbc="F F F"
Mn       0.00000000       0.00000000       0.00000000       0.00000000       0.00000000    -132.05096436
Mn       0.00000000       0.00000000       1.17939394       0.00000000       0.00000000     132.05096436
2
Properties=species:S:1:pos:R:3:forces:R:3 energy=3.6381790893199115 pbc="F F F"
Mn       0.00000000       0.00000000       0.00000000       0.00000000       0.00000000     -89.14505005
Mn       0.00000000       0.00000000       1.23818182       0.00000000       0.00000000      89.14505005
2
Properties=species:S:1:pos:R:3:forces:R:3 energy=-0.7531142149480389 pbc="F F F"
Mn       0.00000000       0.00000000       0.00000000       0.00000000       0.00000000     -62.70043182
Mn       0.00000000       0.00000000       1.29696970       0.00000000       0.00000000      62.70043182
2
Properties=species:S:1:pos:R:3:forces:R:3 energy=-3.8780800510467714 pbc="F F F"
Mn       0.00000000       0.00000000       0.00000000       0.00000000       0.00000000     -43.73096085
Mn       0.00000000       0.00000000       1.35575758       0.00000000       0.00000000      43.73096085
2
Properties=species:S:1:pos:R:3:forces:R:3 energy=-5.9151812902802465 pbc="F F F"
Mn       0.00000000       0.00000000       0.00000000       0.00000000       0.00000000     -26.44753265
Mn       0.00000000       0.00000000       1.41454545       0.00000000       0.00000000      26.44753265
2
Properties=species:S:1:pos:R:3:forces:R:3 energy=-7.150612597762677 pbc="F F F"
Mn       0.00000000       0.00000000       0.00000000       0.00000000       0.00000000     -16.92730331
Mn       0.00000000       0.00000000       1.47333333       0.00000000       0.00000000      16.92730331
2
Properties=species:S:1:pos:R:3:forces:R:3 energy=-8.002548097757252 pbc="F F F"
Mn       0.00000000       0.00000000       0.00000000       0.00000000       0.00000000     -12.39094830
Mn       0.00000000       0.00000000       1.53212121       0.00000000       0.00000000      12.39094830
2
Properties=species:S:1:pos:R:3:forces:R:3 energy=-8.620051250739808 pbc="F F F"
Mn       0.00000000       0.00000000       0.00000000       0.00000000       0.00000000      -8.66320419
Mn       0.00000000       0.00000000       1.59090909       0.00000000       0.00000000       8.66320419
2
Properties=species:S:1:pos:R:3:forces:R:3 energy=-9.034363845940522 pbc="F F F"
Mn       0.00000000       0.00000000       0.00000000       0.00000000       0.00000000      -5.62338352
Mn       0.00000000       0.00000000       1.64969697       0.00000000       0.00000000       5.62338352
2
Properties=species:S:1:pos:R:3:forces:R:3 energy=-9.308680650938008 pbc="F F F"
Mn       0.00000000       0.00000000       0.00000000       0.00000000       0.00000000      -3.94474959
Mn       0.00000000       0.00000000       1.70848485       0.00000000       0.00000000       3.94474959
2
Properties=species:S:1:pos:R:3:forces:R:3 energy=-9.520056861728985 pbc="F F F"
Mn       0.00000000       0.00000000       0.00000000       0.00000000       0.00000000      -3.36548543
Mn       0.00000000       0.00000000       1.76727273       0.00000000       0.00000000       3.36548543
2
Properties=species:S:1:pos:R:3:forces:R:3 energy=-9.711250253885597 pbc="F F F"
Mn       0.00000000       0.00000000       0.00000000       0.00000000       0.00000000      -3.15576005
Mn       0.00000000       0.00000000       1.82606061       0.00000000       0.00000000       3.15576005
2
Properties=species:S:1:pos:R:3:forces:R:3 energy=-9.89155978222956 pbc="F F F"
Mn       0.00000000       0.00000000       0.00000000       0.00000000       0.00000000      -2.98192239
Mn       0.00000000       0.00000000       1.88484848       0.00000000       0.00000000       2.98192239
2
Properties=species:S:1:pos:R:3:forces:R:3 energy=-10.063007517768277 pbc="F F F"
Mn       0.00000000       0.00000000       0.00000000       0.00000000       0.00000000      -2.86678672
Mn       0.00000000       0.00000000       1.94363636       0.00000000       0.00000000       2.86678672
2
Properties=species:S:1:pos:R:3:forces:R:3 energy=-10.230829160050117 pbc="F F F"
Mn       0.00000000       0.00000000       0.00000000       0.00000000       0.00000000      -2.86127019
Mn       0.00000000       0.00000000       2.00242424       0.00000000       0.00000000       2.86127019
2
Properties=species:S:1:pos:R:3:forces:R:3 energy=-10.401060106584035 pbc="F F F"
Mn       0.00000000       0.00000000       0.00000000       0.00000000       0.00000000      -2.93638158
Mn       0.00000000       0.00000000       2.06121212       0.00000000       0.00000000       2.93638158
2
Properties=species:S:1:pos:R:3:forces:R:3 energy=-10.575620059709967 pbc="F F F"
Mn       0.00000000       0.00000000       0.00000000       0.00000000       0.00000000      -2.98841023
Mn       0.00000000       0.00000000       2.12000000       0.00000000       0.00000000       2.98841023
2
Properties=species:S:1:pos:R:3:forces:R:3 energy=-10.749952609006582 pbc="F F F"
Mn       0.00000000       0.00000000       0.00000000       0.00000000       0.00000000      -2.91716051
Mn       0.00000000       0.00000000       2.17878788       0.00000000       0.00000000       2.91716051
2
Properties=species:S:1:pos:R:3:forces:R:3 energy=-10.915591402711314 pbc="F F F"
Mn       0.00000000       0.00000000       0.00000000       0.00000000       0.00000000      -2.69371629
Mn       0.00000000       0.00000000       2.23757576       0.00000000       0.00000000       2.69371629
2
Properties=species:S:1:pos:R:3:forces:R:3 energy=-11.064132470963465 pbc="F F F"
Mn       0.00000000       0.00000000       0.00000000       0.00000000       0.00000000      -2.34127116
Mn       0.00000000       0.00000000       2.29636364       0.00000000       0.00000000       2.34127116
2
Properties=species:S:1:pos:R:3:forces:R:3 energy=-11.189106048313864 pbc="F F F"
Mn       0.00000000       0.00000000       0.00000000       0.00000000       0.00000000      -1.89930999
Mn       0.00000000       0.00000000       2.35515152       0.00000000       0.00000000       1.89930999
2
Properties=species:S:1:pos:R:3:forces:R:3 energy=-11.286662551185065 pbc="F F F"
Mn       0.00000000       0.00000000       0.00000000       0.00000000       0.00000000      -1.41774881
Mn       0.00000000       0.00000000       2.41393939       0.00000000       0.00000000       1.41774881
2
Properties=species:S:1:pos:R:3:forces:R:3 energy=-11.356185312201946 pbc="F F F"
Mn       0.00000000       0.00000000       0.00000000       0.00000000       0.00000000      -0.95578665
Mn       0.00000000       0.00000000       2.47272727       0.00000000       0.00000000       0.95578665
2
Properties=species:S:1:pos:R:3:forces:R:3 energy=-11.400547103163678 pbc="F F F"
Mn       0.00000000       0.00000000       0.00000000       0.00000000       0.00000000      -0.57002145
Mn       0.00000000       0.00000000       2.53151515       0.00000000       0.00000000       0.57002145
2
Properties=species:S:1:pos:R:3:forces:R:3 energy=-11.425326349402669 pbc="F F F"
Mn       0.00000000       0.00000000       0.00000000       0.00000000       0.00000000      -0.28981531
Mn       0.00000000       0.00000000       2.59030303       0.00000000       0.00000000       0.28981531
2
Properties=species:S:1:pos:R:3:forces:R:3 energy=-11.435848356107538 pbc="F F F"
Mn       0.00000000       0.00000000       0.00000000       0.00000000       0.00000000      -0.06938937
Mn       0.00000000       0.00000000       2.64909091       0.00000000       0.00000000       0.06938937
2
Properties=species:S:1:pos:R:3:forces:R:3 energy=-11.432823356472733 pbc="F F F"
Mn       0.00000000       0.00000000       0.00000000       0.00000000       0.00000000       0.17836404
Mn       0.00000000       0.00000000       2.70787879       0.00000000       0.00000000      -0.17836404
2
Properties=species:S:1:pos:R:3:forces:R:3 energy=-11.415130022233354 pbc="F F F"
Mn       0.00000000       0.00000000       0.00000000       0.00000000       0.00000000       0.41244760
Mn       0.00000000       0.00000000       2.76666667       0.00000000       0.00000000      -0.41244760
2
Properties=species:S:1:pos:R:3:forces:R:3 energy=-11.386123045371546 pbc="F F F"
Mn       0.00000000       0.00000000       0.00000000       0.00000000       0.00000000       0.55875963
Mn       0.00000000       0.00000000       2.82545455       0.00000000       0.00000000      -0.55875963
2
Properties=species:S:1:pos:R:3:forces:R:3 energy=-11.350967288993784 pbc="F F F"
Mn       0.00000000       0.00000000       0.00000000       0.00000000       0.00000000       0.62709087
Mn       0.00000000       0.00000000       2.88424242       0.00000000       0.00000000      -0.62709087
2
Properties=species:S:1:pos:R:3:forces:R:3 energy=-11.313301486175687 pbc="F F F"
Mn       0.00000000       0.00000000       0.00000000       0.00000000       0.00000000       0.64855838
Mn       0.00000000       0.00000000       2.94303030       0.00000000       0.00000000      -0.64855838
2
Properties=species:S:1:pos:R:3:forces:R:3 energy=-11.275231695547182 pbc="F F F"
Mn       0.00000000       0.00000000       0.00000000       0.00000000       0.00000000       0.64330399
Mn       0.00000000       0.00000000       3.00181818       0.00000000       0.00000000      -0.64330399
2
Properties=species:S:1:pos:R:3:forces:R:3 energy=-11.237953000586506 pbc="F F F"
Mn       0.00000000       0.00000000       0.00000000       0.00000000       0.00000000       0.62322330
Mn       0.00000000       0.00000000       3.06060606       0.00000000       0.00000000      -0.62322330
2
Properties=species:S:1:pos:R:3:forces:R:3 energy=-11.20209064597935 pbc="F F F"
Mn       0.00000000       0.00000000       0.00000000       0.00000000       0.00000000       0.59616172
Mn       0.00000000       0.00000000       3.11939394       0.00000000       0.00000000      -0.59616172
2
Properties=species:S:1:pos:R:3:forces:R:3 energy=-11.167894161746108 pbc="F F F"
Mn       0.00000000       0.00000000       0.00000000       0.00000000       0.00000000       0.56718576
Mn       0.00000000       0.00000000       3.17818182       0.00000000       0.00000000      -0.56718576
2
Properties=species:S:1:pos:R:3:forces:R:3 energy=-11.135388608876674 pbc="F F F"
Mn       0.00000000       0.00000000       0.00000000       0.00000000       0.00000000       0.53888351
Mn       0.00000000       0.00000000       3.23696970       0.00000000       0.00000000      -0.53888351
2
Properties=species:S:1:pos:R:3:forces:R:3 energy=-11.104508465939231 pbc="F F F"
Mn       0.00000000       0.00000000       0.00000000       0.00000000       0.00000000       0.51187468
Mn       0.00000000       0.00000000       3.29575758       0.00000000       0.00000000      -0.51187468
2
Properties=species:S:1:pos:R:3:forces:R:3 energy=-11.075188598295973 pbc="F F F"
Mn       0.00000000       0.00000000       0.00000000       0.00000000       0.00000000       0.48565632
Mn       0.00000000       0.00000000       3.35454545       0.00000000       0.00000000      -0.48565632
2
Properties=species:S:1:pos:R:3:forces:R:3 energy=-11.047407322175122 pbc="F F F"
Mn       0.00000000       0.00000000       0.00000000       0.00000000       0.00000000       0.45945933
Mn       0.00000000       0.00000000       3.41333333       0.00000000       0.00000000      -0.45945933
2
Properties=species:S:1:pos:R:3:forces:R:3 energy=-11.021177393786243 pbc="F F F"
Mn       0.00000000       0.00000000       0.00000000       0.00000000       0.00000000       0.43280831
Mn       0.00000000       0.00000000       3.47212121       0.00000000       0.00000000      -0.43280831
2
Properties=species:S:1:pos:R:3:forces:R:3 energy=-10.996528187283515 pbc="F F F"
Mn       0.00000000       0.00000000       0.00000000       0.00000000       0.00000000       0.40570459
Mn       0.00000000       0.00000000       3.53090909       0.00000000       0.00000000      -0.40570459
2
Properties=species:S:1:pos:R:3:forces:R:3 energy=-10.973477249262992 pbc="F F F"
Mn       0.00000000       0.00000000       0.00000000       0.00000000       0.00000000       0.37853602
Mn       0.00000000       0.00000000       3.58969697       0.00000000       0.00000000      -0.37853602
2
Properties=species:S:1:pos:R:3:forces:R:3 energy=-10.952011250618845 pbc="F F F"
Mn       0.00000000       0.00000000       0.00000000       0.00000000       0.00000000       0.35188705
Mn       0.00000000       0.00000000       3.64848485       0.00000000       0.00000000      -0.35188705
2
Properties=species:S:1:pos:R:3:forces:R:3 energy=-10.932082456950106 pbc="F F F"
Mn       0.00000000       0.00000000       0.00000000       0.00000000       0.00000000       0.32634887
Mn       0.00000000       0.00000000       3.70727273       0.00000000       0.00000000      -0.32634887
2
Properties=species:S:1:pos:R:3:forces:R:3 energy=-10.91360966322803 pbc="F F F"
Mn       0.00000000       0.00000000       0.00000000       0.00000000       0.00000000       0.30239856
Mn       0.00000000       0.00000000       3.76606061       0.00000000       0.00000000      -0.30239856
2
Properties=species:S:1:pos:R:3:forces:R:3 energy=-10.896490642247377 pbc="F F F"
Mn       0.00000000       0.00000000       0.00000000       0.00000000       0.00000000       0.28034276
Mn       0.00000000       0.00000000       3.82484848       0.00000000       0.00000000      -0.28034276
2
Properties=species:S:1:pos:R:3:forces:R:3 energy=-10.880608018727772 pbc="F F F"
Mn       0.00000000       0.00000000       0.00000000       0.00000000       0.00000000       0.26030165
Mn       0.00000000       0.00000000       3.88363636       0.00000000       0.00000000      -0.26030165
2
Properties=species:S:1:pos:R:3:forces:R:3 energy=-10.865846435451394 pbc="F F F"
Mn       0.00000000       0.00000000       0.00000000       0.00000000       0.00000000       0.24223775
Mn       0.00000000       0.00000000       3.94242424       0.00000000       0.00000000      -0.24223775
2
Properties=species:S:1:pos:R:3:forces:R:3 energy=-10.852091548903513 pbc="F F F"
Mn       0.00000000       0.00000000       0.00000000       0.00000000       0.00000000       0.22599187
Mn       0.00000000       0.00000000       4.00121212       0.00000000       0.00000000      -0.22599187
2
Properties=species:S:1:pos:R:3:forces:R:3 energy=-10.839244372401096 pbc="F F F"
Mn       0.00000000       0.00000000       0.00000000       0.00000000       0.00000000       0.21133363
Mn       0.00000000       0.00000000       4.06000000       0.00000000       0.00000000      -0.21133363
2
Properties=species:S:1:pos:R:3:forces:R:3 energy=-10.827217423381677 pbc="F F F"
Mn       0.00000000       0.00000000       0.00000000       0.00000000       0.00000000       0.19801655
Mn       0.00000000       0.00000000       4.11878788       0.00000000       0.00000000      -0.19801655
2
Properties=species:S:1:pos:R:3:forces:R:3 energy=-10.815940287058153 pbc="F F F"
Mn       0.00000000       0.00000000       0.00000000       0.00000000       0.00000000       0.18581426
Mn       0.00000000       0.00000000       4.17757576       0.00000000       0.00000000      -0.18581426
2
Properties=species:S:1:pos:R:3:forces:R:3 energy=-10.805351930003447 pbc="F F F"
Mn       0.00000000       0.00000000       0.00000000       0.00000000       0.00000000       0.17455144
Mn       0.00000000       0.00000000       4.23636364       0.00000000       0.00000000      -0.17455144
2
Properties=species:S:1:pos:R:3:forces:R:3 energy=-10.79540053542376 pbc="F F F"
Mn       0.00000000       0.00000000       0.00000000       0.00000000       0.00000000       0.16410804
Mn       0.00000000       0.00000000       4.29515152       0.00000000       0.00000000      -0.16410804
2
Properties=species:S:1:pos:R:3:forces:R:3 energy=-10.786042435442653 pbc="F F F"
Mn       0.00000000       0.00000000       0.00000000       0.00000000       0.00000000       0.15441416
Mn       0.00000000       0.00000000       4.35393939       0.00000000       0.00000000      -0.15441416
2
Properties=species:S:1:pos:R:3:forces:R:3 energy=-10.777232251240031 pbc="F F F"
Mn       0.00000000       0.00000000       0.00000000       0.00000000       0.00000000       0.14542648
Mn       0.00000000       0.00000000       4.41272727       0.00000000       0.00000000      -0.14542648
2
Properties=species:S:1:pos:R:3:forces:R:3 energy=-10.768930528782318 pbc="F F F"
Mn       0.00000000       0.00000000       0.00000000       0.00000000       0.00000000       0.13710696
Mn       0.00000000       0.00000000       4.47151515       0.00000000       0.00000000      -0.13710696
2
Properties=species:S:1:pos:R:3:forces:R:3 energy=-10.761099556657813 pbc="F F F"
Mn       0.00000000       0.00000000       0.00000000       0.00000000       0.00000000       0.12939508
Mn       0.00000000       0.00000000       4.53030303       0.00000000       0.00000000      -0.12939508
2
Properties=species:S:1:pos:R:3:forces:R:3 energy=-10.753707098410587 pbc="F F F"
Mn       0.00000000       0.00000000       0.00000000       0.00000000       0.00000000       0.12218799
Mn       0.00000000       0.00000000       4.58909091       0.00000000       0.00000000      -0.12218799
2
Properties=species:S:1:pos:R:3:forces:R:3 energy=-10.746726227813733 pbc="F F F"
Mn       0.00000000       0.00000000       0.00000000       0.00000000       0.00000000       0.11533819
Mn       0.00000000       0.00000000       4.64787879       0.00000000       0.00000000      -0.11533819
2
Properties=species:S:1:pos:R:3:forces:R:3 energy=-10.740141814520248 pbc="F F F"
Mn       0.00000000       0.00000000       0.00000000       0.00000000       0.00000000       0.10866377
Mn       0.00000000       0.00000000       4.70666667       0.00000000       0.00000000      -0.10866377
2
Properties=species:S:1:pos:R:3:forces:R:3 energy=-10.733950391014504 pbc="F F F"
Mn       0.00000000       0.00000000       0.00000000       0.00000000       0.00000000       0.10198494
Mn       0.00000000       0.00000000       4.76545455       0.00000000       0.00000000      -0.10198494
2
Properties=species:S:1:pos:R:3:forces:R:3 energy=-10.728153470556387 pbc="F F F"
Mn       0.00000000       0.00000000       0.00000000       0.00000000       0.00000000       0.09517696
Mn       0.00000000       0.00000000       4.82424242       0.00000000       0.00000000      -0.09517696
2
Properties=species:S:1:pos:R:3:forces:R:3 energy=-10.722762169833066 pbc="F F F"
Mn       0.00000000       0.00000000       0.00000000       0.00000000       0.00000000       0.08823451
Mn       0.00000000       0.00000000       4.88303030       0.00000000       0.00000000      -0.08823451
2
Properties=species:S:1:pos:R:3:forces:R:3 energy=-10.717779044797462 pbc="F F F"
Mn       0.00000000       0.00000000       0.00000000       0.00000000       0.00000000       0.08131212
Mn       0.00000000       0.00000000       4.94181818       0.00000000       0.00000000      -0.08131212
2
Properties=species:S:1:pos:R:3:forces:R:3 energy=-10.713195245484417 pbc="F F F"
Mn       0.00000000       0.00000000       0.00000000       0.00000000       0.00000000       0.07473559
Mn       0.00000000       0.00000000       5.00060606       0.00000000       0.00000000      -0.07473559
2
Properties=species:S:1:pos:R:3:forces:R:3 energy=-10.708977262772754 pbc="F F F"
Mn       0.00000000       0.00000000       0.00000000       0.00000000       0.00000000       0.06892878
Mn       0.00000000       0.00000000       5.05939394       0.00000000       0.00000000      -0.06892878
2
Properties=species:S:1:pos:R:3:forces:R:3 energy=-10.705067749011048 pbc="F F F"
Mn       0.00000000       0.00000000       0.00000000       0.00000000       0.00000000       0.06427392
Mn       0.00000000       0.00000000       5.11818182       0.00000000       0.00000000      -0.06427392
2
Properties=species:S:1:pos:R:3:forces:R:3 energy=-10.701395197312804 pbc="F F F"
Mn       0.00000000       0.00000000       0.00000000       0.00000000       0.00000000       0.06089974
Mn       0.00000000       0.00000000       5.17696970       0.00000000       0.00000000      -0.06089974
2
Properties=species:S:1:pos:R:3:forces:R:3 energy=-10.697889317554928 pbc="F F F"
Mn       0.00000000       0.00000000       0.00000000       0.00000000       0.00000000       0.05845813
Mn       0.00000000       0.00000000       5.23575758       0.00000000       0.00000000      -0.05845813
2
Properties=species:S:1:pos:R:3:forces:R:3 energy=-10.694521965177787 pbc="F F F"
Mn       0.00000000       0.00000000       0.00000000       0.00000000       0.00000000       0.05598826
Mn       0.00000000       0.00000000       5.29454545       0.00000000       0.00000000      -0.05598826
2
Properties=species:S:1:pos:R:3:forces:R:3 energy=-10.691330257451984 pbc="F F F"
Mn       0.00000000       0.00000000       0.00000000       0.00000000       0.00000000       0.05232907
Mn       0.00000000       0.00000000       5.35333333       0.00000000       0.00000000      -0.05232907
2
Properties=species:S:1:pos:R:3:forces:R:3 energy=-10.688386063819806 pbc="F F F"
Mn       0.00000000       0.00000000       0.00000000       0.00000000       0.00000000       0.04796980
Mn       0.00000000       0.00000000       5.41212121       0.00000000       0.00000000      -0.04796980
2
Properties=species:S:1:pos:R:3:forces:R:3 energy=-10.68563009982629 pbc="F F F"
Mn       0.00000000       0.00000000       0.00000000       0.00000000       0.00000000       0.04659544
Mn       0.00000000       0.00000000       5.47090909       0.00000000       0.00000000      -0.04659544
2
Properties=species:S:1:pos:R:3:forces:R:3 energy=-10.682833929034206 pbc="F F F"
Mn       0.00000000       0.00000000       0.00000000       0.00000000       0.00000000       0.04856824
Mn       0.00000000       0.00000000       5.52969697       0.00000000       0.00000000      -0.04856824
2
Properties=species:S:1:pos:R:3:forces:R:3 energy=-10.680001502676875 pbc="F F F"
Mn       0.00000000       0.00000000       0.00000000       0.00000000       0.00000000       0.04669961
Mn       0.00000000       0.00000000       5.58848485       0.00000000       0.00000000      -0.04669961
2
Properties=species:S:1:pos:R:3:forces:R:3 energy=-10.677434057029007 pbc="F F F"
Mn       0.00000000       0.00000000       0.00000000       0.00000000       0.00000000       0.04052718
Mn       0.00000000       0.00000000       5.64727273       0.00000000       0.00000000      -0.04052718
2
Properties=species:S:1:pos:R:3:forces:R:3 energy=-10.675163691051376 pbc="F F F"
Mn       0.00000000       0.00000000       0.00000000       0.00000000       0.00000000       0.03808684
Mn       0.00000000       0.00000000       5.70606061       0.00000000       0.00000000      -0.03808684
2
Properties=species:S:1:pos:R:3:forces:R:3 energy=-10.67276557491387 pbc="F F F"
Mn       0.00000000       0.00000000       0.00000000       0.00000000       0.00000000       0.04437840
Mn       0.00000000       0.00000000       5.76484848       0.00000000       0.00000000      -0.04437840
2
Properties=species:S:1:pos:R:3:forces:R:3 energy=-10.670017914797196 pbc="F F F"
Mn       0.00000000       0.00000000       0.00000000       0.00000000       0.00000000       0.04699264
Mn       0.00000000       0.00000000       5.82363636       0.00000000       0.00000000      -0.04699264
2
Properties=species:S:1:pos:R:3:forces:R:3 energy=-10.667541877862652 pbc="F F F"
Mn       0.00000000       0.00000000       0.00000000       0.00000000       0.00000000       0.03556929
Mn       0.00000000       0.00000000       5.88242424       0.00000000       0.00000000      -0.03556929
2
Properties=species:S:1:pos:R:3:forces:R:3 energy=-10.665908103955793 pbc="F F F"
Mn       0.00000000       0.00000000       0.00000000       0.00000000       0.00000000       0.02049430
Mn       0.00000000       0.00000000       5.94121212       0.00000000       0.00000000      -0.02049430
2
Properties=species:S:1:pos:R:3:forces:R:3 energy=-10.664961459840896 pbc="F F F"
Mn       0.00000000       0.00000000       0.00000000       0.00000000       0.00000000       0.01369574
Mn       0.00000000       0.00000000       6.00000000       0.00000000       0.00000000      -0.01369574
