2
Properties=species:S:1:pos:R:3:forces:R:3 energy=862.048200815414 pbc="F F F"
N        0.00000000       0.00000000       0.00000000       0.00000000       0.00000000   -6334.51708984
N        0.00000000       0.00000000       0.18000000       0.00000000       0.00000000    6334.51708984
2
Properties=species:S:1:pos:R:3:forces:R:3 energy=609.9810011099668 pbc="F F F"
N        0.00000000       0.00000000       0.00000000       0.00000000       0.00000000   -2917.85668945
N        0.00000000       0.00000000       0.23878788       0.00000000       0.00000000    2917.85668945
2
Properties=species:S:1:pos:R:3:forces:R:3 energy=473.20707533030065 pbc="F F F"
N        0.00000000       0.00000000       0.00000000       0.00000000       0.00000000   -1978.26867676
N        0.00000000       0.00000000       0.29757576       0.00000000       0.00000000    1978.26867676
2
Properties=species:S:1:pos:R:3:forces:R:3 energy=361.96632216439207 pbc="F F F"
N        0.00000000       0.00000000       0.00000000       0.00000000       0.00000000   -1869.39697266
N        0.00000000       0.00000000       0.35636364       0.00000000       0.00000000    1869.39697266
2
Properties=species:S:1:pos:R:3:forces:R:3 energy=253.156721350945 pbc="F F F"
N        0.00000000       0.00000000       0.00000000       0.00000000       0.00000000   -1715.85449219
N        0.00000000       0.00000000       0.41515152       0.00000000       0.00000000    1715.85449219
2
Properties=species:S:1:pos:R:3:forces:R:3 energy=171.1105940632873 pbc="F F F"
N        0.00000000       0.00000000       0.00000000       0.00000000       0.00000000   -1147.34777832
N        0.00000000       0.00000000       0.47393939       0.00000000       0.00000000    1147.34777832
2
Properties=species:S:1:pos:R:3:forces:R:3 energy=113.6139739460452 pbc="F F F"
N        0.00000000       0.00000000       0.00000000       0.00000000       0.00000000    -821.26910400
N        0.00000000       0.00000000       0.53272727       0.00000000       0.00000000     821.26910400
2
Properties=species:S:1:pos:R:3:forces:R:3 energy=72.1114334645803 pbc="F F F"
N        0.00000000       0.00000000       0.00000000       0.00000000       0.00000000    -601.11315918
N        0.00000000       0.00000000       0.59151515       0.00000000       0.00000000     601.11315918
2
Properties=species:S:1:pos:R:3:forces:R:3 energy=42.21686042793255 pbc="F F F"
N        0.00000000       0.00000000       0.00000000       0.00000000       0.00000000    -425.08853149
N        0.00000000       0.00000000       0.65030303       0.00000000       0.00000000     425.08853149
2
Properties=species:S:1:pos:R:3:forces:R:3 energy=21.057864122293783 pbc="F F F"
N        0.00000000       0.00000000       0.00000000       0.00000000       0.00000000    -300.70614624
N        0.00000000       0.00000000       0.70909091       0.00000000       0.00000000     300.70614624
2
Properties=species:S:1:pos:R:3:forces:R:3 energy=6.419614666331316 pbc="F F F"
N        0.00000000       0.00000000       0.00000000       0.00000000       0.00000000    -200.98660278
N        0.00000000       0.00000000       0.76787879       0.00000000       0.00000000     200.98660278
2
Properties=species:S:1:pos:R:3:forces:R:3 energy=-3.1566448081934997 pbc="F F F"
N        0.00000000       0.00000000       0.00000000       0.00000000       0.00000000    -130.01184082
N        0.00000000       0.00000000       0.82666667       0.00000000       0.00000000     130.01184082
2
Properties=species:S:1:pos:R:3:forces:R:3 energy=-9.34445863768749 pbc="F F F"
N        0.00000000       0.00000000       0.00000000       0.00000000       0.00000000     -83.32882690
N        0.00000000       0.00000000       0.88545455       0.00000000       0.00000000      83.32882690
2
Properties=species:S:1:pos:R:3:forces:R:3 energy=-13.202926412428223 pbc="F F F"
N        0.00000000       0.00000000       0.00000000       0.00000000       0.00000000     -49.71149445
N        0.00000000       0.00000000       0.94424242       0.00000000       0.00000000      49.71149445
2
Properties=species:S:1:pos:R:3:forces:R:3 energy=-15.38176154015314 pbc="F F F"
N        0.00000000       0.00000000       0.00000000       0.00000000       0.00000000     -25.86982918
N        0.00000000       0.00000000       1.00303030       0.00000000       0.00000000      25.86982918
2
Properties=species:S:1:pos:R:3:forces:R:3 energy=-16.391486737348536 pbc="F F F"
N        0.00000000       0.00000000       0.00000000       0.00000000       0.00000000      -9.55607128
N        0.00000000       0.00000000       1.06181818       0.00000000       0.00000000       9.55607128
2
Properties=species:S:1:pos:R:3:forces:R:3 energy=-16.61523097341591 pbc="F F F"
N        0.00000000       0.00000000       0.00000000       0.00000000       0.00000000       1.14276242
N        0.00000000       0.00000000       1.12060606       0.00000000       0.00000000      -1.14276242
2
Properties=species:S:1:pos:R:3:forces:R:3 energy=-16.33633261691819 pbc="F F F"
N        0.00000000       0.00000000       0.00000000       0.00000000       0.00000000       7.78927374
N        0.00000000       0.00000000       1.17939394       0.00000000       0.00000000      -7.78927374
2
Properties=species:S:1:pos:R:3:forces:R:3 energy=-15.753693610288874 pbc="F F F"
N        0.00000000       0.00000000       0.00000000       0.00000000       0.00000000      11.64993382
N        0.00000000       0.00000000       1.23818182       0.00000000       0.00000000     -11.64993382
2
Properties=species:S:1:pos:R:3:forces:R:3 energy=-15.00408211006677 pbc="F F F"
N        0.00000000       0.00000000       0.00000000       0.00000000       0.00000000      13.59089375
N        0.00000000       0.00000000       1.29696970       0.00000000       0.00000000     -13.59089375
2
Properties=species:S:1:pos:R:3:forces:R:3 energy=-14.180393493391716 pbc="F F F"
N        0.00000000       0.00000000       0.00000000       0.00000000       0.00000000      14.27068424
N        0.00000000       0.00000000       1.35575758       0.00000000       0.00000000     -14.27068424
2
Properties=species:S:1:pos:R:3:forces:R:3 energy=-13.340031334220303 pbc="F F F"
N        0.00000000       0.00000000       0.00000000       0.00000000       0.00000000      14.23934555
N        0.00000000       0.00000000       1.41454545       0.00000000       0.00000000     -14.23934555
2
Properties=species:S:1:pos:R:3:forces:R:3 energy=-12.51187699936608 pbc="F F F"
N        0.00000000       0.00000000       0.00000000       0.00000000       0.00000000      13.91153049
N        0.00000000       0.00000000       1.47333333       0.00000000       0.00000000     -13.91153049
2
Properties=species:S:1:pos:R:3:forces:R:3 energy=-11.705940114118073 pbc="F F F"
N        0.00000000       0.00000000       0.00000000       0.00000000       0.00000000      13.49680996
N        0.00000000       0.00000000       1.53212121       0.00000000       0.00000000     -13.49680996
2
Properties=species:S:1:pos:R:3:forces:R:3 energy=-10.926745736866994 pbc="F F F"
N        0.00000000       0.00000000       0.00000000       0.00000000       0.00000000      12.98873329
N        0.00000000       0.00000000       1.59090909       0.00000000       0.00000000     -12.98873329
2
Properties=species:S:1:pos:R:3:forces:R:3 energy=-10.182787411604556 pbc="F F F"
N        0.00000000       0.00000000       0.00000000       0.00000000       0.00000000      12.27761269
N        0.00000000       0.00000000       1.64969697       0.00000000       0.00000000     -12.27761269
2
Properties=species:S:1:pos:R:3:forces:R:3 energy=-9.48888614319026 pbc="F F F"
N        0.00000000       0.00000000       0.00000000       0.00000000       0.00000000      11.28046131
N        0.00000000       0.00000000       1.70848485       0.00000000       0.00000000     -11.28046131
2
Properties=species:S:1:pos:R:3:forces:R:3 energy=-8.861505003652265 pbc="F F F"
N        0.00000000       0.00000000       0.00000000       0.00000000       0.00000000      10.03007698
N        0.00000000       0.00000000       1.76727273       0.00000000       0.00000000     -10.03007698
2
Properties=species:S:1:pos:R:3:forces:R:3 energy=-8.311972689940488 pbc="F F F"
N        0.00000000       0.00000000       0.00000000       0.00000000       0.00000000       8.65858841
N        0.00000000       0.00000000       1.82606061       0.00000000       0.00000000      -8.65858841
2
Properties=species:S:1:pos:R:3:forces:R:3 energy=-7.842794254327678 pbc="F F F"
N        0.00000000       0.00000000       0.00000000       0.00000000       0.00000000       7.31999063
N        0.00000000       0.00000000       1.88484848       0.00000000       0.00000000      -7.31999063
2
Properties=species:S:1:pos:R:3:forces:R:3 energy=-7.448506768917217 pbc="F F F"
N        0.00000000       0.00000000       0.00000000       0.00000000       0.00000000       6.12215710
N        0.00000000       0.00000000       1.94363636       0.00000000       0.00000000      -6.12215710
2
Properties=species:S:1:pos:R:3:forces:R:3 energy=-7.11957127259091 pbc="F F F"
N        0.00000000       0.00000000       0.00000000       0.00000000       0.00000000       5.09603024
N        0.00000000       0.00000000       2.00242424       0.00000000       0.00000000      -5.09603024
2
Properties=species:S:1:pos:R:3:forces:R:3 energy=-6.8464763582882675 pbc="F F F"
N        0.00000000       0.00000000       0.00000000       0.00000000       0.00000000       4.21546364
N        0.00000000       0.00000000       2.06121212       0.00000000       0.00000000      -4.21546364
2
Properties=species:S:1:pos:R:3:forces:R:3 energy=-6.621953707833196 pbc="F F F"
N        0.00000000       0.00000000       0.00000000       0.00000000       0.00000000       3.43667912
N        0.00000000       0.00000000       2.12000000       0.00000000       0.00000000      -3.43667912
2
Properties=species:S:1:pos:R:3:forces:R:3 energy=-6.441022164514616 pbc="F F F"
N        0.00000000       0.00000000       0.00000000       0.00000000       0.00000000       2.72940111
N        0.00000000       0.00000000       2.17878788       0.00000000       0.00000000      -2.72940111
2
Properties=species:S:1:pos:R:3:forces:R:3 energy=-6.299766907121134 pbc="F F F"
N        0.00000000       0.00000000       0.00000000       0.00000000       0.00000000       2.08775306
N        0.00000000       0.00000000       2.23757576       0.00000000       0.00000000      -2.08775306
2
Properties=species:S:1:pos:R:3:forces:R:3 energy=-6.194061235455005 pbc="F F F"
N        0.00000000       0.00000000       0.00000000       0.00000000       0.00000000       1.52227724
N        0.00000000       0.00000000       2.29636364       0.00000000       0.00000000      -1.52227724
2
Properties=species:S:1:pos:R:3:forces:R:3 energy=-6.119036705167721 pbc="F F F"
N        0.00000000       0.00000000       0.00000000       0.00000000       0.00000000       1.04564178
N        0.00000000       0.00000000       2.35515152       0.00000000       0.00000000      -1.04564178
2
Properties=species:S:1:pos:R:3:forces:R:3 energy=-6.069274560096336 pbc="F F F"
N        0.00000000       0.00000000       0.00000000       0.00000000       0.00000000       0.66274744
N        0.00000000       0.00000000       2.41393939       0.00000000       0.00000000      -0.66274744
2
Properties=species:S:1:pos:R:3:forces:R:3 energy=-6.039364027636409 pbc="F F F"
N        0.00000000       0.00000000       0.00000000       0.00000000       0.00000000       0.36887708
N        0.00000000       0.00000000       2.47272727       0.00000000       0.00000000      -0.36887708
2
Properties=species:S:1:pos:R:3:forces:R:3 energy=-6.0243786203784175 pbc="F F F"
N        0.00000000       0.00000000       0.00000000       0.00000000       0.00000000       0.15278065
N        0.00000000       0.00000000       2.53151515       0.00000000       0.00000000      -0.15278065
2
Properties=species:S:1:pos:R:3:forces:R:3 energy=-6.020147674238546 pbc="F F F"
N        0.00000000       0.00000000       0.00000000       0.00000000       0.00000000       0.00065561
N        0.00000000       0.00000000       2.59030303       0.00000000       0.00000000      -0.00065561
2
Properties=species:S:1:pos:R:3:forces:R:3 energy=-6.023318433907825 pbc="F F F"
N        0.00000000       0.00000000       0.00000000       0.00000000       0.00000000      -0.10126269
N        0.00000000       0.00000000       2.64909091       0.00000000       0.00000000       0.10126269
2
Properties=species:S:1:pos:R:3:forces:R:3 energy=-6.031314682852925 pbc="F F F"
N        0.00000000       0.00000000       0.00000000       0.00000000       0.00000000      -0.16539989
N        0.00000000       0.00000000       2.70787879       0.00000000       0.00000000       0.16539989
2
Properties=species:S:1:pos:R:3:forces:R:3 energy=-6.042231885866727 pbc="F F F"
N        0.00000000       0.00000000       0.00000000       0.00000000       0.00000000      -0.20221756
N        0.00000000       0.00000000       2.76666667       0.00000000       0.00000000       0.20221756
2
Properties=species:S:1:pos:R:3:forces:R:3 energy=-6.0547189682991265 pbc="F F F"
N        0.00000000       0.00000000       0.00000000       0.00000000       0.00000000      -0.22001286
N        0.00000000       0.00000000       2.82545455       0.00000000       0.00000000       0.22001286
2
Properties=species:S:1:pos:R:3:forces:R:3 energy=-6.067851032214024 pbc="F F F"
N        0.00000000       0.00000000       0.00000000       0.00000000       0.00000000      -0.22503643
N        0.00000000       0.00000000       2.88424242       0.00000000       0.00000000       0.22503643
2
Properties=species:S:1:pos:R:3:forces:R:3 energy=-6.081017310744519 pbc="F F F"
N        0.00000000       0.00000000       0.00000000       0.00000000       0.00000000      -0.22182485
N        0.00000000       0.00000000       2.94303030       0.00000000       0.00000000       0.22182485
2
Properties=species:S:1:pos:R:3:forces:R:3 energy=-6.09383436709905 pbc="F F F"
N        0.00000000       0.00000000       0.00000000       0.00000000       0.00000000      -0.21359774
N        0.00000000       0.00000000       3.00181818       0.00000000       0.00000000       0.21359774
2
Properties=species:S:1:pos:R:3:forces:R:3 energy=-6.1060769199113265 pbc="F F F"
N        0.00000000       0.00000000       0.00000000       0.00000000       0.00000000      -0.20259601
N        0.00000000       0.00000000       3.06060606       0.00000000       0.00000000       0.20259601
2
Properties=species:S:1:pos:R:3:forces:R:3 energy=-6.117630591220197 pbc="F F F"
N        0.00000000       0.00000000       0.00000000       0.00000000       0.00000000      -0.19033173
N        0.00000000       0.00000000       3.11939394       0.00000000       0.00000000       0.19033173
2
Properties=species:S:1:pos:R:3:forces:R:3 energy=-6.128449879859377 pbc="F F F"
N        0.00000000       0.00000000       0.00000000       0.00000000       0.00000000      -0.17775787
N        0.00000000       0.00000000       3.17818182       0.00000000       0.00000000       0.17775787
2
Properties=species:S:1:pos:R:3:forces:R:3 energy=-6.138534725160696 pbc="F F F"
N        0.00000000       0.00000000       0.00000000       0.00000000       0.00000000      -0.16539843
N        0.00000000       0.00000000       3.23696970       0.00000000       0.00000000       0.16539843
2
Properties=species:S:1:pos:R:3:forces:R:3 energy=-6.147905131630493 pbc="F F F"
N        0.00000000       0.00000000       0.00000000       0.00000000       0.00000000      -0.15345356
N        0.00000000       0.00000000       3.29575758       0.00000000       0.00000000       0.15345356
2
Properties=species:S:1:pos:R:3:forces:R:3 energy=-6.15658488917002 pbc="F F F"
N        0.00000000       0.00000000       0.00000000       0.00000000       0.00000000      -0.14190614
N        0.00000000       0.00000000       3.35454545       0.00000000       0.00000000       0.14190614
2
Properties=species:S:1:pos:R:3:forces:R:3 energy=-6.1645948031125135 pbc="F F F"
N        0.00000000       0.00000000       0.00000000       0.00000000       0.00000000      -0.13062011
N        0.00000000       0.00000000       3.41333333       0.00000000       0.00000000       0.13062011
2
Properties=species:S:1:pos:R:3:forces:R:3 energy=-6.1719449963245125 pbc="F F F"
N        0.00000000       0.00000000       0.00000000       0.00000000       0.00000000      -0.11943687
N        0.00000000       0.00000000       3.47212121       0.00000000       0.00000000       0.11943687
2
Properties=species:S:1:pos:R:3:forces:R:3 energy=-6.178638189253213 pbc="F F F"
N        0.00000000       0.00000000       0.00000000       0.00000000       0.00000000      -0.10825953
N        0.00000000       0.00000000       3.53090909       0.00000000       0.00000000       0.10825953
2
Properties=species:S:1:pos:R:3:forces:R:3 energy=-6.184673947903334 pbc="F F F"
N        0.00000000       0.00000000       0.00000000       0.00000000       0.00000000      -0.09710679
N        0.00000000       0.00000000       3.58969697       0.00000000       0.00000000       0.09710679
2
Properties=species:S:1:pos:R:3:forces:R:3 energy=-6.190059141388443 pbc="F F F"
N        0.00000000       0.00000000       0.00000000       0.00000000       0.00000000      -0.08613551
N        0.00000000       0.00000000       3.64848485       0.00000000       0.00000000       0.08613551
2
Properties=species:S:1:pos:R:3:forces:R:3 energy=-6.194809858783058 pbc="F F F"
N        0.00000000       0.00000000       0.00000000       0.00000000       0.00000000      -0.07561537
N        0.00000000       0.00000000       3.70727273       0.00000000       0.00000000       0.07561537
2
Properties=species:S:1:pos:R:3:forces:R:3 energy=-6.198964265510942 pbc="F F F"
N        0.00000000       0.00000000       0.00000000       0.00000000       0.00000000      -0.06587200
N        0.00000000       0.00000000       3.76606061       0.00000000       0.00000000       0.06587200
2
Properties=species:S:1:pos:R:3:forces:R:3 energy=-6.202576445247752 pbc="F F F"
N        0.00000000       0.00000000       0.00000000       0.00000000       0.00000000      -0.05720135
N        0.00000000       0.00000000       3.82484848       0.00000000       0.00000000       0.05720135
2
Properties=species:S:1:pos:R:3:forces:R:3 energy=-6.205714501283921 pbc="F F F"
N        0.00000000       0.00000000       0.00000000       0.00000000       0.00000000      -0.04978487
N        0.00000000       0.00000000       3.88363636       0.00000000       0.00000000       0.04978487
2
Properties=species:S:1:pos:R:3:forces:R:3 energy=-6.208454396843402 pbc="F F F"
N        0.00000000       0.00000000       0.00000000       0.00000000       0.00000000      -0.04363320
N        0.00000000       0.00000000       3.94242424       0.00000000       0.00000000       0.04363320
2
Properties=species:S:1:pos:R:3:forces:R:3 energy=-6.210866638093298 pbc="F F F"
N        0.00000000       0.00000000       0.00000000       0.00000000       0.00000000      -0.03858246
N        0.00000000       0.00000000       4.00121212       0.00000000       0.00000000       0.03858246
2
Properties=species:S:1:pos:R:3:forces:R:3 energy=-6.21300677363267 pbc="F F F"
N        0.00000000       0.00000000       0.00000000       0.00000000       0.00000000      -0.03434740
N        0.00000000       0.00000000       4.06000000       0.00000000       0.00000000       0.03434740
2
Properties=species:S:1:pos:R:3:forces:R:3 energy=-6.214914945373817 pbc="F F F"
N        0.00000000       0.00000000       0.00000000       0.00000000       0.00000000      -0.03061884
N        0.00000000       0.00000000       4.11878788       0.00000000       0.00000000       0.03061884
2
Properties=species:S:1:pos:R:3:forces:R:3 energy=-6.216612115620671 pbc="F F F"
N        0.00000000       0.00000000       0.00000000       0.00000000       0.00000000      -0.02716749
N        0.00000000       0.00000000       4.17757576       0.00000000       0.00000000       0.02716749
2
Properties=species:S:1:pos:R:3:forces:R:3 energy=-6.218112958897097 pbc="F F F"
N        0.00000000       0.00000000       0.00000000       0.00000000       0.00000000      -0.02391417
N        0.00000000       0.00000000       4.23636364       0.00000000       0.00000000       0.02391417
2
Properties=species:S:1:pos:R:3:forces:R:3 energy=-6.219429235049023 pbc="F F F"
N        0.00000000       0.00000000       0.00000000       0.00000000       0.00000000      -0.02092776
N        0.00000000       0.00000000       4.29515152       0.00000000       0.00000000       0.02092776
2
Properties=species:S:1:pos:R:3:forces:R:3 energy=-6.220581725616528 pbc="F F F"
N        0.00000000       0.00000000       0.00000000       0.00000000       0.00000000      -0.01835969
N        0.00000000       0.00000000       4.35393939       0.00000000       0.00000000       0.01835969
2
Properties=species:S:1:pos:R:3:forces:R:3 energy=-6.221598818765502 pbc="F F F"
N        0.00000000       0.00000000       0.00000000       0.00000000       0.00000000      -0.01634254
N        0.00000000       0.00000000       4.41272727       0.00000000       0.00000000       0.01634254
2
Properties=species:S:1:pos:R:3:forces:R:3 energy=-6.222514624509743 pbc="F F F"
N        0.00000000       0.00000000       0.00000000       0.00000000       0.00000000      -0.01490799
N        0.00000000       0.00000000       4.47151515       0.00000000       0.00000000       0.01490799
2
Properties=species:S:1:pos:R:3:forces:R:3 energy=-6.223361347692294 pbc="F F F"
N        0.00000000       0.00000000       0.00000000       0.00000000       0.00000000      -0.01397042
N        0.00000000       0.00000000       4.53030303       0.00000000       0.00000000       0.01397042
2
Properties=species:S:1:pos:R:3:forces:R:3 energy=-6.224163579006813 pbc="F F F"
N        0.00000000       0.00000000       0.00000000       0.00000000       0.00000000      -0.01337073
N        0.00000000       0.00000000       4.58909091       0.00000000       0.00000000       0.01337073
2
Properties=species:S:1:pos:R:3:forces:R:3 energy=-6.224937351618673 pbc="F F F"
N        0.00000000       0.00000000       0.00000000       0.00000000       0.00000000      -0.01296404
N        0.00000000       0.00000000       4.64787879       0.00000000       0.00000000       0.01296404
2
Properties=species:S:1:pos:R:3:forces:R:3 energy=-6.225690614438325 pbc="F F F"
N        0.00000000       0.00000000       0.00000000       0.00000000       0.00000000      -0.01269864
N        0.00000000       0.00000000       4.70666667       0.00000000       0.00000000       0.01269864
2
Properties=species:S:1:pos:R:3:forces:R:3 energy=-6.226434684924607 pbc="F F F"
N        0.00000000       0.00000000       0.00000000       0.00000000       0.00000000      -0.01265913
N        0.00000000       0.00000000       4.76545455       0.00000000       0.00000000       0.01265913
2
Properties=species:S:1:pos:R:3:forces:R:3 energy=-6.227187589320712 pbc="F F F"
N        0.00000000       0.00000000       0.00000000       0.00000000       0.00000000      -0.01305194
N        0.00000000       0.00000000       4.82424242       0.00000000       0.00000000       0.01305194
2
Properties=species:S:1:pos:R:3:forces:R:3 energy=-6.22798264592103 pbc="F F F"
N        0.00000000       0.00000000       0.00000000       0.00000000       0.00000000      -0.01413178
N        0.00000000       0.00000000       4.88303030       0.00000000       0.00000000       0.01413178
2
Properties=species:S:1:pos:R:3:forces:R:3 energy=-6.228867030896876 pbc="F F F"
N        0.00000000       0.00000000       0.00000000       0.00000000       0.00000000      -0.01609476
N        0.00000000       0.00000000       4.94181818       0.00000000       0.00000000       0.01609476
2
Properties=species:S:1:pos:R:3:forces:R:3 energy=-6.229892246305061 pbc="F F F"
N        0.00000000       0.00000000       0.00000000       0.00000000       0.00000000      -0.01891945
N        0.00000000       0.00000000       5.00060606       0.00000000       0.00000000       0.01891945
2
Properties=species:S:1:pos:R:3:forces:R:3 energy=-6.2311017207378665 pbc="F F F"
N        0.00000000       0.00000000       0.00000000       0.00000000       0.00000000      -0.02225580
N        0.00000000       0.00000000       5.05939394       0.00000000       0.00000000       0.02225580
2
Properties=species:S:1:pos:R:3:forces:R:3 energy=-6.232505532993883 pbc="F F F"
N        0.00000000       0.00000000       0.00000000       0.00000000       0.00000000      -0.02542430
N        0.00000000       0.00000000       5.11818182       0.00000000       0.00000000       0.02542430
2
Properties=species:S:1:pos:R:3:forces:R:3 energy=-6.234072307034253 pbc="F F F"
N        0.00000000       0.00000000       0.00000000       0.00000000       0.00000000      -0.02766745
N        0.00000000       0.00000000       5.17696970       0.00000000       0.00000000       0.02766745
2
Properties=species:S:1:pos:R:3:forces:R:3 energy=-6.2357320718176865 pbc="F F F"
N        0.00000000       0.00000000       0.00000000       0.00000000       0.00000000      -0.02857665
N        0.00000000       0.00000000       5.23575758       0.00000000       0.00000000       0.02857665
2
Properties=species:S:1:pos:R:3:forces:R:3 energy=-6.237411542597432 pbc="F F F"
N        0.00000000       0.00000000       0.00000000       0.00000000       0.00000000      -0.02843565
N        0.00000000       0.00000000       5.29454545       0.00000000       0.00000000       0.02843565
2
Properties=species:S:1:pos:R:3:forces:R:3 energy=-6.239069409345839 pbc="F F F"
N        0.00000000       0.00000000       0.00000000       0.00000000       0.00000000      -0.02798072
N        0.00000000       0.00000000       5.35333333       0.00000000       0.00000000       0.02798072
2
Properties=species:S:1:pos:R:3:forces:R:3 energy=-6.24070300871279 pbc="F F F"
N        0.00000000       0.00000000       0.00000000       0.00000000       0.00000000      -0.02759053
N        0.00000000       0.00000000       5.41212121       0.00000000       0.00000000       0.02759053
2
Properties=species:S:1:pos:R:3:forces:R:3 energy=-6.242305883093256 pbc="F F F"
N        0.00000000       0.00000000       0.00000000       0.00000000       0.00000000      -0.02679388
N        0.00000000       0.00000000       5.47090909       0.00000000       0.00000000       0.02679388
2
Properties=species:S:1:pos:R:3:forces:R:3 energy=-6.243831064463093 pbc="F F F"
N        0.00000000       0.00000000       0.00000000       0.00000000       0.00000000      -0.02484009
N        0.00000000       0.00000000       5.52969697       0.00000000       0.00000000       0.02484009
2
Properties=species:S:1:pos:R:3:forces:R:3 energy=-6.245181058967326 pbc="F F F"
N        0.00000000       0.00000000       0.00000000       0.00000000       0.00000000      -0.02060637
N        0.00000000       0.00000000       5.58848485       0.00000000       0.00000000       0.02060637
2
Properties=species:S:1:pos:R:3:forces:R:3 energy=-6.24621499759663 pbc="F F F"
N        0.00000000       0.00000000       0.00000000       0.00000000       0.00000000      -0.01468278
N        0.00000000       0.00000000       5.64727273       0.00000000       0.00000000       0.01468278
2
Properties=species:S:1:pos:R:3:forces:R:3 energy=-6.246979423540499 pbc="F F F"
N        0.00000000       0.00000000       0.00000000       0.00000000       0.00000000      -0.01216229
N        0.00000000       0.00000000       5.70606061       0.00000000       0.00000000       0.01216229
2
Properties=species:S:1:pos:R:3:forces:R:3 energy=-6.247709246356537 pbc="F F F"
N        0.00000000       0.00000000       0.00000000       0.00000000       0.00000000      -0.01261397
N        0.00000000       0.00000000       5.76484848       0.00000000       0.00000000       0.01261397
2
Properties=species:S:1:pos:R:3:forces:R:3 energy=-6.248412414479294 pbc="F F F"
N        0.00000000       0.00000000       0.00000000       0.00000000       0.00000000      -0.01071953
N        0.00000000       0.00000000       5.82363636       0.00000000       0.00000000       0.01071953
2
Properties=species:S:1:pos:R:3:forces:R:3 energy=-6.24890853752041 pbc="F F F"
N        0.00000000       0.00000000       0.00000000       0.00000000       0.00000000      -0.00597523
N        0.00000000       0.00000000       5.88242424       0.00000000       0.00000000       0.00597523
2
Properties=species:S:1:pos:R:3:forces:R:3 energy=-6.2491178500567175 pbc="F F F"
N        0.00000000       0.00000000       0.00000000       0.00000000       0.00000000      -0.00140727
N        0.00000000       0.00000000       5.94121212       0.00000000       0.00000000       0.00140727
2
Properties=species:S:1:pos:R:3:forces:R:3 energy=-6.249131304390874 pbc="F F F"
N        0.00000000       0.00000000       0.00000000       0.00000000       0.00000000       0.00035882
N        0.00000000       0.00000000       6.00000000       0.00000000       0.00000000      -0.00035882
