2
Properties=species:S:1:pos:R:3:forces:R:3 energy=37339.723750000536 pbc="F F F"
Pd       0.00000000       0.00000000       0.00000000       0.00000000       0.00000000 -884740.75000000
Pd       0.00000000       0.00000000       0.10000000       0.00000000       0.00000000  884740.75000000
2
Properties=species:S:1:pos:R:3:forces:R:3 energy=11237.473750000534 pbc="F F F"
Pd       0.00000000       0.00000000       0.00000000       0.00000000       0.00000000 -194682.50000000
Pd       0.00000000       0.00000000       0.15959596       0.00000000       0.00000000  194682.50000000
2
Properties=species:S:1:pos:R:3:forces:R:3 energy=4498.933710938033 pbc="F F F"
Pd       0.00000000       0.00000000       0.00000000       0.00000000       0.00000000  -61411.65234375
Pd       0.00000000       0.00000000       0.21919192       0.00000000       0.00000000   61411.65234375
2
Properties=species:S:1:pos:R:3:forces:R:3 energy=2168.074335938033 pbc="F F F"
Pd       0.00000000       0.00000000       0.00000000       0.00000000       0.00000000  -23702.02734375
Pd       0.00000000       0.00000000       0.27878788       0.00000000       0.00000000   23702.02734375
2
Properties=species:S:1:pos:R:3:forces:R:3 energy=1215.4289502021813 pbc="F F F"
Pd       0.00000000       0.00000000       0.00000000       0.00000000       0.00000000  -10355.26757812
Pd       0.00000000       0.00000000       0.33838384       0.00000000       0.00000000   10355.26757812
2
Properties=species:S:1:pos:R:3:forces:R:3 energy=782.1911572397669 pbc="F F F"
Pd       0.00000000       0.00000000       0.00000000       0.00000000       0.00000000   -4941.53613281
Pd       0.00000000       0.00000000       0.39797980       0.00000000       0.00000000    4941.53613281
2
Properties=species:S:1:pos:R:3:forces:R:3 energy=568.2249707290007 pbc="F F F"
Pd       0.00000000       0.00000000       0.00000000       0.00000000       0.00000000   -2546.93872070
Pd       0.00000000       0.00000000       0.45757576       0.00000000       0.00000000    2546.93872070
2
Properties=species:S:1:pos:R:3:forces:R:3 energy=453.39727300677265 pbc="F F F"
Pd       0.00000000       0.00000000       0.00000000       0.00000000       0.00000000   -1455.07543945
Pd       0.00000000       0.00000000       0.51717172       0.00000000       0.00000000    1455.07543945
2
Properties=species:S:1:pos:R:3:forces:R:3 energy=381.56374645246535 pbc="F F F"
Pd       0.00000000       0.00000000       0.00000000       0.00000000       0.00000000   -1031.20458984
Pd       0.00000000       0.00000000       0.57676768       0.00000000       0.00000000    1031.20458984
2
Properties=species:S:1:pos:R:3:forces:R:3 energy=323.35116108560993 pbc="F F F"
Pd       0.00000000       0.00000000       0.00000000       0.00000000       0.00000000    -973.07061768
Pd       0.00000000       0.00000000       0.63636364       0.00000000       0.00000000     973.07061768
2
Properties=species:S:1:pos:R:3:forces:R:3 energy=263.7399551766423 pbc="F F F"
Pd       0.00000000       0.00000000       0.00000000       0.00000000       0.00000000   -1030.37854004
Pd       0.00000000       0.00000000       0.69595960       0.00000000       0.00000000    1030.37854004
2
Properties=species:S:1:pos:R:3:forces:R:3 energy=201.32773920553075 pbc="F F F"
Pd       0.00000000       0.00000000       0.00000000       0.00000000       0.00000000   -1050.38330078
Pd       0.00000000       0.00000000       0.75555556       0.00000000       0.00000000    1050.38330078
2
Properties=species:S:1:pos:R:3:forces:R:3 energy=142.55115872443736 pbc="F F F"
Pd       0.00000000       0.00000000       0.00000000       0.00000000       0.00000000    -873.57183838
Pd       0.00000000       0.00000000       0.81515152       0.00000000       0.00000000     873.57183838
2
Properties=species:S:1:pos:R:3:forces:R:3 energy=99.21373396450927 pbc="F F F"
Pd       0.00000000       0.00000000       0.00000000       0.00000000       0.00000000    -586.33789062
Pd       0.00000000       0.00000000       0.87474747       0.00000000       0.00000000     586.33789062
2
Properties=species:S:1:pos:R:3:forces:R:3 energy=70.48459339756819 pbc="F F F"
Pd       0.00000000       0.00000000       0.00000000       0.00000000       0.00000000    -395.05267334
Pd       0.00000000       0.00000000       0.93434343       0.00000000       0.00000000     395.05267334
2
Properties=species:S:1:pos:R:3:forces:R:3 energy=50.840143181214835 pbc="F F F"
Pd       0.00000000       0.00000000       0.00000000       0.00000000       0.00000000    -271.42709351
Pd       0.00000000       0.00000000       0.99393939       0.00000000       0.00000000     271.42709351
2
Properties=species:S:1:pos:R:3:forces:R:3 energy=37.41820840051615 pbc="F F F"
Pd       0.00000000       0.00000000       0.00000000       0.00000000       0.00000000    -184.13497925
Pd       0.00000000       0.00000000       1.05353535       0.00000000       0.00000000     184.13497925
2
Properties=species:S:1:pos:R:3:forces:R:3 energy=28.396725710797533 pbc="F F F"
Pd       0.00000000       0.00000000       0.00000000       0.00000000       0.00000000    -121.91894531
Pd       0.00000000       0.00000000       1.11313131       0.00000000       0.00000000     121.91894531
2
Properties=species:S:1:pos:R:3:forces:R:3 energy=22.53540361163466 pbc="F F F"
Pd       0.00000000       0.00000000       0.00000000       0.00000000       0.00000000     -77.63315582
Pd       0.00000000       0.00000000       1.17272727       0.00000000       0.00000000      77.63315582
2
Properties=species:S:1:pos:R:3:forces:R:3 energy=18.79660262449178 pbc="F F F"
Pd       0.00000000       0.00000000       0.00000000       0.00000000       0.00000000     -50.80120468
Pd       0.00000000       0.00000000       1.23232323       0.00000000       0.00000000      50.80120468
2
Properties=species:S:1:pos:R:3:forces:R:3 energy=16.15201021831889 pbc="F F F"
Pd       0.00000000       0.00000000       0.00000000       0.00000000       0.00000000     -40.20559692
Pd       0.00000000       0.00000000       1.29191919       0.00000000       0.00000000      40.20559692
2
Properties=species:S:1:pos:R:3:forces:R:3 energy=13.824094946673695 pbc="F F F"
Pd       0.00000000       0.00000000       0.00000000       0.00000000       0.00000000     -38.70310593
Pd       0.00000000       0.00000000       1.35151515       0.00000000       0.00000000      38.70310593
2
Properties=species:S:1:pos:R:3:forces:R:3 energy=11.512709971556337 pbc="F F F"
Pd       0.00000000       0.00000000       0.00000000       0.00000000       0.00000000     -38.67737198
Pd       0.00000000       0.00000000       1.41111111       0.00000000       0.00000000      38.67737198
2
Properties=species:S:1:pos:R:3:forces:R:3 energy=9.255161343455722 pbc="F F F"
Pd       0.00000000       0.00000000       0.00000000       0.00000000       0.00000000     -36.72778702
Pd       0.00000000       0.00000000       1.47070707       0.00000000       0.00000000      36.72778702
2
Properties=species:S:1:pos:R:3:forces:R:3 energy=7.162404576314664 pbc="F F F"
Pd       0.00000000       0.00000000       0.00000000       0.00000000       0.00000000     -33.43251801
Pd       0.00000000       0.00000000       1.53030303       0.00000000       0.00000000      33.43251801
2
Properties=species:S:1:pos:R:3:forces:R:3 energy=5.264582669663719 pbc="F F F"
Pd       0.00000000       0.00000000       0.00000000       0.00000000       0.00000000     -30.36230469
Pd       0.00000000       0.00000000       1.58989899       0.00000000       0.00000000      30.36230469
2
Properties=species:S:1:pos:R:3:forces:R:3 energy=3.5340502351545418 pbc="F F F"
Pd       0.00000000       0.00000000       0.00000000       0.00000000       0.00000000     -27.73699379
Pd       0.00000000       0.00000000       1.64949495       0.00000000       0.00000000      27.73699379
2
Properties=species:S:1:pos:R:3:forces:R:3 energy=1.962319066023558 pbc="F F F"
Pd       0.00000000       0.00000000       0.00000000       0.00000000       0.00000000     -24.93881226
Pd       0.00000000       0.00000000       1.70909091       0.00000000       0.00000000      24.93881226
2
Properties=species:S:1:pos:R:3:forces:R:3 energy=0.571068800583066 pbc="F F F"
Pd       0.00000000       0.00000000       0.00000000       0.00000000       0.00000000     -21.67849159
Pd       0.00000000       0.00000000       1.76868687       0.00000000       0.00000000      21.67849159
2
Properties=species:S:1:pos:R:3:forces:R:3 energy=-0.6159912780021835 pbc="F F F"
Pd       0.00000000       0.00000000       0.00000000       0.00000000       0.00000000     -18.14238358
Pd       0.00000000       0.00000000       1.82828283       0.00000000       0.00000000      18.14238358
2
Properties=species:S:1:pos:R:3:forces:R:3 energy=-1.5931539805019208 pbc="F F F"
Pd       0.00000000       0.00000000       0.00000000       0.00000000       0.00000000     -14.69372749
Pd       0.00000000       0.00000000       1.88787879       0.00000000       0.00000000      14.69372749
2
Properties=species:S:1:pos:R:3:forces:R:3 energy=-2.3748895377445733 pbc="F F F"
Pd       0.00000000       0.00000000       0.00000000       0.00000000       0.00000000     -11.61734676
Pd       0.00000000       0.00000000       1.94747475       0.00000000       0.00000000      11.61734676
2
Properties=species:S:1:pos:R:3:forces:R:3 energy=-2.987563901205441 pbc="F F F"
Pd       0.00000000       0.00000000       0.00000000       0.00000000       0.00000000      -9.02533340
Pd       0.00000000       0.00000000       2.00707071       0.00000000       0.00000000       9.02533340
2
Properties=species:S:1:pos:R:3:forces:R:3 energy=-3.459912052461259 pbc="F F F"
Pd       0.00000000       0.00000000       0.00000000       0.00000000       0.00000000      -6.89884472
Pd       0.00000000       0.00000000       2.06666667       0.00000000       0.00000000       6.89884472
2
Properties=species:S:1:pos:R:3:forces:R:3 energy=-3.817715836638805 pbc="F F F"
Pd       0.00000000       0.00000000       0.00000000       0.00000000       0.00000000      -5.16860104
Pd       0.00000000       0.00000000       2.12626263       0.00000000       0.00000000       5.16860104
2
Properties=species:S:1:pos:R:3:forces:R:3 energy=-4.082426535313322 pbc="F F F"
Pd       0.00000000       0.00000000       0.00000000       0.00000000       0.00000000      -3.76397371
Pd       0.00000000       0.00000000       2.18585859       0.00000000       0.00000000       3.76397371
2
Properties=species:S:1:pos:R:3:forces:R:3 energy=-4.271662606236052 pbc="F F F"
Pd       0.00000000       0.00000000       0.00000000       0.00000000       0.00000000      -2.62717175
Pd       0.00000000       0.00000000       2.24545455       0.00000000       0.00000000       2.62717175
2
Properties=species:S:1:pos:R:3:forces:R:3 energy=-4.399973224324698 pbc="F F F"
Pd       0.00000000       0.00000000       0.00000000       0.00000000       0.00000000      -1.71254849
Pd       0.00000000       0.00000000       2.30505051       0.00000000       0.00000000       1.71254849
2
Properties=species:S:1:pos:R:3:forces:R:3 energy=-4.479463792217487 pbc="F F F"
Pd       0.00000000       0.00000000       0.00000000       0.00000000       0.00000000      -0.98330706
Pd       0.00000000       0.00000000       2.36464646       0.00000000       0.00000000       0.98330706
2
Properties=species:S:1:pos:R:3:forces:R:3 energy=-4.520260194688949 pbc="F F F"
Pd       0.00000000       0.00000000       0.00000000       0.00000000       0.00000000      -0.40951207
Pd       0.00000000       0.00000000       2.42424242       0.00000000       0.00000000       0.40951207
2
Properties=species:S:1:pos:R:3:forces:R:3 energy=-4.530849646978852 pbc="F F F"
Pd       0.00000000       0.00000000       0.00000000       0.00000000       0.00000000       0.03472991
Pd       0.00000000       0.00000000       2.48383838       0.00000000       0.00000000      -0.03472991
2
Properties=species:S:1:pos:R:3:forces:R:3 energy=-4.51811076578918 pbc="F F F"
Pd       0.00000000       0.00000000       0.00000000       0.00000000       0.00000000       0.37926272
Pd       0.00000000       0.00000000       2.54343434       0.00000000       0.00000000      -0.37926272
2
Properties=species:S:1:pos:R:3:forces:R:3 energy=-4.4868318574044315 pbc="F F F"
Pd       0.00000000       0.00000000       0.00000000       0.00000000       0.00000000       0.66357797
Pd       0.00000000       0.00000000       2.60303030       0.00000000       0.00000000      -0.66357797
2
Properties=species:S:1:pos:R:3:forces:R:3 energy=-4.439720015801741 pbc="F F F"
Pd       0.00000000       0.00000000       0.00000000       0.00000000       0.00000000       0.91065174
Pd       0.00000000       0.00000000       2.66262626       0.00000000       0.00000000      -0.91065174
2
Properties=species:S:1:pos:R:3:forces:R:3 energy=-4.379388813077443 pbc="F F F"
Pd       0.00000000       0.00000000       0.00000000       0.00000000       0.00000000       1.10270476
Pd       0.00000000       0.00000000       2.72222222       0.00000000       0.00000000      -1.10270476
2
Properties=species:S:1:pos:R:3:forces:R:3 energy=-4.309696706913547 pbc="F F F"
Pd       0.00000000       0.00000000       0.00000000       0.00000000       0.00000000       1.22483850
Pd       0.00000000       0.00000000       2.78181818       0.00000000       0.00000000      -1.22483850
2
Properties=species:S:1:pos:R:3:forces:R:3 energy=-4.234573375710279 pbc="F F F"
Pd       0.00000000       0.00000000       0.00000000       0.00000000       0.00000000       1.28788280
Pd       0.00000000       0.00000000       2.84141414       0.00000000       0.00000000      -1.28788280
2
Properties=species:S:1:pos:R:3:forces:R:3 energy=-4.157032237640709 pbc="F F F"
Pd       0.00000000       0.00000000       0.00000000       0.00000000       0.00000000       1.30846202
Pd       0.00000000       0.00000000       2.90101010       0.00000000       0.00000000      -1.30846202
2
Properties=species:S:1:pos:R:3:forces:R:3 energy=-4.079207802536206 pbc="F F F"
Pd       0.00000000       0.00000000       0.00000000       0.00000000       0.00000000       1.29912245
Pd       0.00000000       0.00000000       2.96060606       0.00000000       0.00000000      -1.29912245
2
Properties=species:S:1:pos:R:3:forces:R:3 energy=-4.00259915853287 pbc="F F F"
Pd       0.00000000       0.00000000       0.00000000       0.00000000       0.00000000       1.26897371
Pd       0.00000000       0.00000000       3.02020202       0.00000000       0.00000000      -1.26897371
2
Properties=species:S:1:pos:R:3:forces:R:3 energy=-3.9282294458950497 pbc="F F F"
Pd       0.00000000       0.00000000       0.00000000       0.00000000       0.00000000       1.22501445
Pd       0.00000000       0.00000000       3.07979798       0.00000000       0.00000000      -1.22501445
2
Properties=species:S:1:pos:R:3:forces:R:3 energy=-3.8567560936954157 pbc="F F F"
Pd       0.00000000       0.00000000       0.00000000       0.00000000       0.00000000       1.17252231
Pd       0.00000000       0.00000000       3.13939394       0.00000000       0.00000000      -1.17252231
2
Properties=species:S:1:pos:R:3:forces:R:3 energy=-3.7885686632047273 pbc="F F F"
Pd       0.00000000       0.00000000       0.00000000       0.00000000       0.00000000       1.11521983
Pd       0.00000000       0.00000000       3.19898990       0.00000000       0.00000000      -1.11521983
2
Properties=species:S:1:pos:R:3:forces:R:3 energy=-3.723877888416061 pbc="F F F"
Pd       0.00000000       0.00000000       0.00000000       0.00000000       0.00000000       1.05551112
Pd       0.00000000       0.00000000       3.25858586       0.00000000       0.00000000      -1.05551112
2
Properties=species:S:1:pos:R:3:forces:R:3 energy=-3.6627790643806972 pbc="F F F"
Pd       0.00000000       0.00000000       0.00000000       0.00000000       0.00000000       0.99484789
Pd       0.00000000       0.00000000       3.31818182       0.00000000       0.00000000      -0.99484789
2
Properties=species:S:1:pos:R:3:forces:R:3 energy=-3.6053014972245645 pbc="F F F"
Pd       0.00000000       0.00000000       0.00000000       0.00000000       0.00000000       0.93410391
Pd       0.00000000       0.00000000       3.37777778       0.00000000       0.00000000      -0.93410391
2
Properties=species:S:1:pos:R:3:forces:R:3 energy=-3.551431118235291 pbc="F F F"
Pd       0.00000000       0.00000000       0.00000000       0.00000000       0.00000000       0.87387031
Pd       0.00000000       0.00000000       3.43737374       0.00000000       0.00000000      -0.87387031
2
Properties=species:S:1:pos:R:3:forces:R:3 energy=-3.501122856285742 pbc="F F F"
Pd       0.00000000       0.00000000       0.00000000       0.00000000       0.00000000       0.81464702
Pd       0.00000000       0.00000000       3.49696970       0.00000000       0.00000000      -0.81464702
2
Properties=species:S:1:pos:R:3:forces:R:3 energy=-3.454301186699169 pbc="F F F"
Pd       0.00000000       0.00000000       0.00000000       0.00000000       0.00000000       0.75694531
Pd       0.00000000       0.00000000       3.55656566       0.00000000       0.00000000      -0.75694531
2
Properties=species:S:1:pos:R:3:forces:R:3 energy=-3.41086016292743 pbc="F F F"
Pd       0.00000000       0.00000000       0.00000000       0.00000000       0.00000000       0.70131314
Pd       0.00000000       0.00000000       3.61616162       0.00000000       0.00000000      -0.70131314
2
Properties=species:S:1:pos:R:3:forces:R:3 energy=-3.370658810570258 pbc="F F F"
Pd       0.00000000       0.00000000       0.00000000       0.00000000       0.00000000       0.64829659
Pd       0.00000000       0.00000000       3.67575758       0.00000000       0.00000000      -0.64829659
2
Properties=species:S:1:pos:R:3:forces:R:3 energy=-3.333526708373145 pbc="F F F"
Pd       0.00000000       0.00000000       0.00000000       0.00000000       0.00000000       0.59838969
Pd       0.00000000       0.00000000       3.73535354       0.00000000       0.00000000      -0.59838969
2
Properties=species:S:1:pos:R:3:forces:R:3 energy=-3.2992662457002506 pbc="F F F"
Pd       0.00000000       0.00000000       0.00000000       0.00000000       0.00000000       0.55196035
Pd       0.00000000       0.00000000       3.79494949       0.00000000       0.00000000      -0.55196035
2
Properties=species:S:1:pos:R:3:forces:R:3 energy=-3.2676643747368623 pbc="F F F"
Pd       0.00000000       0.00000000       0.00000000       0.00000000       0.00000000       0.50919545
Pd       0.00000000       0.00000000       3.85454545       0.00000000       0.00000000      -0.50919545
2
Properties=species:S:1:pos:R:3:forces:R:3 energy=-3.238502010184292 pbc="F F F"
Pd       0.00000000       0.00000000       0.00000000       0.00000000       0.00000000       0.47007281
Pd       0.00000000       0.00000000       3.91414141       0.00000000       0.00000000      -0.47007281
2
Properties=species:S:1:pos:R:3:forces:R:3 energy=-3.211567410042621 pbc="F F F"
Pd       0.00000000       0.00000000       0.00000000       0.00000000       0.00000000       0.43436626
Pd       0.00000000       0.00000000       3.97373737       0.00000000       0.00000000      -0.43436626
2
Properties=species:S:1:pos:R:3:forces:R:3 energy=-3.186668687418411 pbc="F F F"
Pd       0.00000000       0.00000000       0.00000000       0.00000000       0.00000000       0.40169576
Pd       0.00000000       0.00000000       4.03333333       0.00000000       0.00000000      -0.40169576
2
Properties=species:S:1:pos:R:3:forces:R:3 energy=-3.1636379309967335 pbc="F F F"
Pd       0.00000000       0.00000000       0.00000000       0.00000000       0.00000000       0.37157658
Pd       0.00000000       0.00000000       4.09292929       0.00000000       0.00000000      -0.37157658
2
Properties=species:S:1:pos:R:3:forces:R:3 energy=-3.1423389461413906 pbc="F F F"
Pd       0.00000000       0.00000000       0.00000000       0.00000000       0.00000000       0.34350193
Pd       0.00000000       0.00000000       4.15252525       0.00000000       0.00000000      -0.34350193
2
Properties=species:S:1:pos:R:3:forces:R:3 energy=-3.122664009733573 pbc="F F F"
Pd       0.00000000       0.00000000       0.00000000       0.00000000       0.00000000       0.31700644
Pd       0.00000000       0.00000000       4.21212121       0.00000000       0.00000000      -0.31700644
2
Properties=species:S:1:pos:R:3:forces:R:3 energy=-3.1045303549137073 pbc="F F F"
Pd       0.00000000       0.00000000       0.00000000       0.00000000       0.00000000       0.29171789
Pd       0.00000000       0.00000000       4.27171717       0.00000000       0.00000000      -0.29171789
2
Properties=species:S:1:pos:R:3:forces:R:3 energy=-3.087874761145967 pbc="F F F"
Pd       0.00000000       0.00000000       0.00000000       0.00000000       0.00000000       0.26739070
Pd       0.00000000       0.00000000       4.33131313       0.00000000       0.00000000      -0.26739070
2
Properties=species:S:1:pos:R:3:forces:R:3 energy=-3.072643344232977 pbc="F F F"
Pd       0.00000000       0.00000000       0.00000000       0.00000000       0.00000000       0.24390064
Pd       0.00000000       0.00000000       4.39090909       0.00000000       0.00000000      -0.24390064
2
Properties=species:S:1:pos:R:3:forces:R:3 energy=-3.058787049369482 pbc="F F F"
Pd       0.00000000       0.00000000       0.00000000       0.00000000       0.00000000       0.22123621
Pd       0.00000000       0.00000000       4.45050505       0.00000000       0.00000000      -0.22123621
2
Properties=species:S:1:pos:R:3:forces:R:3 energy=-3.0462560471377875 pbc="F F F"
Pd       0.00000000       0.00000000       0.00000000       0.00000000       0.00000000       0.19946080
Pd       0.00000000       0.00000000       4.51010101       0.00000000       0.00000000      -0.19946080
2
Properties=species:S:1:pos:R:3:forces:R:3 energy=-3.034993230513775 pbc="F F F"
Pd       0.00000000       0.00000000       0.00000000       0.00000000       0.00000000       0.17866939
Pd       0.00000000       0.00000000       4.56969697       0.00000000       0.00000000      -0.17866939
2
Properties=species:S:1:pos:R:3:forces:R:3 energy=-3.024938337674836 pbc="F F F"
Pd       0.00000000       0.00000000       0.00000000       0.00000000       0.00000000       0.15896164
Pd       0.00000000       0.00000000       4.62929293       0.00000000       0.00000000      -0.15896164
2
Properties=species:S:1:pos:R:3:forces:R:3 energy=-3.016023626451321 pbc="F F F"
Pd       0.00000000       0.00000000       0.00000000       0.00000000       0.00000000       0.14041185
Pd       0.00000000       0.00000000       4.68888889       0.00000000       0.00000000      -0.14041185
2
Properties=species:S:1:pos:R:3:forces:R:3 energy=-3.0081786807119886 pbc="F F F"
Pd       0.00000000       0.00000000       0.00000000       0.00000000       0.00000000       0.12305461
Pd       0.00000000       0.00000000       4.74848485       0.00000000       0.00000000      -0.12305461
2
Properties=species:S:1:pos:R:3:forces:R:3 energy=-3.0013325918091773 pbc="F F F"
Pd       0.00000000       0.00000000       0.00000000       0.00000000       0.00000000       0.10689383
Pd       0.00000000       0.00000000       4.80808081       0.00000000       0.00000000      -0.10689383
2
Properties=species:S:1:pos:R:3:forces:R:3 energy=-2.995414355388494 pbc="F F F"
Pd       0.00000000       0.00000000       0.00000000       0.00000000       0.00000000       0.09191374
Pd       0.00000000       0.00000000       4.86767677       0.00000000       0.00000000      -0.09191374
2
Properties=species:S:1:pos:R:3:forces:R:3 energy=-2.990353497945529 pbc="F F F"
Pd       0.00000000       0.00000000       0.00000000       0.00000000       0.00000000       0.07811699
Pd       0.00000000       0.00000000       4.92727273       0.00000000       0.00000000      -0.07811699
2
Properties=species:S:1:pos:R:3:forces:R:3 energy=-2.986078414231449 pbc="F F F"
Pd       0.00000000       0.00000000       0.00000000       0.00000000       0.00000000       0.06557040
Pd       0.00000000       0.00000000       4.98686869       0.00000000       0.00000000      -0.06557040
2
Properties=species:S:1:pos:R:3:forces:R:3 energy=-2.9825100788390007 pbc="F F F"
Pd       0.00000000       0.00000000       0.00000000       0.00000000       0.00000000       0.05445078
Pd       0.00000000       0.00000000       5.04646465       0.00000000       0.00000000      -0.05445078
2
Properties=species:S:1:pos:R:3:forces:R:3 energy=-2.979555044948608 pbc="F F F"
Pd       0.00000000       0.00000000       0.00000000       0.00000000       0.00000000       0.04503095
Pd       0.00000000       0.00000000       5.10606061       0.00000000       0.00000000      -0.04503095
2
Properties=species:S:1:pos:R:3:forces:R:3 energy=-2.977103035551997 pbc="F F F"
Pd       0.00000000       0.00000000       0.00000000       0.00000000       0.00000000       0.03758680
Pd       0.00000000       0.00000000       5.16565657       0.00000000       0.00000000      -0.03758680
2
Properties=species:S:1:pos:R:3:forces:R:3 energy=-2.9750338639266345 pbc="F F F"
Pd       0.00000000       0.00000000       0.00000000       0.00000000       0.00000000       0.03219067
Pd       0.00000000       0.00000000       5.22525253       0.00000000       0.00000000      -0.03219067
2
Properties=species:S:1:pos:R:3:forces:R:3 energy=-2.9732313110145587 pbc="F F F"
Pd       0.00000000       0.00000000       0.00000000       0.00000000       0.00000000       0.02854367
Pd       0.00000000       0.00000000       5.28484848       0.00000000       0.00000000      -0.02854367
2
Properties=species:S:1:pos:R:3:forces:R:3 energy=-2.9716092698546985 pbc="F F F"
Pd       0.00000000       0.00000000       0.00000000       0.00000000       0.00000000       0.02601955
Pd       0.00000000       0.00000000       5.34444444       0.00000000       0.00000000      -0.02601955
2
Properties=species:S:1:pos:R:3:forces:R:3 energy=-2.9701246201861435 pbc="F F F"
Pd       0.00000000       0.00000000       0.00000000       0.00000000       0.00000000       0.02374528
Pd       0.00000000       0.00000000       5.40404040       0.00000000       0.00000000      -0.02374528
2
Properties=species:S:1:pos:R:3:forces:R:3 energy=-2.9687985649111046 pbc="F F F"
Pd       0.00000000       0.00000000       0.00000000       0.00000000       0.00000000       0.02050306
Pd       0.00000000       0.00000000       5.46363636       0.00000000       0.00000000      -0.02050306
2
Properties=species:S:1:pos:R:3:forces:R:3 energy=-2.967708323458511 pbc="F F F"
Pd       0.00000000       0.00000000       0.00000000       0.00000000       0.00000000       0.01600024
Pd       0.00000000       0.00000000       5.52323232       0.00000000       0.00000000      -0.01600024
2
Properties=species:S:1:pos:R:3:forces:R:3 energy=-2.9668749237483634 pbc="F F F"
Pd       0.00000000       0.00000000       0.00000000       0.00000000       0.00000000       0.01226095
Pd       0.00000000       0.00000000       5.58282828       0.00000000       0.00000000      -0.01226095
2
Properties=species:S:1:pos:R:3:forces:R:3 energy=-2.9662212389378984 pbc="F F F"
Pd       0.00000000       0.00000000       0.00000000       0.00000000       0.00000000       0.00969123
Pd       0.00000000       0.00000000       5.64242424       0.00000000       0.00000000      -0.00969123
2
Properties=species:S:1:pos:R:3:forces:R:3 energy=-2.965748753791192 pbc="F F F"
Pd       0.00000000       0.00000000       0.00000000       0.00000000       0.00000000       0.00571236
Pd       0.00000000       0.00000000       5.70202020       0.00000000       0.00000000      -0.00571236
2
Properties=species:S:1:pos:R:3:forces:R:3 energy=-2.9655931431345777 pbc="F F F"
Pd       0.00000000       0.00000000       0.00000000       0.00000000       0.00000000      -0.00071518
Pd       0.00000000       0.00000000       5.76161616       0.00000000       0.00000000       0.00071518
2
Properties=species:S:1:pos:R:3:forces:R:3 energy=-2.96578274591646 pbc="F F F"
Pd       0.00000000       0.00000000       0.00000000       0.00000000       0.00000000      -0.00447607
Pd       0.00000000       0.00000000       5.82121212       0.00000000       0.00000000       0.00447607
2
Properties=species:S:1:pos:R:3:forces:R:3 energy=-2.9659537468721324 pbc="F F F"
Pd       0.00000000       0.00000000       0.00000000       0.00000000       0.00000000      -0.00013285
Pd       0.00000000       0.00000000       5.88080808       0.00000000       0.00000000       0.00013285
2
Properties=species:S:1:pos:R:3:forces:R:3 energy=-2.9657366181944567 pbc="F F F"
Pd       0.00000000       0.00000000       0.00000000       0.00000000       0.00000000       0.00738329
Pd       0.00000000       0.00000000       5.94040404       0.00000000       0.00000000      -0.00738329
2
Properties=species:S:1:pos:R:3:forces:R:3 energy=-2.965171969053147 pbc="F F F"
Pd       0.00000000       0.00000000       0.00000000       0.00000000       0.00000000       0.01034850
Pd       0.00000000       0.00000000       6.00000000       0.00000000       0.00000000      -0.01034850
