2
Properties=species:S:1:pos:R:3:forces:R:3 energy=22936.304819972764 pbc="F F F"
Rb       0.00000000       0.00000000       0.00000000       0.00000000       0.00000000 -610234.18750000
Rb       0.00000000       0.00000000       0.10000000       0.00000000       0.00000000  610234.18750000
2
Properties=species:S:1:pos:R:3:forces:R:3 energy=4714.464487941512 pbc="F F F"
Rb       0.00000000       0.00000000       0.00000000       0.00000000       0.00000000 -138231.48437500
Rb       0.00000000       0.00000000       0.15959596       0.00000000       0.00000000  138231.48437500
2
Properties=species:S:1:pos:R:3:forces:R:3 energy=-103.55113705848811 pbc="F F F"
Rb       0.00000000       0.00000000       0.00000000       0.00000000       0.00000000  -44183.44140625
Rb       0.00000000       0.00000000       0.21919192       0.00000000       0.00000000   44183.44140625
2
Properties=species:S:1:pos:R:3:forces:R:3 energy=-1770.6075335428632 pbc="F F F"
Rb       0.00000000       0.00000000       0.00000000       0.00000000       0.00000000  -16578.32226562
Rb       0.00000000       0.00000000       0.27878788       0.00000000       0.00000000   16578.32226562
2
Properties=species:S:1:pos:R:3:forces:R:3 energy=-2398.053578464738 pbc="F F F"
Rb       0.00000000       0.00000000       0.00000000       0.00000000       0.00000000   -5904.40283203
Rb       0.00000000       0.00000000       0.33838384       0.00000000       0.00000000    5904.40283203
2
Properties=species:S:1:pos:R:3:forces:R:3 energy=-2574.832875339738 pbc="F F F"
Rb       0.00000000       0.00000000       0.00000000       0.00000000       0.00000000    -504.38186646
Rb       0.00000000       0.00000000       0.39797980       0.00000000       0.00000000     504.38186646
2
Properties=species:S:1:pos:R:3:forces:R:3 energy=-2493.0289202600293 pbc="F F F"
Rb       0.00000000       0.00000000       0.00000000       0.00000000       0.00000000    3075.37500000
Rb       0.00000000       0.00000000       0.45757576       0.00000000       0.00000000   -3075.37500000
2
Properties=species:S:1:pos:R:3:forces:R:3 energy=-2223.1336565881543 pbc="F F F"
Rb       0.00000000       0.00000000       0.00000000       0.00000000       0.00000000    5878.39550781
Rb       0.00000000       0.00000000       0.51717172       0.00000000       0.00000000   -5878.39550781
2
Properties=species:S:1:pos:R:3:forces:R:3 energy=-1805.7287493584238 pbc="F F F"
Rb       0.00000000       0.00000000       0.00000000       0.00000000       0.00000000    7992.47802734
Rb       0.00000000       0.00000000       0.57676768       0.00000000       0.00000000   -7992.47802734
2
Properties=species:S:1:pos:R:3:forces:R:3 energy=-1291.150380214631 pbc="F F F"
Rb       0.00000000       0.00000000       0.00000000       0.00000000       0.00000000    9065.22460938
Rb       0.00000000       0.00000000       0.63636364       0.00000000       0.00000000   -9065.22460938
2
Properties=species:S:1:pos:R:3:forces:R:3 energy=-754.4437151708169 pbc="F F F"
Rb       0.00000000       0.00000000       0.00000000       0.00000000       0.00000000    8679.19433594
Rb       0.00000000       0.00000000       0.69595960       0.00000000       0.00000000   -8679.19433594
2
Properties=species:S:1:pos:R:3:forces:R:3 energy=-287.5240374269384 pbc="F F F"
Rb       0.00000000       0.00000000       0.00000000       0.00000000       0.00000000    6761.36425781
Rb       0.00000000       0.00000000       0.75555556       0.00000000       0.00000000   -6761.36425781
2
Properties=species:S:1:pos:R:3:forces:R:3 energy=35.89561361722708 pbc="F F F"
Rb       0.00000000       0.00000000       0.00000000       0.00000000       0.00000000    3933.73510742
Rb       0.00000000       0.00000000       0.81515152       0.00000000       0.00000000   -3933.73510742
2
Properties=species:S:1:pos:R:3:forces:R:3 energy=184.13350960181018 pbc="F F F"
Rb       0.00000000       0.00000000       0.00000000       0.00000000       0.00000000    1118.96801758
Rb       0.00000000       0.00000000       0.87474747       0.00000000       0.00000000   -1118.96801758
2
Properties=species:S:1:pos:R:3:forces:R:3 energy=218.98560618476995 pbc="F F F"
Rb       0.00000000       0.00000000       0.00000000       0.00000000       0.00000000     649.51239014
Rb       0.00000000       0.00000000       0.93434343       0.00000000       0.00000000    -649.51239014
2
Properties=species:S:1:pos:R:3:forces:R:3 energy=151.9058180131921 pbc="F F F"
Rb       0.00000000       0.00000000       0.00000000       0.00000000       0.00000000   -2059.50634766
Rb       0.00000000       0.00000000       0.99393939       0.00000000       0.00000000    2059.50634766
2
Properties=species:S:1:pos:R:3:forces:R:3 energy=95.51035602457661 pbc="F F F"
Rb       0.00000000       0.00000000       0.00000000       0.00000000       0.00000000    -540.89392090
Rb       0.00000000       0.00000000       1.05353535       0.00000000       0.00000000     540.89392090
2
Properties=species:S:1:pos:R:3:forces:R:3 energy=73.47611536844462 pbc="F F F"
Rb       0.00000000       0.00000000       0.00000000       0.00000000       0.00000000    -199.72332764
Rb       0.00000000       0.00000000       1.11313131       0.00000000       0.00000000     199.72332764
2
Properties=species:S:1:pos:R:3:forces:R:3 energy=70.26194309069457 pbc="F F F"
Rb       0.00000000       0.00000000       0.00000000       0.00000000       0.00000000      67.74606323
Rb       0.00000000       0.00000000       1.17272727       0.00000000       0.00000000     -67.74606323
2
Properties=species:S:1:pos:R:3:forces:R:3 energy=76.77969680264256 pbc="F F F"
Rb       0.00000000       0.00000000       0.00000000       0.00000000       0.00000000     104.82243347
Rb       0.00000000       0.00000000       1.23232323       0.00000000       0.00000000    -104.82243347
2
Properties=species:S:1:pos:R:3:forces:R:3 energy=74.07098722839768 pbc="F F F"
Rb       0.00000000       0.00000000       0.00000000       0.00000000       0.00000000    -187.31425476
Rb       0.00000000       0.00000000       1.29191919       0.00000000       0.00000000     187.31425476
2
Properties=species:S:1:pos:R:3:forces:R:3 energy=62.50156373501035 pbc="F F F"
Rb       0.00000000       0.00000000       0.00000000       0.00000000       0.00000000    -188.67201233
Rb       0.00000000       0.00000000       1.35151515       0.00000000       0.00000000     188.67201233
2
Properties=species:S:1:pos:R:3:forces:R:3 energy=52.067211088337686 pbc="F F F"
Rb       0.00000000       0.00000000       0.00000000       0.00000000       0.00000000    -160.56881714
Rb       0.00000000       0.00000000       1.41111111       0.00000000       0.00000000     160.56881714
2
Properties=species:S:1:pos:R:3:forces:R:3 energy=43.249019843537454 pbc="F F F"
Rb       0.00000000       0.00000000       0.00000000       0.00000000       0.00000000    -136.57794189
Rb       0.00000000       0.00000000       1.47070707       0.00000000       0.00000000     136.57794189
2
Properties=species:S:1:pos:R:3:forces:R:3 energy=35.707340812841494 pbc="F F F"
Rb       0.00000000       0.00000000       0.00000000       0.00000000       0.00000000    -116.79474640
Rb       0.00000000       0.00000000       1.53030303       0.00000000       0.00000000     116.79474640
2
Properties=species:S:1:pos:R:3:forces:R:3 energy=29.307520915906515 pbc="F F F"
Rb       0.00000000       0.00000000       0.00000000       0.00000000       0.00000000     -98.17266083
Rb       0.00000000       0.00000000       1.58989899       0.00000000       0.00000000      98.17266083
2
Properties=species:S:1:pos:R:3:forces:R:3 energy=23.970975497551127 pbc="F F F"
Rb       0.00000000       0.00000000       0.00000000       0.00000000       0.00000000     -81.30289459
Rb       0.00000000       0.00000000       1.64949495       0.00000000       0.00000000      81.30289459
2
Properties=species:S:1:pos:R:3:forces:R:3 energy=19.567083614025712 pbc="F F F"
Rb       0.00000000       0.00000000       0.00000000       0.00000000       0.00000000     -66.90273285
Rb       0.00000000       0.00000000       1.70909091       0.00000000       0.00000000      66.90273285
2
Properties=species:S:1:pos:R:3:forces:R:3 energy=15.950259272127173 pbc="F F F"
Rb       0.00000000       0.00000000       0.00000000       0.00000000       0.00000000     -54.84522247
Rb       0.00000000       0.00000000       1.76868687       0.00000000       0.00000000      54.84522247
2
Properties=species:S:1:pos:R:3:forces:R:3 energy=12.986749669570376 pbc="F F F"
Rb       0.00000000       0.00000000       0.00000000       0.00000000       0.00000000     -44.96872711
Rb       0.00000000       0.00000000       1.82828283       0.00000000       0.00000000      44.96872711
2
Properties=species:S:1:pos:R:3:forces:R:3 energy=10.548290402928929 pbc="F F F"
Rb       0.00000000       0.00000000       0.00000000       0.00000000       0.00000000     -37.19822693
Rb       0.00000000       0.00000000       1.88787879       0.00000000       0.00000000      37.19822693
2
Properties=species:S:1:pos:R:3:forces:R:3 energy=8.518269066326026 pbc="F F F"
Rb       0.00000000       0.00000000       0.00000000       0.00000000       0.00000000     -31.16413498
Rb       0.00000000       0.00000000       1.94747475       0.00000000       0.00000000      31.16413498
2
Properties=species:S:1:pos:R:3:forces:R:3 energy=6.812856757433904 pbc="F F F"
Rb       0.00000000       0.00000000       0.00000000       0.00000000       0.00000000     -26.19214630
Rb       0.00000000       0.00000000       2.00707071       0.00000000       0.00000000      26.19214630
2
Properties=species:S:1:pos:R:3:forces:R:3 energy=5.384840436721265 pbc="F F F"
Rb       0.00000000       0.00000000       0.00000000       0.00000000       0.00000000     -21.81764412
Rb       0.00000000       0.00000000       2.06666667       0.00000000       0.00000000      21.81764412
2
Properties=species:S:1:pos:R:3:forces:R:3 energy=4.2014785924032925 pbc="F F F"
Rb       0.00000000       0.00000000       0.00000000       0.00000000       0.00000000     -17.99327850
Rb       0.00000000       0.00000000       2.12626263       0.00000000       0.00000000      17.99327850
2
Properties=species:S:1:pos:R:3:forces:R:3 energy=3.2281452569976854 pbc="F F F"
Rb       0.00000000       0.00000000       0.00000000       0.00000000       0.00000000     -14.77055740
Rb       0.00000000       0.00000000       2.18585859       0.00000000       0.00000000      14.77055740
2
Properties=species:S:1:pos:R:3:forces:R:3 energy=2.429925982877074 pbc="F F F"
Rb       0.00000000       0.00000000       0.00000000       0.00000000       0.00000000     -12.10126495
Rb       0.00000000       0.00000000       2.24545455       0.00000000       0.00000000      12.10126495
2
Properties=species:S:1:pos:R:3:forces:R:3 energy=1.7767227369237193 pbc="F F F"
Rb       0.00000000       0.00000000       0.00000000       0.00000000       0.00000000      -9.88870716
Rb       0.00000000       0.00000000       2.30505051       0.00000000       0.00000000       9.88870716
2
Properties=species:S:1:pos:R:3:forces:R:3 energy=1.2435954430636327 pbc="F F F"
Rb       0.00000000       0.00000000       0.00000000       0.00000000       0.00000000      -8.06387615
Rb       0.00000000       0.00000000       2.36464646       0.00000000       0.00000000       8.06387615
2
Properties=species:S:1:pos:R:3:forces:R:3 energy=0.8085546951416973 pbc="F F F"
Rb       0.00000000       0.00000000       0.00000000       0.00000000       0.00000000      -6.59248877
Rb       0.00000000       0.00000000       2.42424242       0.00000000       0.00000000       6.59248877
2
Properties=species:S:1:pos:R:3:forces:R:3 energy=0.45143589112215005 pbc="F F F"
Rb       0.00000000       0.00000000       0.00000000       0.00000000       0.00000000      -5.44176388
Rb       0.00000000       0.00000000       2.48383838       0.00000000       0.00000000       5.44176388
2
Properties=species:S:1:pos:R:3:forces:R:3 energy=0.1546651511900345 pbc="F F F"
Rb       0.00000000       0.00000000       0.00000000       0.00000000       0.00000000      -4.55604458
Rb       0.00000000       0.00000000       2.54343434       0.00000000       0.00000000       4.55604458
2
Properties=species:S:1:pos:R:3:forces:R:3 energy=-0.09547048221804615 pbc="F F F"
Rb       0.00000000       0.00000000       0.00000000       0.00000000       0.00000000      -3.86520267
Rb       0.00000000       0.00000000       2.60303030       0.00000000       0.00000000       3.86520267
2
Properties=species:S:1:pos:R:3:forces:R:3 energy=-0.3086991732907976 pbc="F F F"
Rb       0.00000000       0.00000000       0.00000000       0.00000000       0.00000000      -3.30927706
Rb       0.00000000       0.00000000       2.66262626       0.00000000       0.00000000       3.30927706
2
Properties=species:S:1:pos:R:3:forces:R:3 energy=-0.49184022578854136 pbc="F F F"
Rb       0.00000000       0.00000000       0.00000000       0.00000000       0.00000000      -2.85106111
Rb       0.00000000       0.00000000       2.72222222       0.00000000       0.00000000       2.85106111
2
Properties=species:S:1:pos:R:3:forces:R:3 energy=-0.6500673752708177 pbc="F F F"
Rb       0.00000000       0.00000000       0.00000000       0.00000000       0.00000000      -2.47080970
Rb       0.00000000       0.00000000       2.78181818       0.00000000       0.00000000       2.47080970
2
Properties=species:S:1:pos:R:3:forces:R:3 energy=-0.7876371797383082 pbc="F F F"
Rb       0.00000000       0.00000000       0.00000000       0.00000000       0.00000000      -2.15585089
Rb       0.00000000       0.00000000       2.84141414       0.00000000       0.00000000       2.15585089
2
Properties=species:S:1:pos:R:3:forces:R:3 energy=-0.9080947827861554 pbc="F F F"
Rb       0.00000000       0.00000000       0.00000000       0.00000000       0.00000000      -1.89456916
Rb       0.00000000       0.00000000       2.90101010       0.00000000       0.00000000       1.89456916
2
Properties=species:S:1:pos:R:3:forces:R:3 energy=-1.0142824212290555 pbc="F F F"
Rb       0.00000000       0.00000000       0.00000000       0.00000000       0.00000000      -1.67498422
Rb       0.00000000       0.00000000       2.96060606       0.00000000       0.00000000       1.67498422
2
Properties=species:S:1:pos:R:3:forces:R:3 energy=-1.108340441840029 pbc="F F F"
Rb       0.00000000       0.00000000       0.00000000       0.00000000       0.00000000      -1.48580277
Rb       0.00000000       0.00000000       3.02020202       0.00000000       0.00000000       1.48580277
2
Properties=species:S:1:pos:R:3:forces:R:3 energy=-1.1918026998763072 pbc="F F F"
Rb       0.00000000       0.00000000       0.00000000       0.00000000       0.00000000      -1.31816244
Rb       0.00000000       0.00000000       3.07979798       0.00000000       0.00000000       1.31816244
2
Properties=species:S:1:pos:R:3:forces:R:3 energy=-1.2657750829099899 pbc="F F F"
Rb       0.00000000       0.00000000       0.00000000       0.00000000       0.00000000      -1.16671765
Rb       0.00000000       0.00000000       3.13939394       0.00000000       0.00000000       1.16671765
2
Properties=species:S:1:pos:R:3:forces:R:3 energy=-1.3311452158074761 pbc="F F F"
Rb       0.00000000       0.00000000       0.00000000       0.00000000       0.00000000      -1.02937269
Rb       0.00000000       0.00000000       3.19898990       0.00000000       0.00000000       1.02937269
2
Properties=species:S:1:pos:R:3:forces:R:3 energy=-1.3887444629861405 pbc="F F F"
Rb       0.00000000       0.00000000       0.00000000       0.00000000       0.00000000      -0.90599954
Rb       0.00000000       0.00000000       3.25858586       0.00000000       0.00000000       0.90599954
2
Properties=species:S:1:pos:R:3:forces:R:3 energy=-1.4394164721719156 pbc="F F F"
Rb       0.00000000       0.00000000       0.00000000       0.00000000       0.00000000      -0.79684597
Rb       0.00000000       0.00000000       3.31818182       0.00000000       0.00000000       0.79684597
2
Properties=species:S:1:pos:R:3:forces:R:3 energy=-1.483994556312497 pbc="F F F"
Rb       0.00000000       0.00000000       0.00000000       0.00000000       0.00000000      -0.70135158
Rb       0.00000000       0.00000000       3.37777778       0.00000000       0.00000000       0.70135158
2
Properties=species:S:1:pos:R:3:forces:R:3 energy=-1.5232483800984264 pbc="F F F"
Rb       0.00000000       0.00000000       0.00000000       0.00000000       0.00000000      -0.61775750
Rb       0.00000000       0.00000000       3.43737374       0.00000000       0.00000000       0.61775750
2
Properties=species:S:1:pos:R:3:forces:R:3 energy=-1.5578122561594043 pbc="F F F"
Rb       0.00000000       0.00000000       0.00000000       0.00000000       0.00000000      -0.54350883
Rb       0.00000000       0.00000000       3.49696970       0.00000000       0.00000000       0.54350883
2
Properties=species:S:1:pos:R:3:forces:R:3 energy=-1.5881648573103089 pbc="F F F"
Rb       0.00000000       0.00000000       0.00000000       0.00000000       0.00000000      -0.47603571
Rb       0.00000000       0.00000000       3.55656566       0.00000000       0.00000000       0.47603571
2
Properties=species:S:1:pos:R:3:forces:R:3 energy=-1.6146467846662715 pbc="F F F"
Rb       0.00000000       0.00000000       0.00000000       0.00000000       0.00000000      -0.41336337
Rb       0.00000000       0.00000000       3.61616162       0.00000000       0.00000000       0.41336337
2
Properties=species:S:1:pos:R:3:forces:R:3 energy=-1.6375046940867437 pbc="F F F"
Rb       0.00000000       0.00000000       0.00000000       0.00000000       0.00000000      -0.35426056
Rb       0.00000000       0.00000000       3.67575758       0.00000000       0.00000000       0.35426056
2
Properties=species:S:1:pos:R:3:forces:R:3 energy=-1.656928171443744 pbc="F F F"
Rb       0.00000000       0.00000000       0.00000000       0.00000000       0.00000000      -0.29799446
Rb       0.00000000       0.00000000       3.73535354       0.00000000       0.00000000       0.29799446
2
Properties=species:S:1:pos:R:3:forces:R:3 energy=-1.6730677949971131 pbc="F F F"
Rb       0.00000000       0.00000000       0.00000000       0.00000000       0.00000000      -0.24395370
Rb       0.00000000       0.00000000       3.79494949       0.00000000       0.00000000       0.24395370
2
Properties=species:S:1:pos:R:3:forces:R:3 energy=-1.6860363686690965 pbc="F F F"
Rb       0.00000000       0.00000000       0.00000000       0.00000000       0.00000000      -0.19147182
Rb       0.00000000       0.00000000       3.85454545       0.00000000       0.00000000       0.19147182
2
Properties=species:S:1:pos:R:3:forces:R:3 energy=-1.6959073576524222 pbc="F F F"
Rb       0.00000000       0.00000000       0.00000000       0.00000000       0.00000000      -0.13989300
Rb       0.00000000       0.00000000       3.91414141       0.00000000       0.00000000       0.13989300
2
Properties=species:S:1:pos:R:3:forces:R:3 energy=-1.702719904287969 pbc="F F F"
Rb       0.00000000       0.00000000       0.00000000       0.00000000       0.00000000      -0.08881614
Rb       0.00000000       0.00000000       3.97373737       0.00000000       0.00000000       0.08881614
2
Properties=species:S:1:pos:R:3:forces:R:3 energy=-1.706503786739834 pbc="F F F"
Rb       0.00000000       0.00000000       0.00000000       0.00000000       0.00000000      -0.03828374
Rb       0.00000000       0.00000000       4.03333333       0.00000000       0.00000000       0.03828374
2
Properties=species:S:1:pos:R:3:forces:R:3 energy=-1.7073029404073214 pbc="F F F"
Rb       0.00000000       0.00000000       0.00000000       0.00000000       0.00000000       0.01123743
Rb       0.00000000       0.00000000       4.09292929       0.00000000       0.00000000      -0.01123743
2
Properties=species:S:1:pos:R:3:forces:R:3 energy=-1.705198017327101 pbc="F F F"
Rb       0.00000000       0.00000000       0.00000000       0.00000000       0.00000000       0.05906048
Rb       0.00000000       0.00000000       4.15252525       0.00000000       0.00000000      -0.05906048
2
Properties=species:S:1:pos:R:3:forces:R:3 energy=-1.7003091385783624 pbc="F F F"
Rb       0.00000000       0.00000000       0.00000000       0.00000000       0.00000000       0.10458545
Rb       0.00000000       0.00000000       4.21212121       0.00000000       0.00000000      -0.10458545
2
Properties=species:S:1:pos:R:3:forces:R:3 energy=-1.6927832183404943 pbc="F F F"
Rb       0.00000000       0.00000000       0.00000000       0.00000000       0.00000000       0.14756615
Rb       0.00000000       0.00000000       4.27171717       0.00000000       0.00000000      -0.14756615
2
Properties=species:S:1:pos:R:3:forces:R:3 energy=-1.6827669158158718 pbc="F F F"
Rb       0.00000000       0.00000000       0.00000000       0.00000000       0.00000000       0.18823949
Rb       0.00000000       0.00000000       4.33131313       0.00000000       0.00000000      -0.18823949
2
Properties=species:S:1:pos:R:3:forces:R:3 energy=-1.6703787703667452 pbc="F F F"
Rb       0.00000000       0.00000000       0.00000000       0.00000000       0.00000000       0.22729789
Rb       0.00000000       0.00000000       4.39090909       0.00000000       0.00000000      -0.22729789
2
Properties=species:S:1:pos:R:3:forces:R:3 energy=-1.6556872129295463 pbc="F F F"
Rb       0.00000000       0.00000000       0.00000000       0.00000000       0.00000000       0.26569730
Rb       0.00000000       0.00000000       4.45050505       0.00000000       0.00000000      -0.26569730
2
Properties=species:S:1:pos:R:3:forces:R:3 energy=-1.6387053626126475 pbc="F F F"
Rb       0.00000000       0.00000000       0.00000000       0.00000000       0.00000000       0.30431333
Rb       0.00000000       0.00000000       4.51010101       0.00000000       0.00000000      -0.30431333
2
Properties=species:S:1:pos:R:3:forces:R:3 energy=-1.6194030106311383 pbc="F F F"
Rb       0.00000000       0.00000000       0.00000000       0.00000000       0.00000000       0.34353554
Rb       0.00000000       0.00000000       4.56969697       0.00000000       0.00000000      -0.34353554
2
Properties=species:S:1:pos:R:3:forces:R:3 energy=-1.5977565310033623 pbc="F F F"
Rb       0.00000000       0.00000000       0.00000000       0.00000000       0.00000000       0.38280106
Rb       0.00000000       0.00000000       4.62929293       0.00000000       0.00000000      -0.38280106
2
Properties=species:S:1:pos:R:3:forces:R:3 energy=-1.5738112604184937 pbc="F F F"
Rb       0.00000000       0.00000000       0.00000000       0.00000000       0.00000000       0.42031643
Rb       0.00000000       0.00000000       4.68888889       0.00000000       0.00000000      -0.42031643
2
Properties=species:S:1:pos:R:3:forces:R:3 energy=-1.5477515455451794 pbc="F F F"
Rb       0.00000000       0.00000000       0.00000000       0.00000000       0.00000000       0.45311487
Rb       0.00000000       0.00000000       4.74848485       0.00000000       0.00000000      -0.45311487
2
Properties=species:S:1:pos:R:3:forces:R:3 energy=-1.5199641718478707 pbc="F F F"
Rb       0.00000000       0.00000000       0.00000000       0.00000000       0.00000000       0.47787324
Rb       0.00000000       0.00000000       4.80808081       0.00000000       0.00000000      -0.47787324
2
Properties=species:S:1:pos:R:3:forces:R:3 energy=-1.490988208855389 pbc="F F F"
Rb       0.00000000       0.00000000       0.00000000       0.00000000       0.00000000       0.49296346
Rb       0.00000000       0.00000000       4.86767677       0.00000000       0.00000000      -0.49296346
2
Properties=species:S:1:pos:R:3:forces:R:3 energy=-1.4613379043863395 pbc="F F F"
Rb       0.00000000       0.00000000       0.00000000       0.00000000       0.00000000       0.50165892
Rb       0.00000000       0.00000000       4.92727273       0.00000000       0.00000000      -0.50165892
2
Properties=species:S:1:pos:R:3:forces:R:3 energy=-1.4311092210314211 pbc="F F F"
Rb       0.00000000       0.00000000       0.00000000       0.00000000       0.00000000       0.51485670
Rb       0.00000000       0.00000000       4.98686869       0.00000000       0.00000000      -0.51485670
2
Properties=species:S:1:pos:R:3:forces:R:3 energy=-1.3995461936125235 pbc="F F F"
Rb       0.00000000       0.00000000       0.00000000       0.00000000       0.00000000       0.54959577
Rb       0.00000000       0.00000000       5.04646465       0.00000000       0.00000000      -0.54959577
2
Properties=species:S:1:pos:R:3:forces:R:3 energy=-1.3648664212527317 pbc="F F F"
Rb       0.00000000       0.00000000       0.00000000       0.00000000       0.00000000       0.62103629
Rb       0.00000000       0.00000000       5.10606061       0.00000000       0.00000000      -0.62103629
2
Properties=species:S:1:pos:R:3:forces:R:3 energy=-1.324733752811237 pbc="F F F"
Rb       0.00000000       0.00000000       0.00000000       0.00000000       0.00000000       0.73099101
Rb       0.00000000       0.00000000       5.16565657       0.00000000       0.00000000      -0.73099101
2
Properties=species:S:1:pos:R:3:forces:R:3 energy=-1.277366916113776 pbc="F F F"
Rb       0.00000000       0.00000000       0.00000000       0.00000000       0.00000000       0.85844851
Rb       0.00000000       0.00000000       5.22525253       0.00000000       0.00000000      -0.85844851
2
Properties=species:S:1:pos:R:3:forces:R:3 energy=-1.222986394438376 pbc="F F F"
Rb       0.00000000       0.00000000       0.00000000       0.00000000       0.00000000       0.95704603
Rb       0.00000000       0.00000000       5.28484848       0.00000000       0.00000000      -0.95704603
2
Properties=species:S:1:pos:R:3:forces:R:3 energy=-1.164842558817034 pbc="F F F"
Rb       0.00000000       0.00000000       0.00000000       0.00000000       0.00000000       0.98057377
Rb       0.00000000       0.00000000       5.34444444       0.00000000       0.00000000      -0.98057377
2
Properties=species:S:1:pos:R:3:forces:R:3 energy=-1.1069117344065886 pbc="F F F"
Rb       0.00000000       0.00000000       0.00000000       0.00000000       0.00000000       0.96912968
Rb       0.00000000       0.00000000       5.40404040       0.00000000       0.00000000      -0.96912968
2
Properties=species:S:1:pos:R:3:forces:R:3 energy=-1.0469267807959208 pbc="F F F"
Rb       0.00000000       0.00000000       0.00000000       0.00000000       0.00000000       1.07088637
Rb       0.00000000       0.00000000       5.46363636       0.00000000       0.00000000      -1.07088637
2
Properties=species:S:1:pos:R:3:forces:R:3 energy=-0.9776795356803546 pbc="F F F"
Rb       0.00000000       0.00000000       0.00000000       0.00000000       0.00000000       1.24249291
Rb       0.00000000       0.00000000       5.52323232       0.00000000       0.00000000      -1.24249291
2
Properties=species:S:1:pos:R:3:forces:R:3 energy=-0.9028445598578718 pbc="F F F"
Rb       0.00000000       0.00000000       0.00000000       0.00000000       0.00000000       1.22810245
Rb       0.00000000       0.00000000       5.58282828       0.00000000       0.00000000      -1.22810245
2
Properties=species:S:1:pos:R:3:forces:R:3 energy=-0.8342878922086483 pbc="F F F"
Rb       0.00000000       0.00000000       0.00000000       0.00000000       0.00000000       1.07254636
Rb       0.00000000       0.00000000       5.64242424       0.00000000       0.00000000      -1.07254636
2
Properties=species:S:1:pos:R:3:forces:R:3 energy=-0.7711919515665967 pbc="F F F"
Rb       0.00000000       0.00000000       0.00000000       0.00000000       0.00000000       1.10489690
Rb       0.00000000       0.00000000       5.70202020       0.00000000       0.00000000      -1.10489690
2
Properties=species:S:1:pos:R:3:forces:R:3 energy=-0.6951416024127088 pbc="F F F"
Rb       0.00000000       0.00000000       0.00000000       0.00000000       0.00000000       1.48004949
Rb       0.00000000       0.00000000       5.76161616       0.00000000       0.00000000      -1.48004949
2
Properties=species:S:1:pos:R:3:forces:R:3 energy=-0.5999320535824095 pbc="F F F"
Rb       0.00000000       0.00000000       0.00000000       0.00000000       0.00000000       1.60230827
Rb       0.00000000       0.00000000       5.82121212       0.00000000       0.00000000      -1.60230827
2
Properties=species:S:1:pos:R:3:forces:R:3 energy=-0.518698859987028 pbc="F F F"
Rb       0.00000000       0.00000000       0.00000000       0.00000000       0.00000000       1.04720199
Rb       0.00000000       0.00000000       5.88080808       0.00000000       0.00000000      -1.04720199
2
Properties=species:S:1:pos:R:3:forces:R:3 energy=-0.4778631889889391 pbc="F F F"
Rb       0.00000000       0.00000000       0.00000000       0.00000000       0.00000000       0.34081420
Rb       0.00000000       0.00000000       5.94040404       0.00000000       0.00000000      -0.34081420
2
Properties=species:S:1:pos:R:3:forces:R:3 energy=-0.4693161921769455 pbc="F F F"
Rb       0.00000000       0.00000000       0.00000000       0.00000000       0.00000000       0.04632730
Rb       0.00000000       0.00000000       6.00000000       0.00000000       0.00000000      -0.04632730
