2
Properties=species:S:1:pos:R:3:forces:R:3 energy=34638.75601762439 pbc="F F F"
Ru       0.00000000       0.00000000       0.00000000       0.00000000       0.00000000 -820375.18750000
Ru       0.00000000       0.00000000       0.10000000       0.00000000       0.00000000  820375.18750000
2
Properties=species:S:1:pos:R:3:forces:R:3 energy=10377.00113481189 pbc="F F F"
Ru       0.00000000       0.00000000       0.00000000       0.00000000       0.00000000 -181539.96875000
Ru       0.00000000       0.00000000       0.15959596       0.00000000       0.00000000  181539.96875000
2
Properties=species:S:1:pos:R:3:forces:R:3 energy=4089.03726762439 pbc="F F F"
Ru       0.00000000       0.00000000       0.00000000       0.00000000       0.00000000  -57260.23437500
Ru       0.00000000       0.00000000       0.21919192       0.00000000       0.00000000   57260.23437500
2
Properties=species:S:1:pos:R:3:forces:R:3 energy=1928.142492236933 pbc="F F F"
Ru       0.00000000       0.00000000       0.00000000       0.00000000       0.00000000  -21651.77343750
Ru       0.00000000       0.00000000       0.27878788       0.00000000       0.00000000   21651.77343750
2
Properties=species:S:1:pos:R:3:forces:R:3 energy=1083.5366572759956 pbc="F F F"
Ru       0.00000000       0.00000000       0.00000000       0.00000000       0.00000000   -8627.18164062
Ru       0.00000000       0.00000000       0.33838384       0.00000000       0.00000000    8627.18164062
2
Properties=species:S:1:pos:R:3:forces:R:3 energy=757.6588496651436 pbc="F F F"
Ru       0.00000000       0.00000000       0.00000000       0.00000000       0.00000000   -3046.95751953
Ru       0.00000000       0.00000000       0.39797980       0.00000000       0.00000000    3046.95751953
2
Properties=species:S:1:pos:R:3:forces:R:3 energy=816.5564937207837 pbc="F F F"
Ru       0.00000000       0.00000000       0.00000000       0.00000000       0.00000000    3657.89697266
Ru       0.00000000       0.00000000       0.45757576       0.00000000       0.00000000   -3657.89697266
2
Properties=species:S:1:pos:R:3:forces:R:3 energy=1055.9577999016378 pbc="F F F"
Ru       0.00000000       0.00000000       0.00000000       0.00000000       0.00000000    3140.15991211
Ru       0.00000000       0.00000000       0.51717172       0.00000000       0.00000000   -3140.15991211
2
Properties=species:S:1:pos:R:3:forces:R:3 energy=1234.0531368632176 pbc="F F F"
Ru       0.00000000       0.00000000       0.00000000       0.00000000       0.00000000     348.10708618
Ru       0.00000000       0.00000000       0.57676768       0.00000000       0.00000000    -348.10708618
2
Properties=species:S:1:pos:R:3:forces:R:3 energy=1179.7787228767454 pbc="F F F"
Ru       0.00000000       0.00000000       0.00000000       0.00000000       0.00000000   -1797.05798340
Ru       0.00000000       0.00000000       0.63636364       0.00000000       0.00000000    1797.05798340
2
Properties=species:S:1:pos:R:3:forces:R:3 energy=956.9504759363136 pbc="F F F"
Ru       0.00000000       0.00000000       0.00000000       0.00000000       0.00000000   -4328.04296875
Ru       0.00000000       0.00000000       0.69595960       0.00000000       0.00000000    4328.04296875
2
Properties=species:S:1:pos:R:3:forces:R:3 energy=715.9540161686133 pbc="F F F"
Ru       0.00000000       0.00000000       0.00000000       0.00000000       0.00000000   -3752.83642578
Ru       0.00000000       0.00000000       0.75555556       0.00000000       0.00000000    3752.83642578
2
Properties=species:S:1:pos:R:3:forces:R:3 energy=515.709875831885 pbc="F F F"
Ru       0.00000000       0.00000000       0.00000000       0.00000000       0.00000000   -2980.43164062
Ru       0.00000000       0.00000000       0.81515152       0.00000000       0.00000000    2980.43164062
2
Properties=species:S:1:pos:R:3:forces:R:3 energy=363.0355903645335 pbc="F F F"
Ru       0.00000000       0.00000000       0.00000000       0.00000000       0.00000000   -2153.45703125
Ru       0.00000000       0.00000000       0.87474747       0.00000000       0.00000000    2153.45703125
2
Properties=species:S:1:pos:R:3:forces:R:3 energy=256.21265394836536 pbc="F F F"
Ru       0.00000000       0.00000000       0.00000000       0.00000000       0.00000000   -1378.19238281
Ru       0.00000000       0.00000000       0.93434343       0.00000000       0.00000000    1378.19238281
2
Properties=species:S:1:pos:R:3:forces:R:3 energy=188.10649937015563 pbc="F F F"
Ru       0.00000000       0.00000000       0.00000000       0.00000000       0.00000000    -971.88970947
Ru       0.00000000       0.00000000       0.99393939       0.00000000       0.00000000     971.88970947
2
Properties=species:S:1:pos:R:3:forces:R:3 energy=138.36680017101403 pbc="F F F"
Ru       0.00000000       0.00000000       0.00000000       0.00000000       0.00000000    -711.10998535
Ru       0.00000000       0.00000000       1.05353535       0.00000000       0.00000000     711.10998535
2
Properties=species:S:1:pos:R:3:forces:R:3 energy=101.69315664352703 pbc="F F F"
Ru       0.00000000       0.00000000       0.00000000       0.00000000       0.00000000    -532.80004883
Ru       0.00000000       0.00000000       1.11313131       0.00000000       0.00000000     532.80004883
2
Properties=species:S:1:pos:R:3:forces:R:3 energy=73.47721622476426 pbc="F F F"
Ru       0.00000000       0.00000000       0.00000000       0.00000000       0.00000000    -421.70791626
Ru       0.00000000       0.00000000       1.17272727       0.00000000       0.00000000     421.70791626
2
Properties=species:S:1:pos:R:3:forces:R:3 energy=51.252277524366804 pbc="F F F"
Ru       0.00000000       0.00000000       0.00000000       0.00000000       0.00000000    -323.18591309
Ru       0.00000000       0.00000000       1.23232323       0.00000000       0.00000000     323.18591309
2
Properties=species:S:1:pos:R:3:forces:R:3 energy=34.76930580012703 pbc="F F F"
Ru       0.00000000       0.00000000       0.00000000       0.00000000       0.00000000    -234.00500488
Ru       0.00000000       0.00000000       1.29191919       0.00000000       0.00000000     234.00500488
2
Properties=species:S:1:pos:R:3:forces:R:3 energy=22.84030911132097 pbc="F F F"
Ru       0.00000000       0.00000000       0.00000000       0.00000000       0.00000000    -170.13845825
Ru       0.00000000       0.00000000       1.35151515       0.00000000       0.00000000     170.13845825
2
Properties=species:S:1:pos:R:3:forces:R:3 energy=14.125417195137082 pbc="F F F"
Ru       0.00000000       0.00000000       0.00000000       0.00000000       0.00000000    -124.81153107
Ru       0.00000000       0.00000000       1.41111111       0.00000000       0.00000000     124.81153107
2
Properties=species:S:1:pos:R:3:forces:R:3 energy=7.713538942487865 pbc="F F F"
Ru       0.00000000       0.00000000       0.00000000       0.00000000       0.00000000     -92.12378693
Ru       0.00000000       0.00000000       1.47070707       0.00000000       0.00000000      92.12378693
2
Properties=species:S:1:pos:R:3:forces:R:3 energy=2.9720857212515313 pbc="F F F"
Ru       0.00000000       0.00000000       0.00000000       0.00000000       0.00000000     -68.18347168
Ru       0.00000000       0.00000000       1.53030303       0.00000000       0.00000000      68.18347168
2
Properties=species:S:1:pos:R:3:forces:R:3 energy=-0.531659494099861 pbc="F F F"
Ru       0.00000000       0.00000000       0.00000000       0.00000000       0.00000000     -50.22962570
Ru       0.00000000       0.00000000       1.58989899       0.00000000       0.00000000      50.22962570
2
Properties=species:S:1:pos:R:3:forces:R:3 energy=-3.098748270381776 pbc="F F F"
Ru       0.00000000       0.00000000       0.00000000       0.00000000       0.00000000     -36.51964569
Ru       0.00000000       0.00000000       1.64949495       0.00000000       0.00000000      36.51964569
2
Properties=species:S:1:pos:R:3:forces:R:3 energy=-4.947087519148741 pbc="F F F"
Ru       0.00000000       0.00000000       0.00000000       0.00000000       0.00000000     -25.97334671
Ru       0.00000000       0.00000000       1.70909091       0.00000000       0.00000000      25.97334671
2
Properties=species:S:1:pos:R:3:forces:R:3 energy=-6.243953614175496 pbc="F F F"
Ru       0.00000000       0.00000000       0.00000000       0.00000000       0.00000000     -17.91778374
Ru       0.00000000       0.00000000       1.76868687       0.00000000       0.00000000      17.91778374
2
Properties=species:S:1:pos:R:3:forces:R:3 energy=-7.121969929340192 pbc="F F F"
Ru       0.00000000       0.00000000       0.00000000       0.00000000       0.00000000     -11.83977032
Ru       0.00000000       0.00000000       1.82828283       0.00000000       0.00000000      11.83977032
2
Properties=species:S:1:pos:R:3:forces:R:3 energy=-7.686131030935302 pbc="F F F"
Ru       0.00000000       0.00000000       0.00000000       0.00000000       0.00000000      -7.32401180
Ru       0.00000000       0.00000000       1.88787879       0.00000000       0.00000000       7.32401180
2
Properties=species:S:1:pos:R:3:forces:R:3 energy=-8.019511981179392 pbc="F F F"
Ru       0.00000000       0.00000000       0.00000000       0.00000000       0.00000000      -4.04806089
Ru       0.00000000       0.00000000       1.94747475       0.00000000       0.00000000       4.04806089
2
Properties=species:S:1:pos:R:3:forces:R:3 energy=-8.188212209552116 pbc="F F F"
Ru       0.00000000       0.00000000       0.00000000       0.00000000       0.00000000      -1.75882936
Ru       0.00000000       0.00000000       2.00707071       0.00000000       0.00000000       1.75882936
2
Properties=species:S:1:pos:R:3:forces:R:3 energy=-8.24432660577158 pbc="F F F"
Ru       0.00000000       0.00000000       0.00000000       0.00000000       0.00000000      -0.23366408
Ru       0.00000000       0.00000000       2.06666667       0.00000000       0.00000000       0.23366408
2
Properties=species:S:1:pos:R:3:forces:R:3 energy=-8.227003521422217 pbc="F F F"
Ru       0.00000000       0.00000000       0.00000000       0.00000000       0.00000000       0.73983198
Ru       0.00000000       0.00000000       2.12626263       0.00000000       0.00000000      -0.73983198
2
Properties=species:S:1:pos:R:3:forces:R:3 energy=-8.163356589987526 pbc="F F F"
Ru       0.00000000       0.00000000       0.00000000       0.00000000       0.00000000       1.34846509
Ru       0.00000000       0.00000000       2.18585859       0.00000000       0.00000000      -1.34846509
2
Properties=species:S:1:pos:R:3:forces:R:3 energy=-8.070768005067926 pbc="F F F"
Ru       0.00000000       0.00000000       0.00000000       0.00000000       0.00000000       1.72919691
Ru       0.00000000       0.00000000       2.24545455       0.00000000       0.00000000      -1.72919691
2
Properties=species:S:1:pos:R:3:forces:R:3 energy=-7.960076573625708 pbc="F F F"
Ru       0.00000000       0.00000000       0.00000000       0.00000000       0.00000000       1.96659350
Ru       0.00000000       0.00000000       2.30505051       0.00000000       0.00000000      -1.96659350
2
Properties=species:S:1:pos:R:3:forces:R:3 energy=-7.838197432710816 pbc="F F F"
Ru       0.00000000       0.00000000       0.00000000       0.00000000       0.00000000       2.11140037
Ru       0.00000000       0.00000000       2.36464646       0.00000000       0.00000000      -2.11140037
2
Properties=species:S:1:pos:R:3:forces:R:3 energy=-7.709550279369605 pbc="F F F"
Ru       0.00000000       0.00000000       0.00000000       0.00000000       0.00000000       2.19874215
Ru       0.00000000       0.00000000       2.42424242       0.00000000       0.00000000      -2.19874215
2
Properties=species:S:1:pos:R:3:forces:R:3 energy=-7.576752836379221 pbc="F F F"
Ru       0.00000000       0.00000000       0.00000000       0.00000000       0.00000000       2.25410104
Ru       0.00000000       0.00000000       2.48383838       0.00000000       0.00000000      -2.25410104
2
Properties=species:S:1:pos:R:3:forces:R:3 energy=-7.44121828079574 pbc="F F F"
Ru       0.00000000       0.00000000       0.00000000       0.00000000       0.00000000       2.29210782
Ru       0.00000000       0.00000000       2.54343434       0.00000000       0.00000000      -2.29210782
2
Properties=species:S:1:pos:R:3:forces:R:3 energy=-7.30379257681001 pbc="F F F"
Ru       0.00000000       0.00000000       0.00000000       0.00000000       0.00000000       2.31798005
Ru       0.00000000       0.00000000       2.60303030       0.00000000       0.00000000      -2.31798005
2
Properties=species:S:1:pos:R:3:forces:R:3 energy=-7.165104306909479 pbc="F F F"
Ru       0.00000000       0.00000000       0.00000000       0.00000000       0.00000000       2.33545160
Ru       0.00000000       0.00000000       2.66262626       0.00000000       0.00000000      -2.33545160
2
Properties=species:S:1:pos:R:3:forces:R:3 energy=-7.0254109971434895 pbc="F F F"
Ru       0.00000000       0.00000000       0.00000000       0.00000000       0.00000000       2.35353112
Ru       0.00000000       0.00000000       2.72222222       0.00000000       0.00000000      -2.35353112
2
Properties=species:S:1:pos:R:3:forces:R:3 energy=-6.884487927016265 pbc="F F F"
Ru       0.00000000       0.00000000       0.00000000       0.00000000       0.00000000       2.37551856
Ru       0.00000000       0.00000000       2.78181818       0.00000000       0.00000000      -2.37551856
2
Properties=species:S:1:pos:R:3:forces:R:3 energy=-6.742494355544073 pbc="F F F"
Ru       0.00000000       0.00000000       0.00000000       0.00000000       0.00000000       2.38611460
Ru       0.00000000       0.00000000       2.84141414       0.00000000       0.00000000      -2.38611460
2
Properties=species:S:1:pos:R:3:forces:R:3 energy=-6.600625175424099 pbc="F F F"
Ru       0.00000000       0.00000000       0.00000000       0.00000000       0.00000000       2.37004232
Ru       0.00000000       0.00000000       2.90101010       0.00000000       0.00000000      -2.37004232
2
Properties=species:S:1:pos:R:3:forces:R:3 energy=-6.460577940842801 pbc="F F F"
Ru       0.00000000       0.00000000       0.00000000       0.00000000       0.00000000       2.32534933
Ru       0.00000000       0.00000000       2.96060606       0.00000000       0.00000000      -2.32534933
2
Properties=species:S:1:pos:R:3:forces:R:3 energy=-6.323960072154271 pbc="F F F"
Ru       0.00000000       0.00000000       0.00000000       0.00000000       0.00000000       2.25558329
Ru       0.00000000       0.00000000       3.02020202       0.00000000       0.00000000      -2.25558329
2
Properties=species:S:1:pos:R:3:forces:R:3 energy=-6.192148314025972 pbc="F F F"
Ru       0.00000000       0.00000000       0.00000000       0.00000000       0.00000000       2.16475797
Ru       0.00000000       0.00000000       3.07979798       0.00000000       0.00000000      -2.16475797
2
Properties=species:S:1:pos:R:3:forces:R:3 energy=-6.066267709054777 pbc="F F F"
Ru       0.00000000       0.00000000       0.00000000       0.00000000       0.00000000       2.05734754
Ru       0.00000000       0.00000000       3.13939394       0.00000000       0.00000000      -2.05734754
2
Properties=species:S:1:pos:R:3:forces:R:3 energy=-5.9471588098626125 pbc="F F F"
Ru       0.00000000       0.00000000       0.00000000       0.00000000       0.00000000       1.93835795
Ru       0.00000000       0.00000000       3.19898990       0.00000000       0.00000000      -1.93835795
2
Properties=species:S:1:pos:R:3:forces:R:3 energy=-5.835365053762857 pbc="F F F"
Ru       0.00000000       0.00000000       0.00000000       0.00000000       0.00000000       1.81261492
Ru       0.00000000       0.00000000       3.25858586       0.00000000       0.00000000      -1.81261492
2
Properties=species:S:1:pos:R:3:forces:R:3 energy=-5.731163380429981 pbc="F F F"
Ru       0.00000000       0.00000000       0.00000000       0.00000000       0.00000000       1.68415308
Ru       0.00000000       0.00000000       3.31818182       0.00000000       0.00000000      -1.68415308
2
Properties=species:S:1:pos:R:3:forces:R:3 energy=-5.634618781085212 pbc="F F F"
Ru       0.00000000       0.00000000       0.00000000       0.00000000       0.00000000       1.55611777
Ru       0.00000000       0.00000000       3.37777778       0.00000000       0.00000000      -1.55611777
2
Properties=species:S:1:pos:R:3:forces:R:3 energy=-5.545628400270087 pbc="F F F"
Ru       0.00000000       0.00000000       0.00000000       0.00000000       0.00000000       1.43100178
Ru       0.00000000       0.00000000       3.43737374       0.00000000       0.00000000      -1.43100178
2
Properties=species:S:1:pos:R:3:forces:R:3 energy=-5.463954729050012 pbc="F F F"
Ru       0.00000000       0.00000000       0.00000000       0.00000000       0.00000000       1.31089997
Ru       0.00000000       0.00000000       3.49696970       0.00000000       0.00000000      -1.31089997
2
Properties=species:S:1:pos:R:3:forces:R:3 energy=-5.389245282050628 pbc="F F F"
Ru       0.00000000       0.00000000       0.00000000       0.00000000       0.00000000       1.19751048
Ru       0.00000000       0.00000000       3.55656566       0.00000000       0.00000000      -1.19751048
2
Properties=species:S:1:pos:R:3:forces:R:3 energy=-5.321064119395413 pbc="F F F"
Ru       0.00000000       0.00000000       0.00000000       0.00000000       0.00000000       1.09199083
Ru       0.00000000       0.00000000       3.61616162       0.00000000       0.00000000      -1.09199083
2
Properties=species:S:1:pos:R:3:forces:R:3 energy=-5.258923889829943 pbc="F F F"
Ru       0.00000000       0.00000000       0.00000000       0.00000000       0.00000000       0.99478990
Ru       0.00000000       0.00000000       3.67575758       0.00000000       0.00000000      -0.99478990
2
Properties=species:S:1:pos:R:3:forces:R:3 energy=-5.202331752808897 pbc="F F F"
Ru       0.00000000       0.00000000       0.00000000       0.00000000       0.00000000       0.90569109
Ru       0.00000000       0.00000000       3.73535354       0.00000000       0.00000000      -0.90569109
2
Properties=species:S:1:pos:R:3:forces:R:3 energy=-5.150825567434928 pbc="F F F"
Ru       0.00000000       0.00000000       0.00000000       0.00000000       0.00000000       0.82397807
Ru       0.00000000       0.00000000       3.79494949       0.00000000       0.00000000      -0.82397807
2
Properties=species:S:1:pos:R:3:forces:R:3 energy=-5.103993143343032 pbc="F F F"
Ru       0.00000000       0.00000000       0.00000000       0.00000000       0.00000000       0.74867707
Ru       0.00000000       0.00000000       3.85454545       0.00000000       0.00000000      -0.74867707
2
Properties=species:S:1:pos:R:3:forces:R:3 energy=-5.061482661425939 pbc="F F F"
Ru       0.00000000       0.00000000       0.00000000       0.00000000       0.00000000       0.67878914
Ru       0.00000000       0.00000000       3.91414141       0.00000000       0.00000000      -0.67878914
2
Properties=species:S:1:pos:R:3:forces:R:3 energy=-5.022996531971856 pbc="F F F"
Ru       0.00000000       0.00000000       0.00000000       0.00000000       0.00000000       0.61344296
Ru       0.00000000       0.00000000       3.97373737       0.00000000       0.00000000      -0.61344296
2
Properties=species:S:1:pos:R:3:forces:R:3 energy=-4.9882876369880025 pbc="F F F"
Ru       0.00000000       0.00000000       0.00000000       0.00000000       0.00000000       0.55198556
Ru       0.00000000       0.00000000       4.03333333       0.00000000       0.00000000      -0.55198556
2
Properties=species:S:1:pos:R:3:forces:R:3 energy=-4.957135806788746 pbc="F F F"
Ru       0.00000000       0.00000000       0.00000000       0.00000000       0.00000000       0.49398577
Ru       0.00000000       0.00000000       4.09292929       0.00000000       0.00000000      -0.49398577
2
Properties=species:S:1:pos:R:3:forces:R:3 energy=-4.929344068654785 pbc="F F F"
Ru       0.00000000       0.00000000       0.00000000       0.00000000       0.00000000       0.43922868
Ru       0.00000000       0.00000000       4.15252525       0.00000000       0.00000000      -0.43922868
2
Properties=species:S:1:pos:R:3:forces:R:3 energy=-4.904720381301313 pbc="F F F"
Ru       0.00000000       0.00000000       0.00000000       0.00000000       0.00000000       0.38767135
Ru       0.00000000       0.00000000       4.21212121       0.00000000       0.00000000      -0.38767135
2
Properties=species:S:1:pos:R:3:forces:R:3 energy=-4.883071836804394 pbc="F F F"
Ru       0.00000000       0.00000000       0.00000000       0.00000000       0.00000000       0.33938390
Ru       0.00000000       0.00000000       4.27171717       0.00000000       0.00000000      -0.33938390
2
Properties=species:S:1:pos:R:3:forces:R:3 energy=-4.864200700183872 pbc="F F F"
Ru       0.00000000       0.00000000       0.00000000       0.00000000       0.00000000       0.29450750
Ru       0.00000000       0.00000000       4.33131313       0.00000000       0.00000000      -0.29450750
2
Properties=species:S:1:pos:R:3:forces:R:3 energy=-4.847898560644593 pbc="F F F"
Ru       0.00000000       0.00000000       0.00000000       0.00000000       0.00000000       0.25317794
Ru       0.00000000       0.00000000       4.39090909       0.00000000       0.00000000      -0.25317794
2
Properties=species:S:1:pos:R:3:forces:R:3 energy=-4.833951004913318 pbc="F F F"
Ru       0.00000000       0.00000000       0.00000000       0.00000000       0.00000000       0.21549529
Ru       0.00000000       0.00000000       4.45050505       0.00000000       0.00000000      -0.21549529
2
Properties=species:S:1:pos:R:3:forces:R:3 energy=-4.822140243842834 pbc="F F F"
Ru       0.00000000       0.00000000       0.00000000       0.00000000       0.00000000       0.18148139
Ru       0.00000000       0.00000000       4.51010101       0.00000000       0.00000000      -0.18148139
2
Properties=species:S:1:pos:R:3:forces:R:3 energy=-4.812248304552247 pbc="F F F"
Ru       0.00000000       0.00000000       0.00000000       0.00000000       0.00000000       0.15107246
Ru       0.00000000       0.00000000       4.56969697       0.00000000       0.00000000      -0.15107246
2
Properties=species:S:1:pos:R:3:forces:R:3 energy=-4.804064612304173 pbc="F F F"
Ru       0.00000000       0.00000000       0.00000000       0.00000000       0.00000000       0.12412994
Ru       0.00000000       0.00000000       4.62929293       0.00000000       0.00000000      -0.12412994
2
Properties=species:S:1:pos:R:3:forces:R:3 energy=-4.7973881687820965 pbc="F F F"
Ru       0.00000000       0.00000000       0.00000000       0.00000000       0.00000000       0.10046401
Ru       0.00000000       0.00000000       4.68888889       0.00000000       0.00000000      -0.10046401
2
Properties=species:S:1:pos:R:3:forces:R:3 energy=-4.792029405586023 pbc="F F F"
Ru       0.00000000       0.00000000       0.00000000       0.00000000       0.00000000       0.07985906
Ru       0.00000000       0.00000000       4.74848485       0.00000000       0.00000000      -0.07985906
2
Properties=species:S:1:pos:R:3:forces:R:3 energy=-4.787812871025213 pbc="F F F"
Ru       0.00000000       0.00000000       0.00000000       0.00000000       0.00000000       0.06211239
Ru       0.00000000       0.00000000       4.80808081       0.00000000       0.00000000      -0.06211239
2
Properties=species:S:1:pos:R:3:forces:R:3 energy=-4.784572998772374 pbc="F F F"
Ru       0.00000000       0.00000000       0.00000000       0.00000000       0.00000000       0.04704488
Ru       0.00000000       0.00000000       4.86767677       0.00000000       0.00000000      -0.04704488
2
Properties=species:S:1:pos:R:3:forces:R:3 energy=-4.78215498234243 pbc="F F F"
Ru       0.00000000       0.00000000       0.00000000       0.00000000       0.00000000       0.03451673
Ru       0.00000000       0.00000000       4.92727273       0.00000000       0.00000000      -0.03451673
2
Properties=species:S:1:pos:R:3:forces:R:3 energy=-4.780410410698182 pbc="F F F"
Ru       0.00000000       0.00000000       0.00000000       0.00000000       0.00000000       0.02440603
Ru       0.00000000       0.00000000       4.98686869       0.00000000       0.00000000      -0.02440603
2
Properties=species:S:1:pos:R:3:forces:R:3 energy=-4.779200229059659 pbc="F F F"
Ru       0.00000000       0.00000000       0.00000000       0.00000000       0.00000000       0.01657669
Ru       0.00000000       0.00000000       5.04646465       0.00000000       0.00000000      -0.01657669
2
Properties=species:S:1:pos:R:3:forces:R:3 energy=-4.778393221277532 pbc="F F F"
Ru       0.00000000       0.00000000       0.00000000       0.00000000       0.00000000       0.01083620
Ru       0.00000000       0.00000000       5.10606061       0.00000000       0.00000000      -0.01083620
2
Properties=species:S:1:pos:R:3:forces:R:3 energy=-4.777872356019903 pbc="F F F"
Ru       0.00000000       0.00000000       0.00000000       0.00000000       0.00000000       0.00694009
Ru       0.00000000       0.00000000       5.16565657       0.00000000       0.00000000      -0.00694009
2
Properties=species:S:1:pos:R:3:forces:R:3 energy=-4.777534766181456 pbc="F F F"
Ru       0.00000000       0.00000000       0.00000000       0.00000000       0.00000000       0.00463084
Ru       0.00000000       0.00000000       5.22525253       0.00000000       0.00000000      -0.00463084
2
Properties=species:S:1:pos:R:3:forces:R:3 energy=-4.7772937037494305 pbc="F F F"
Ru       0.00000000       0.00000000       0.00000000       0.00000000       0.00000000       0.00365715
Ru       0.00000000       0.00000000       5.28484848       0.00000000       0.00000000      -0.00365715
2
Properties=species:S:1:pos:R:3:forces:R:3 energy=-4.777079604351704 pbc="F F F"
Ru       0.00000000       0.00000000       0.00000000       0.00000000       0.00000000       0.00363645
Ru       0.00000000       0.00000000       5.34444444       0.00000000       0.00000000      -0.00363645
2
Properties=species:S:1:pos:R:3:forces:R:3 energy=-4.776856302888 pbc="F F F"
Ru       0.00000000       0.00000000       0.00000000       0.00000000       0.00000000       0.00380906
Ru       0.00000000       0.00000000       5.40404040       0.00000000       0.00000000      -0.00380906
2
Properties=species:S:1:pos:R:3:forces:R:3 energy=-4.77663783053637 pbc="F F F"
Ru       0.00000000       0.00000000       0.00000000       0.00000000       0.00000000       0.00341951
Ru       0.00000000       0.00000000       5.46363636       0.00000000       0.00000000      -0.00341951
2
Properties=species:S:1:pos:R:3:forces:R:3 energy=-4.776445998420882 pbc="F F F"
Ru       0.00000000       0.00000000       0.00000000       0.00000000       0.00000000       0.00319540
Ru       0.00000000       0.00000000       5.52323232       0.00000000       0.00000000      -0.00319540
2
Properties=species:S:1:pos:R:3:forces:R:3 energy=-4.776226566138603 pbc="F F F"
Ru       0.00000000       0.00000000       0.00000000       0.00000000       0.00000000       0.00436511
Ru       0.00000000       0.00000000       5.58282828       0.00000000       0.00000000      -0.00436511
2
Properties=species:S:1:pos:R:3:forces:R:3 energy=-4.775926966216399 pbc="F F F"
Ru       0.00000000       0.00000000       0.00000000       0.00000000       0.00000000       0.00548232
Ru       0.00000000       0.00000000       5.64242424       0.00000000       0.00000000      -0.00548232
2
Properties=species:S:1:pos:R:3:forces:R:3 energy=-4.775595104437339 pbc="F F F"
Ru       0.00000000       0.00000000       0.00000000       0.00000000       0.00000000       0.00570544
Ru       0.00000000       0.00000000       5.70202020       0.00000000       0.00000000      -0.00570544
2
Properties=species:S:1:pos:R:3:forces:R:3 energy=-4.7751934226513555 pbc="F F F"
Ru       0.00000000       0.00000000       0.00000000       0.00000000       0.00000000       0.00855193
Ru       0.00000000       0.00000000       5.76161616       0.00000000       0.00000000      -0.00855193
2
Properties=species:S:1:pos:R:3:forces:R:3 energy=-4.774503061634045 pbc="F F F"
Ru       0.00000000       0.00000000       0.00000000       0.00000000       0.00000000       0.01460009
Ru       0.00000000       0.00000000       5.82121212       0.00000000       0.00000000      -0.01460009
2
Properties=species:S:1:pos:R:3:forces:R:3 energy=-4.773549275859513 pbc="F F F"
Ru       0.00000000       0.00000000       0.00000000       0.00000000       0.00000000       0.01622348
Ru       0.00000000       0.00000000       5.88080808       0.00000000       0.00000000      -0.01622348
2
Properties=species:S:1:pos:R:3:forces:R:3 energy=-4.772675812177505 pbc="F F F"
Ru       0.00000000       0.00000000       0.00000000       0.00000000       0.00000000       0.01266789
Ru       0.00000000       0.00000000       5.94040404       0.00000000       0.00000000      -0.01266789
2
Properties=species:S:1:pos:R:3:forces:R:3 energy=-4.772012320721552 pbc="F F F"
Ru       0.00000000       0.00000000       0.00000000       0.00000000       0.00000000       0.01020642
Ru       0.00000000       0.00000000       6.00000000       0.00000000       0.00000000      -0.01020642
