2
Properties=species:S:1:pos:R:3:forces:R:3 energy=2659.022691101395 pbc="F F F"
Sc       0.00000000       0.00000000       0.00000000       0.00000000       0.00000000  -37516.41796875
Sc       0.00000000       0.00000000       0.18000000       0.00000000       0.00000000   37516.41796875
2
Properties=species:S:1:pos:R:3:forces:R:3 energy=1281.7004254763951 pbc="F F F"
Sc       0.00000000       0.00000000       0.00000000       0.00000000       0.00000000  -13933.30566406
Sc       0.00000000       0.00000000       0.23878788       0.00000000       0.00000000   13933.30566406
2
Properties=species:S:1:pos:R:3:forces:R:3 energy=732.0784772405434 pbc="F F F"
Sc       0.00000000       0.00000000       0.00000000       0.00000000       0.00000000   -6034.47460938
Sc       0.00000000       0.00000000       0.29757576       0.00000000       0.00000000    6034.47460938
2
Properties=species:S:1:pos:R:3:forces:R:3 energy=484.08848700616835 pbc="F F F"
Sc       0.00000000       0.00000000       0.00000000       0.00000000       0.00000000   -2834.39843750
Sc       0.00000000       0.00000000       0.35636364       0.00000000       0.00000000    2834.39843750
2
Properties=species:S:1:pos:R:3:forces:R:3 energy=366.4307721655862 pbc="F F F"
Sc       0.00000000       0.00000000       0.00000000       0.00000000       0.00000000   -1343.04980469
Sc       0.00000000       0.00000000       0.41515152       0.00000000       0.00000000    1343.04980469
2
Properties=species:S:1:pos:R:3:forces:R:3 energy=311.9745343821209 pbc="F F F"
Sc       0.00000000       0.00000000       0.00000000       0.00000000       0.00000000    -592.36291504
Sc       0.00000000       0.00000000       0.47393939       0.00000000       0.00000000     592.36291504
2
Properties=species:S:1:pos:R:3:forces:R:3 energy=289.7318586198778 pbc="F F F"
Sc       0.00000000       0.00000000       0.00000000       0.00000000       0.00000000    -209.39843750
Sc       0.00000000       0.00000000       0.53272727       0.00000000       0.00000000     209.39843750
2
Properties=species:S:1:pos:R:3:forces:R:3 energy=282.94166699799763 pbc="F F F"
Sc       0.00000000       0.00000000       0.00000000       0.00000000       0.00000000     -53.70714188
Sc       0.00000000       0.00000000       0.59151515       0.00000000       0.00000000      53.70714188
2
Properties=species:S:1:pos:R:3:forces:R:3 energy=280.1330732955149 pbc="F F F"
Sc       0.00000000       0.00000000       0.00000000       0.00000000       0.00000000     -66.07983398
Sc       0.00000000       0.00000000       0.65030303       0.00000000       0.00000000      66.07983398
2
Properties=species:S:1:pos:R:3:forces:R:3 energy=272.71171717670643 pbc="F F F"
Sc       0.00000000       0.00000000       0.00000000       0.00000000       0.00000000    -203.71453857
Sc       0.00000000       0.00000000       0.70909091       0.00000000       0.00000000     203.71453857
2
Properties=species:S:1:pos:R:3:forces:R:3 energy=254.67349403048212 pbc="F F F"
Sc       0.00000000       0.00000000       0.00000000       0.00000000       0.00000000    -417.67285156
Sc       0.00000000       0.00000000       0.76787879       0.00000000       0.00000000     417.67285156
2
Properties=species:S:1:pos:R:3:forces:R:3 energy=223.45633112194264 pbc="F F F"
Sc       0.00000000       0.00000000       0.00000000       0.00000000       0.00000000    -637.95947266
Sc       0.00000000       0.00000000       0.82666667       0.00000000       0.00000000     637.95947266
2
Properties=species:S:1:pos:R:3:forces:R:3 energy=181.42854512365344 pbc="F F F"
Sc       0.00000000       0.00000000       0.00000000       0.00000000       0.00000000    -768.08068848
Sc       0.00000000       0.00000000       0.88545455       0.00000000       0.00000000     768.08068848
2
Properties=species:S:1:pos:R:3:forces:R:3 energy=136.75787592595327 pbc="F F F"
Sc       0.00000000       0.00000000       0.00000000       0.00000000       0.00000000    -713.63226318
Sc       0.00000000       0.00000000       0.94424242       0.00000000       0.00000000     713.63226318
2
Properties=species:S:1:pos:R:3:forces:R:3 energy=100.08751203391508 pbc="F F F"
Sc       0.00000000       0.00000000       0.00000000       0.00000000       0.00000000    -531.91180420
Sc       0.00000000       0.00000000       1.00303030       0.00000000       0.00000000     531.91180420
2
Properties=species:S:1:pos:R:3:forces:R:3 energy=75.11751910784913 pbc="F F F"
Sc       0.00000000       0.00000000       0.00000000       0.00000000       0.00000000    -340.20346069
Sc       0.00000000       0.00000000       1.06181818       0.00000000       0.00000000     340.20346069
2
Properties=species:S:1:pos:R:3:forces:R:3 energy=57.62847579905056 pbc="F F F"
Sc       0.00000000       0.00000000       0.00000000       0.00000000       0.00000000    -267.60183716
Sc       0.00000000       0.00000000       1.12060606       0.00000000       0.00000000     267.60183716
2
Properties=species:S:1:pos:R:3:forces:R:3 energy=43.037107323231574 pbc="F F F"
Sc       0.00000000       0.00000000       0.00000000       0.00000000       0.00000000    -228.80924988
Sc       0.00000000       0.00000000       1.17939394       0.00000000       0.00000000     228.80924988
2
Properties=species:S:1:pos:R:3:forces:R:3 energy=30.94011251107058 pbc="F F F"
Sc       0.00000000       0.00000000       0.00000000       0.00000000       0.00000000    -181.10116577
Sc       0.00000000       0.00000000       1.23818182       0.00000000       0.00000000     181.10116577
2
Properties=species:S:1:pos:R:3:forces:R:3 energy=21.70915357215225 pbc="F F F"
Sc       0.00000000       0.00000000       0.00000000       0.00000000       0.00000000    -135.02267456
Sc       0.00000000       0.00000000       1.29696970       0.00000000       0.00000000     135.02267456
2
Properties=species:S:1:pos:R:3:forces:R:3 energy=14.782847354135754 pbc="F F F"
Sc       0.00000000       0.00000000       0.00000000       0.00000000       0.00000000    -102.44944763
Sc       0.00000000       0.00000000       1.35575758       0.00000000       0.00000000     102.44944763
2
Properties=species:S:1:pos:R:3:forces:R:3 energy=9.538025973088864 pbc="F F F"
Sc       0.00000000       0.00000000       0.00000000       0.00000000       0.00000000     -76.67893219
Sc       0.00000000       0.00000000       1.41454545       0.00000000       0.00000000      76.67893219
2
Properties=species:S:1:pos:R:3:forces:R:3 energy=5.6675730409049345 pbc="F F F"
Sc       0.00000000       0.00000000       0.00000000       0.00000000       0.00000000     -56.07582855
Sc       0.00000000       0.00000000       1.47333333       0.00000000       0.00000000      56.07582855
2
Properties=species:S:1:pos:R:3:forces:R:3 energy=2.8110064715833274 pbc="F F F"
Sc       0.00000000       0.00000000       0.00000000       0.00000000       0.00000000     -42.14027786
Sc       0.00000000       0.00000000       1.53212121       0.00000000       0.00000000      42.14027786
2
Properties=species:S:1:pos:R:3:forces:R:3 energy=0.619420399162609 pbc="F F F"
Sc       0.00000000       0.00000000       0.00000000       0.00000000       0.00000000     -32.97398376
Sc       0.00000000       0.00000000       1.59090909       0.00000000       0.00000000      32.97398376
2
Properties=species:S:1:pos:R:3:forces:R:3 energy=-1.1110135753539307 pbc="F F F"
Sc       0.00000000       0.00000000       0.00000000       0.00000000       0.00000000     -26.16128349
Sc       0.00000000       0.00000000       1.64969697       0.00000000       0.00000000      26.16128349
2
Properties=species:S:1:pos:R:3:forces:R:3 energy=-2.4802369638858313 pbc="F F F"
Sc       0.00000000       0.00000000       0.00000000       0.00000000       0.00000000     -20.58125305
Sc       0.00000000       0.00000000       1.70848485       0.00000000       0.00000000      20.58125305
2
Properties=species:S:1:pos:R:3:forces:R:3 energy=-3.547318488256269 pbc="F F F"
Sc       0.00000000       0.00000000       0.00000000       0.00000000       0.00000000     -15.84938526
Sc       0.00000000       0.00000000       1.76727273       0.00000000       0.00000000      15.84938526
2
Properties=species:S:1:pos:R:3:forces:R:3 energy=-4.358095961953804 pbc="F F F"
Sc       0.00000000       0.00000000       0.00000000       0.00000000       0.00000000     -11.85117912
Sc       0.00000000       0.00000000       1.82606061       0.00000000       0.00000000      11.85117912
2
Properties=species:S:1:pos:R:3:forces:R:3 energy=-4.954047816118436 pbc="F F F"
Sc       0.00000000       0.00000000       0.00000000       0.00000000       0.00000000      -8.53304482
Sc       0.00000000       0.00000000       1.88484848       0.00000000       0.00000000       8.53304482
2
Properties=species:S:1:pos:R:3:forces:R:3 energy=-5.37408823938677 pbc="F F F"
Sc       0.00000000       0.00000000       0.00000000       0.00000000       0.00000000      -5.86516428
Sc       0.00000000       0.00000000       1.94363636       0.00000000       0.00000000       5.86516428
2
Properties=species:S:1:pos:R:3:forces:R:3 energy=-5.656455064900366 pbc="F F F"
Sc       0.00000000       0.00000000       0.00000000       0.00000000       0.00000000      -3.84971452
Sc       0.00000000       0.00000000       2.00242424       0.00000000       0.00000000       3.84971452
2
Properties=species:S:1:pos:R:3:forces:R:3 energy=-5.839075383196923 pbc="F F F"
Sc       0.00000000       0.00000000       0.00000000       0.00000000       0.00000000      -2.46216726
Sc       0.00000000       0.00000000       2.06121212       0.00000000       0.00000000       2.46216726
2
Properties=species:S:1:pos:R:3:forces:R:3 energy=-5.956441053227942 pbc="F F F"
Sc       0.00000000       0.00000000       0.00000000       0.00000000       0.00000000      -1.60827971
Sc       0.00000000       0.00000000       2.12000000       0.00000000       0.00000000       1.60827971
2
Properties=species:S:1:pos:R:3:forces:R:3 energy=-6.035724854201698 pbc="F F F"
Sc       0.00000000       0.00000000       0.00000000       0.00000000       0.00000000      -1.13980603
Sc       0.00000000       0.00000000       2.17878788       0.00000000       0.00000000       1.13980603
2
Properties=species:S:1:pos:R:3:forces:R:3 energy=-6.094944396267247 pbc="F F F"
Sc       0.00000000       0.00000000       0.00000000       0.00000000       0.00000000      -0.90143895
Sc       0.00000000       0.00000000       2.23757576       0.00000000       0.00000000       0.90143895
2
Properties=species:S:1:pos:R:3:forces:R:3 energy=-6.143702014896837 pbc="F F F"
Sc       0.00000000       0.00000000       0.00000000       0.00000000       0.00000000      -0.76601917
Sc       0.00000000       0.00000000       2.29636364       0.00000000       0.00000000       0.76601917
2
Properties=species:S:1:pos:R:3:forces:R:3 energy=-6.185315488225169 pbc="F F F"
Sc       0.00000000       0.00000000       0.00000000       0.00000000       0.00000000      -0.64765447
Sc       0.00000000       0.00000000       2.35515152       0.00000000       0.00000000       0.64765447
2
Properties=species:S:1:pos:R:3:forces:R:3 energy=-6.219287696909125 pbc="F F F"
Sc       0.00000000       0.00000000       0.00000000       0.00000000       0.00000000      -0.50171459
Sc       0.00000000       0.00000000       2.41393939       0.00000000       0.00000000       0.50171459
2
Properties=species:S:1:pos:R:3:forces:R:3 energy=-6.243528802174713 pbc="F F F"
Sc       0.00000000       0.00000000       0.00000000       0.00000000       0.00000000      -0.31683278
Sc       0.00000000       0.00000000       2.47272727       0.00000000       0.00000000       0.31683278
2
Properties=species:S:1:pos:R:3:forces:R:3 energy=-6.255963908983962 pbc="F F F"
Sc       0.00000000       0.00000000       0.00000000       0.00000000       0.00000000      -0.10283906
Sc       0.00000000       0.00000000       2.53151515       0.00000000       0.00000000       0.10283906
2
Properties=species:S:1:pos:R:3:forces:R:3 energy=-6.25541050912306 pbc="F F F"
Sc       0.00000000       0.00000000       0.00000000       0.00000000       0.00000000       0.12190088
Sc       0.00000000       0.00000000       2.59030303       0.00000000       0.00000000      -0.12190088
2
Properties=species:S:1:pos:R:3:forces:R:3 energy=-6.2417629718739684 pbc="F F F"
Sc       0.00000000       0.00000000       0.00000000       0.00000000       0.00000000       0.34011507
Sc       0.00000000       0.00000000       2.64909091       0.00000000       0.00000000      -0.34011507
2
Properties=species:S:1:pos:R:3:forces:R:3 energy=-6.2157892420518035 pbc="F F F"
Sc       0.00000000       0.00000000       0.00000000       0.00000000       0.00000000       0.53969955
Sc       0.00000000       0.00000000       2.70787879       0.00000000       0.00000000      -0.53969955
2
Properties=species:S:1:pos:R:3:forces:R:3 energy=-6.178821129696784 pbc="F F F"
Sc       0.00000000       0.00000000       0.00000000       0.00000000       0.00000000       0.71314651
Sc       0.00000000       0.00000000       2.76666667       0.00000000       0.00000000      -0.71314651
2
Properties=species:S:1:pos:R:3:forces:R:3 energy=-6.132553919405503 pbc="F F F"
Sc       0.00000000       0.00000000       0.00000000       0.00000000       0.00000000       0.85527211
Sc       0.00000000       0.00000000       2.82545455       0.00000000       0.00000000      -0.85527211
2
Properties=species:S:1:pos:R:3:forces:R:3 energy=-6.078963061265045 pbc="F F F"
Sc       0.00000000       0.00000000       0.00000000       0.00000000       0.00000000       0.96158081
Sc       0.00000000       0.00000000       2.88424242       0.00000000       0.00000000      -0.96158081
2
Properties=species:S:1:pos:R:3:forces:R:3 energy=-6.020279298595274 pbc="F F F"
Sc       0.00000000       0.00000000       0.00000000       0.00000000       0.00000000       1.02795970
Sc       0.00000000       0.00000000       2.94303030       0.00000000       0.00000000      -1.02795970
2
Properties=species:S:1:pos:R:3:forces:R:3 energy=-5.95893680431327 pbc="F F F"
Sc       0.00000000       0.00000000       0.00000000       0.00000000       0.00000000       1.05182779
Sc       0.00000000       0.00000000       3.00181818       0.00000000       0.00000000      -1.05182779
2
Properties=species:S:1:pos:R:3:forces:R:3 energy=-5.8974057802048305 pbc="F F F"
Sc       0.00000000       0.00000000       0.00000000       0.00000000       0.00000000       1.03546333
Sc       0.00000000       0.00000000       3.06060606       0.00000000       0.00000000      -1.03546333
2
Properties=species:S:1:pos:R:3:forces:R:3 energy=-5.837714841552074 pbc="F F F"
Sc       0.00000000       0.00000000       0.00000000       0.00000000       0.00000000       0.99309129
Sc       0.00000000       0.00000000       3.11939394       0.00000000       0.00000000      -0.99309129
2
Properties=species:S:1:pos:R:3:forces:R:3 energy=-5.780525553077415 pbc="F F F"
Sc       0.00000000       0.00000000       0.00000000       0.00000000       0.00000000       0.95686030
Sc       0.00000000       0.00000000       3.17818182       0.00000000       0.00000000      -0.95686030
2
Properties=species:S:1:pos:R:3:forces:R:3 energy=-5.724401362282921 pbc="F F F"
Sc       0.00000000       0.00000000       0.00000000       0.00000000       0.00000000       0.96047771
Sc       0.00000000       0.00000000       3.23696970       0.00000000       0.00000000      -0.96047771
2
Properties=species:S:1:pos:R:3:forces:R:3 energy=-5.666852936729331 pbc="F F F"
Sc       0.00000000       0.00000000       0.00000000       0.00000000       0.00000000       1.00068772
Sc       0.00000000       0.00000000       3.29575758       0.00000000       0.00000000      -1.00068772
2
Properties=species:S:1:pos:R:3:forces:R:3 energy=-5.606753813233348 pbc="F F F"
Sc       0.00000000       0.00000000       0.00000000       0.00000000       0.00000000       1.04111326
Sc       0.00000000       0.00000000       3.35454545       0.00000000       0.00000000      -1.04111326
2
Properties=species:S:1:pos:R:3:forces:R:3 energy=-5.5449052535650045 pbc="F F F"
Sc       0.00000000       0.00000000       0.00000000       0.00000000       0.00000000       1.05893397
Sc       0.00000000       0.00000000       3.41333333       0.00000000       0.00000000      -1.05893397
2
Properties=species:S:1:pos:R:3:forces:R:3 energy=-5.482646896578598 pbc="F F F"
Sc       0.00000000       0.00000000       0.00000000       0.00000000       0.00000000       1.05664146
Sc       0.00000000       0.00000000       3.47212121       0.00000000       0.00000000      -1.05664146
2
Properties=species:S:1:pos:R:3:forces:R:3 energy=-5.420873164846674 pbc="F F F"
Sc       0.00000000       0.00000000       0.00000000       0.00000000       0.00000000       1.04384279
Sc       0.00000000       0.00000000       3.53090909       0.00000000       0.00000000      -1.04384279
2
Properties=species:S:1:pos:R:3:forces:R:3 energy=-5.360002758395082 pbc="F F F"
Sc       0.00000000       0.00000000       0.00000000       0.00000000       0.00000000       1.02647018
Sc       0.00000000       0.00000000       3.58969697       0.00000000       0.00000000      -1.02647018
2
Properties=species:S:1:pos:R:3:forces:R:3 energy=-5.300238039046766 pbc="F F F"
Sc       0.00000000       0.00000000       0.00000000       0.00000000       0.00000000       1.00629413
Sc       0.00000000       0.00000000       3.64848485       0.00000000       0.00000000      -1.00629413
2
Properties=species:S:1:pos:R:3:forces:R:3 energy=-5.241747145443751 pbc="F F F"
Sc       0.00000000       0.00000000       0.00000000       0.00000000       0.00000000       0.98304868
Sc       0.00000000       0.00000000       3.70727273       0.00000000       0.00000000      -0.98304868
2
Properties=species:S:1:pos:R:3:forces:R:3 energy=-5.1847299285477 pbc="F F F"
Sc       0.00000000       0.00000000       0.00000000       0.00000000       0.00000000       0.95601702
Sc       0.00000000       0.00000000       3.76606061       0.00000000       0.00000000      -0.95601702
2
Properties=species:S:1:pos:R:3:forces:R:3 energy=-5.129424062724694 pbc="F F F"
Sc       0.00000000       0.00000000       0.00000000       0.00000000       0.00000000       0.92485279
Sc       0.00000000       0.00000000       3.82484848       0.00000000       0.00000000      -0.92485279
2
Properties=species:S:1:pos:R:3:forces:R:3 energy=-5.076065715096875 pbc="F F F"
Sc       0.00000000       0.00000000       0.00000000       0.00000000       0.00000000       0.88983405
Sc       0.00000000       0.00000000       3.88363636       0.00000000       0.00000000      -0.88983405
2
Properties=species:S:1:pos:R:3:forces:R:3 energy=-5.024859757587848 pbc="F F F"
Sc       0.00000000       0.00000000       0.00000000       0.00000000       0.00000000       0.85181379
Sc       0.00000000       0.00000000       3.94242424       0.00000000       0.00000000      -0.85181379
2
Properties=species:S:1:pos:R:3:forces:R:3 energy=-4.975949301373842 pbc="F F F"
Sc       0.00000000       0.00000000       0.00000000       0.00000000       0.00000000       0.81199038
Sc       0.00000000       0.00000000       4.00121212       0.00000000       0.00000000      -0.81199038
2
Properties=species:S:1:pos:R:3:forces:R:3 energy=-4.929400392081312 pbc="F F F"
Sc       0.00000000       0.00000000       0.00000000       0.00000000       0.00000000       0.77163517
Sc       0.00000000       0.00000000       4.06000000       0.00000000       0.00000000      -0.77163517
2
Properties=species:S:1:pos:R:3:forces:R:3 energy=-4.885211424489013 pbc="F F F"
Sc       0.00000000       0.00000000       0.00000000       0.00000000       0.00000000       0.73187953
Sc       0.00000000       0.00000000       4.11878788       0.00000000       0.00000000      -0.73187953
2
Properties=species:S:1:pos:R:3:forces:R:3 energy=-4.843319856262091 pbc="F F F"
Sc       0.00000000       0.00000000       0.00000000       0.00000000       0.00000000       0.69357812
Sc       0.00000000       0.00000000       4.17757576       0.00000000       0.00000000      -0.69357812
2
Properties=species:S:1:pos:R:3:forces:R:3 energy=-4.803623264814767 pbc="F F F"
Sc       0.00000000       0.00000000       0.00000000       0.00000000       0.00000000       0.65727353
Sc       0.00000000       0.00000000       4.23636364       0.00000000       0.00000000      -0.65727353
2
Properties=species:S:1:pos:R:3:forces:R:3 energy=-4.765995547102438 pbc="F F F"
Sc       0.00000000       0.00000000       0.00000000       0.00000000       0.00000000       0.62321836
Sc       0.00000000       0.00000000       4.29515152       0.00000000       0.00000000      -0.62321836
2
Properties=species:S:1:pos:R:3:forces:R:3 energy=-4.730303672278644 pbc="F F F"
Sc       0.00000000       0.00000000       0.00000000       0.00000000       0.00000000       0.59145498
Sc       0.00000000       0.00000000       4.35393939       0.00000000       0.00000000      -0.59145498
2
Properties=species:S:1:pos:R:3:forces:R:3 energy=-4.6964131629864925 pbc="F F F"
Sc       0.00000000       0.00000000       0.00000000       0.00000000       0.00000000       0.56186652
Sc       0.00000000       0.00000000       4.41272727       0.00000000       0.00000000      -0.56186652
2
Properties=species:S:1:pos:R:3:forces:R:3 energy=-4.664202527186288 pbc="F F F"
Sc       0.00000000       0.00000000       0.00000000       0.00000000       0.00000000       0.53425598
Sc       0.00000000       0.00000000       4.47151515       0.00000000       0.00000000      -0.53425598
2
Properties=species:S:1:pos:R:3:forces:R:3 energy=-4.63356342454612 pbc="F F F"
Sc       0.00000000       0.00000000       0.00000000       0.00000000       0.00000000       0.50836080
Sc       0.00000000       0.00000000       4.53030303       0.00000000       0.00000000      -0.50836080
2
Properties=species:S:1:pos:R:3:forces:R:3 energy=-4.604404386104462 pbc="F F F"
Sc       0.00000000       0.00000000       0.00000000       0.00000000       0.00000000       0.48386338
Sc       0.00000000       0.00000000       4.58909091       0.00000000       0.00000000      -0.48386338
2
Properties=species:S:1:pos:R:3:forces:R:3 energy=-4.576653141435167 pbc="F F F"
Sc       0.00000000       0.00000000       0.00000000       0.00000000       0.00000000       0.46038410
Sc       0.00000000       0.00000000       4.64787879       0.00000000       0.00000000      -0.46038410
2
Properties=species:S:1:pos:R:3:forces:R:3 energy=-4.550262945907243 pbc="F F F"
Sc       0.00000000       0.00000000       0.00000000       0.00000000       0.00000000       0.43747491
Sc       0.00000000       0.00000000       4.70666667       0.00000000       0.00000000      -0.43747491
2
Properties=species:S:1:pos:R:3:forces:R:3 energy=-4.525215289652343 pbc="F F F"
Sc       0.00000000       0.00000000       0.00000000       0.00000000       0.00000000       0.41465139
Sc       0.00000000       0.00000000       4.76545455       0.00000000       0.00000000      -0.41465139
2
Properties=species:S:1:pos:R:3:forces:R:3 energy=-4.501516019511053 pbc="F F F"
Sc       0.00000000       0.00000000       0.00000000       0.00000000       0.00000000       0.39147788
Sc       0.00000000       0.00000000       4.82424242       0.00000000       0.00000000      -0.39147788
2
Properties=species:S:1:pos:R:3:forces:R:3 energy=-4.479199771615326 pbc="F F F"
Sc       0.00000000       0.00000000       0.00000000       0.00000000       0.00000000       0.36770859
Sc       0.00000000       0.00000000       4.88303030       0.00000000       0.00000000      -0.36770859
2
Properties=species:S:1:pos:R:3:forces:R:3 energy=-4.458293586044643 pbc="F F F"
Sc       0.00000000       0.00000000       0.00000000       0.00000000       0.00000000       0.34343109
Sc       0.00000000       0.00000000       4.94181818       0.00000000       0.00000000      -0.34343109
2
Properties=species:S:1:pos:R:3:forces:R:3 energy=-4.438819145291985 pbc="F F F"
Sc       0.00000000       0.00000000       0.00000000       0.00000000       0.00000000       0.31920093
Sc       0.00000000       0.00000000       5.00060606       0.00000000       0.00000000      -0.31920093
2
Properties=species:S:1:pos:R:3:forces:R:3 energy=-4.420742649341417 pbc="F F F"
Sc       0.00000000       0.00000000       0.00000000       0.00000000       0.00000000       0.29599756
Sc       0.00000000       0.00000000       5.05939394       0.00000000       0.00000000      -0.29599756
2
Properties=species:S:1:pos:R:3:forces:R:3 energy=-4.403973621239296 pbc="F F F"
Sc       0.00000000       0.00000000       0.00000000       0.00000000       0.00000000       0.27498287
Sc       0.00000000       0.00000000       5.11818182       0.00000000       0.00000000      -0.27498287
2
Properties=species:S:1:pos:R:3:forces:R:3 energy=-4.388353927168341 pbc="F F F"
Sc       0.00000000       0.00000000       0.00000000       0.00000000       0.00000000       0.25691503
Sc       0.00000000       0.00000000       5.17696970       0.00000000       0.00000000      -0.25691503
2
Properties=species:S:1:pos:R:3:forces:R:3 energy=-4.37371687891267 pbc="F F F"
Sc       0.00000000       0.00000000       0.00000000       0.00000000       0.00000000       0.24134761
Sc       0.00000000       0.00000000       5.23575758       0.00000000       0.00000000      -0.24134761
2
Properties=species:S:1:pos:R:3:forces:R:3 energy=-4.3599743873518015 pbc="F F F"
Sc       0.00000000       0.00000000       0.00000000       0.00000000       0.00000000       0.22589995
Sc       0.00000000       0.00000000       5.29454545       0.00000000       0.00000000      -0.22589995
2
Properties=species:S:1:pos:R:3:forces:R:3 energy=-4.347218645984774 pbc="F F F"
Sc       0.00000000       0.00000000       0.00000000       0.00000000       0.00000000       0.20739302
Sc       0.00000000       0.00000000       5.35333333       0.00000000       0.00000000      -0.20739302
2
Properties=species:S:1:pos:R:3:forces:R:3 energy=-4.335621439094202 pbc="F F F"
Sc       0.00000000       0.00000000       0.00000000       0.00000000       0.00000000       0.18773639
Sc       0.00000000       0.00000000       5.41212121       0.00000000       0.00000000      -0.18773639
2
Properties=species:S:1:pos:R:3:forces:R:3 energy=-4.324949706871774 pbc="F F F"
Sc       0.00000000       0.00000000       0.00000000       0.00000000       0.00000000       0.17772236
Sc       0.00000000       0.00000000       5.47090909       0.00000000       0.00000000      -0.17772236
2
Properties=species:S:1:pos:R:3:forces:R:3 energy=-4.314524174627077 pbc="F F F"
Sc       0.00000000       0.00000000       0.00000000       0.00000000       0.00000000       0.17688482
Sc       0.00000000       0.00000000       5.52969697       0.00000000       0.00000000      -0.17688482
2
Properties=species:S:1:pos:R:3:forces:R:3 energy=-4.304373857910989 pbc="F F F"
Sc       0.00000000       0.00000000       0.00000000       0.00000000       0.00000000       0.16574045
Sc       0.00000000       0.00000000       5.58848485       0.00000000       0.00000000      -0.16574045
2
Properties=species:S:1:pos:R:3:forces:R:3 energy=-4.295256528499613 pbc="F F F"
Sc       0.00000000       0.00000000       0.00000000       0.00000000       0.00000000       0.14439675
Sc       0.00000000       0.00000000       5.64727273       0.00000000       0.00000000      -0.14439675
2
Properties=species:S:1:pos:R:3:forces:R:3 energy=-4.2871606472664885 pbc="F F F"
Sc       0.00000000       0.00000000       0.00000000       0.00000000       0.00000000       0.13508186
Sc       0.00000000       0.00000000       5.70606061       0.00000000       0.00000000      -0.13508186
2
Properties=species:S:1:pos:R:3:forces:R:3 energy=-4.278831969422623 pbc="F F F"
Sc       0.00000000       0.00000000       0.00000000       0.00000000       0.00000000       0.15027858
Sc       0.00000000       0.00000000       5.76484848       0.00000000       0.00000000      -0.15027858
2
Properties=species:S:1:pos:R:3:forces:R:3 energy=-4.2697824943100535 pbc="F F F"
Sc       0.00000000       0.00000000       0.00000000       0.00000000       0.00000000       0.15057975
Sc       0.00000000       0.00000000       5.82363636       0.00000000       0.00000000      -0.15057975
2
Properties=species:S:1:pos:R:3:forces:R:3 energy=-4.262112968698713 pbc="F F F"
Sc       0.00000000       0.00000000       0.00000000       0.00000000       0.00000000       0.10508314
Sc       0.00000000       0.00000000       5.88242424       0.00000000       0.00000000      -0.10508314
2
Properties=species:S:1:pos:R:3:forces:R:3 energy=-4.2576320172424325 pbc="F F F"
Sc       0.00000000       0.00000000       0.00000000       0.00000000       0.00000000       0.04936071
Sc       0.00000000       0.00000000       5.94121212       0.00000000       0.00000000      -0.04936071
2
Properties=species:S:1:pos:R:3:forces:R:3 energy=-4.255652643124841 pbc="F F F"
Sc       0.00000000       0.00000000       0.00000000       0.00000000       0.00000000       0.02544594
Sc       0.00000000       0.00000000       6.00000000       0.00000000       0.00000000      -0.02544594
