2
Properties=species:S:1:pos:R:3:forces:R:3 energy=30015.05289155323 pbc="F F F"
Sr       0.00000000       0.00000000       0.00000000       0.00000000       0.00000000 -638815.31250000
Sr       0.00000000       0.00000000       0.10000000       0.00000000       0.00000000  638815.31250000
2
Properties=species:S:1:pos:R:3:forces:R:3 energy=10962.099766553229 pbc="F F F"
Sr       0.00000000       0.00000000       0.00000000       0.00000000       0.00000000 -144408.15625000
Sr       0.00000000       0.00000000       0.15959596       0.00000000       0.00000000  144408.15625000
2
Properties=species:S:1:pos:R:3:forces:R:3 energy=5915.481602490729 pbc="F F F"
Sr       0.00000000       0.00000000       0.00000000       0.00000000       0.00000000  -46701.41796875
Sr       0.00000000       0.00000000       0.21919192       0.00000000       0.00000000   46701.41796875
2
Properties=species:S:1:pos:R:3:forces:R:3 energy=4112.280918896979 pbc="F F F"
Sr       0.00000000       0.00000000       0.00000000       0.00000000       0.00000000  -18937.28710938
Sr       0.00000000       0.00000000       0.27878788       0.00000000       0.00000000   18937.28710938
2
Properties=species:S:1:pos:R:3:forces:R:3 energy=3312.7938583501036 pbc="F F F"
Sr       0.00000000       0.00000000       0.00000000       0.00000000       0.00000000   -9501.90136719
Sr       0.00000000       0.00000000       0.33838384       0.00000000       0.00000000    9501.90136719
2
Properties=species:S:1:pos:R:3:forces:R:3 energy=2859.5814560063536 pbc="F F F"
Sr       0.00000000       0.00000000       0.00000000       0.00000000       0.00000000   -6334.17724609
Sr       0.00000000       0.00000000       0.39797980       0.00000000       0.00000000    6334.17724609
2
Properties=species:S:1:pos:R:3:forces:R:3 energy=2507.35611422215 pbc="F F F"
Sr       0.00000000       0.00000000       0.00000000       0.00000000       0.00000000   -5768.41992188
Sr       0.00000000       0.00000000       0.45757576       0.00000000       0.00000000    5768.41992188
2
Properties=species:S:1:pos:R:3:forces:R:3 energy=2149.4462021191107 pbc="F F F"
Sr       0.00000000       0.00000000       0.00000000       0.00000000       0.00000000   -6357.65136719
Sr       0.00000000       0.00000000       0.51717172       0.00000000       0.00000000    6357.65136719
2
Properties=species:S:1:pos:R:3:forces:R:3 energy=1743.17923436468 pbc="F F F"
Sr       0.00000000       0.00000000       0.00000000       0.00000000       0.00000000   -7272.20507812
Sr       0.00000000       0.00000000       0.57676768       0.00000000       0.00000000    7272.20507812
2
Properties=species:S:1:pos:R:3:forces:R:3 energy=1288.7643173978352 pbc="F F F"
Sr       0.00000000       0.00000000       0.00000000       0.00000000       0.00000000   -7892.28076172
Sr       0.00000000       0.00000000       0.63636364       0.00000000       0.00000000    7892.28076172
2
Properties=species:S:1:pos:R:3:forces:R:3 energy=857.5115098313328 pbc="F F F"
Sr       0.00000000       0.00000000       0.00000000       0.00000000       0.00000000   -6850.81933594
Sr       0.00000000       0.00000000       0.69595960       0.00000000       0.00000000    6850.81933594
2
Properties=species:S:1:pos:R:3:forces:R:3 energy=483.92514516126676 pbc="F F F"
Sr       0.00000000       0.00000000       0.00000000       0.00000000       0.00000000   -5582.88330078
Sr       0.00000000       0.00000000       0.75555556       0.00000000       0.00000000    5582.88330078
2
Properties=species:S:1:pos:R:3:forces:R:3 energy=293.37143433780835 pbc="F F F"
Sr       0.00000000       0.00000000       0.00000000       0.00000000       0.00000000   -1862.87438965
Sr       0.00000000       0.00000000       0.81515152       0.00000000       0.00000000    1862.87438965
2
Properties=species:S:1:pos:R:3:forces:R:3 energy=203.59419755138725 pbc="F F F"
Sr       0.00000000       0.00000000       0.00000000       0.00000000       0.00000000   -1361.27209473
Sr       0.00000000       0.00000000       0.87474747       0.00000000       0.00000000    1361.27209473
2
Properties=species:S:1:pos:R:3:forces:R:3 energy=138.87933878335267 pbc="F F F"
Sr       0.00000000       0.00000000       0.00000000       0.00000000       0.00000000    -756.68737793
Sr       0.00000000       0.00000000       0.93434343       0.00000000       0.00000000     756.68737793
2
Properties=species:S:1:pos:R:3:forces:R:3 energy=108.67548167825989 pbc="F F F"
Sr       0.00000000       0.00000000       0.00000000       0.00000000       0.00000000    -304.79208374
Sr       0.00000000       0.00000000       0.99393939       0.00000000       0.00000000     304.79208374
2
Properties=species:S:1:pos:R:3:forces:R:3 energy=99.38657219063869 pbc="F F F"
Sr       0.00000000       0.00000000       0.00000000       0.00000000       0.00000000     -20.91819382
Sr       0.00000000       0.00000000       1.05353535       0.00000000       0.00000000      20.91819382
2
Properties=species:S:1:pos:R:3:forces:R:3 energy=102.54448597519013 pbc="F F F"
Sr       0.00000000       0.00000000       0.00000000       0.00000000       0.00000000      41.93741608
Sr       0.00000000       0.00000000       1.11313131       0.00000000       0.00000000     -41.93741608
2
Properties=species:S:1:pos:R:3:forces:R:3 energy=96.75734683655367 pbc="F F F"
Sr       0.00000000       0.00000000       0.00000000       0.00000000       0.00000000    -156.87084961
Sr       0.00000000       0.00000000       1.17272727       0.00000000       0.00000000     156.87084961
2
Properties=species:S:1:pos:R:3:forces:R:3 energy=86.1455466711176 pbc="F F F"
Sr       0.00000000       0.00000000       0.00000000       0.00000000       0.00000000    -194.51876831
Sr       0.00000000       0.00000000       1.23232323       0.00000000       0.00000000     194.51876831
2
Properties=species:S:1:pos:R:3:forces:R:3 energy=74.080370020766 pbc="F F F"
Sr       0.00000000       0.00000000       0.00000000       0.00000000       0.00000000    -207.17100525
Sr       0.00000000       0.00000000       1.29191919       0.00000000       0.00000000     207.17100525
2
Properties=species:S:1:pos:R:3:forces:R:3 energy=61.85116172378165 pbc="F F F"
Sr       0.00000000       0.00000000       0.00000000       0.00000000       0.00000000    -199.85820007
Sr       0.00000000       0.00000000       1.35151515       0.00000000       0.00000000     199.85820007
2
Properties=species:S:1:pos:R:3:forces:R:3 energy=50.59506022289154 pbc="F F F"
Sr       0.00000000       0.00000000       0.00000000       0.00000000       0.00000000    -175.95010376
Sr       0.00000000       0.00000000       1.41111111       0.00000000       0.00000000     175.95010376
2
Properties=species:S:1:pos:R:3:forces:R:3 energy=40.98415803186752 pbc="F F F"
Sr       0.00000000       0.00000000       0.00000000       0.00000000       0.00000000    -146.61741638
Sr       0.00000000       0.00000000       1.47070707       0.00000000       0.00000000     146.61741638
2
Properties=species:S:1:pos:R:3:forces:R:3 energy=33.060550461748655 pbc="F F F"
Sr       0.00000000       0.00000000       0.00000000       0.00000000       0.00000000    -119.96054840
Sr       0.00000000       0.00000000       1.53030303       0.00000000       0.00000000     119.96054840
2
Properties=species:S:1:pos:R:3:forces:R:3 energy=26.612544772168437 pbc="F F F"
Sr       0.00000000       0.00000000       0.00000000       0.00000000       0.00000000     -96.98259735
Sr       0.00000000       0.00000000       1.58989899       0.00000000       0.00000000      96.98259735
2
Properties=species:S:1:pos:R:3:forces:R:3 energy=21.434700593942093 pbc="F F F"
Sr       0.00000000       0.00000000       0.00000000       0.00000000       0.00000000     -77.37684631
Sr       0.00000000       0.00000000       1.64949495       0.00000000       0.00000000      77.37684631
2
Properties=species:S:1:pos:R:3:forces:R:3 energy=17.31572961430536 pbc="F F F"
Sr       0.00000000       0.00000000       0.00000000       0.00000000       0.00000000     -61.46607590
Sr       0.00000000       0.00000000       1.70909091       0.00000000       0.00000000      61.46607590
2
Properties=species:S:1:pos:R:3:forces:R:3 energy=14.04176575148802 pbc="F F F"
Sr       0.00000000       0.00000000       0.00000000       0.00000000       0.00000000     -48.90013885
Sr       0.00000000       0.00000000       1.76868687       0.00000000       0.00000000      48.90013885
2
Properties=species:S:1:pos:R:3:forces:R:3 energy=11.43485738281526 pbc="F F F"
Sr       0.00000000       0.00000000       0.00000000       0.00000000       0.00000000     -38.98411942
Sr       0.00000000       0.00000000       1.82828283       0.00000000       0.00000000      38.98411942
2
Properties=species:S:1:pos:R:3:forces:R:3 energy=9.351492010540197 pbc="F F F"
Sr       0.00000000       0.00000000       0.00000000       0.00000000       0.00000000     -31.26455116
Sr       0.00000000       0.00000000       1.88787879       0.00000000       0.00000000      31.26455116
2
Properties=species:S:1:pos:R:3:forces:R:3 energy=7.673837176728397 pbc="F F F"
Sr       0.00000000       0.00000000       0.00000000       0.00000000       0.00000000     -25.28024101
Sr       0.00000000       0.00000000       1.94747475       0.00000000       0.00000000      25.28024101
2
Properties=species:S:1:pos:R:3:forces:R:3 energy=6.314400700510957 pbc="F F F"
Sr       0.00000000       0.00000000       0.00000000       0.00000000       0.00000000     -20.50488663
Sr       0.00000000       0.00000000       2.00707071       0.00000000       0.00000000      20.50488663
2
Properties=species:S:1:pos:R:3:forces:R:3 energy=5.213371255882883 pbc="F F F"
Sr       0.00000000       0.00000000       0.00000000       0.00000000       0.00000000     -16.56475067
Sr       0.00000000       0.00000000       2.06666667       0.00000000       0.00000000      16.56475067
2
Properties=species:S:1:pos:R:3:forces:R:3 energy=4.326987467446167 pbc="F F F"
Sr       0.00000000       0.00000000       0.00000000       0.00000000       0.00000000     -13.28397655
Sr       0.00000000       0.00000000       2.12626263       0.00000000       0.00000000      13.28397655
2
Properties=species:S:1:pos:R:3:forces:R:3 energy=3.61838751704955 pbc="F F F"
Sr       0.00000000       0.00000000       0.00000000       0.00000000       0.00000000     -10.58956242
Sr       0.00000000       0.00000000       2.18585859       0.00000000       0.00000000      10.58956242
2
Properties=species:S:1:pos:R:3:forces:R:3 energy=3.0541126616341785 pbc="F F F"
Sr       0.00000000       0.00000000       0.00000000       0.00000000       0.00000000      -8.43311405
Sr       0.00000000       0.00000000       2.24545455       0.00000000       0.00000000       8.43311405
2
Properties=species:S:1:pos:R:3:forces:R:3 energy=2.6033658441513547 pbc="F F F"
Sr       0.00000000       0.00000000       0.00000000       0.00000000       0.00000000      -6.77366924
Sr       0.00000000       0.00000000       2.30505051       0.00000000       0.00000000       6.77366924
2
Properties=species:S:1:pos:R:3:forces:R:3 energy=2.2375358670994503 pbc="F F F"
Sr       0.00000000       0.00000000       0.00000000       0.00000000       0.00000000      -5.57687902
Sr       0.00000000       0.00000000       2.36464646       0.00000000       0.00000000       5.57687902
2
Properties=species:S:1:pos:R:3:forces:R:3 energy=1.9305903506917748 pbc="F F F"
Sr       0.00000000       0.00000000       0.00000000       0.00000000       0.00000000      -4.78389502
Sr       0.00000000       0.00000000       2.42424242       0.00000000       0.00000000       4.78389502
2
Properties=species:S:1:pos:R:3:forces:R:3 energy=1.661377594545715 pbc="F F F"
Sr       0.00000000       0.00000000       0.00000000       0.00000000       0.00000000      -4.29013395
Sr       0.00000000       0.00000000       2.48383838       0.00000000       0.00000000       4.29013395
2
Properties=species:S:1:pos:R:3:forces:R:3 energy=1.4157533220934744 pbc="F F F"
Sr       0.00000000       0.00000000       0.00000000       0.00000000       0.00000000      -3.97279739
Sr       0.00000000       0.00000000       2.54343434       0.00000000       0.00000000       3.97279739
2
Properties=species:S:1:pos:R:3:forces:R:3 energy=1.186310545996307 pbc="F F F"
Sr       0.00000000       0.00000000       0.00000000       0.00000000       0.00000000      -3.73458266
Sr       0.00000000       0.00000000       2.60303030       0.00000000       0.00000000       3.73458266
2
Properties=species:S:1:pos:R:3:forces:R:3 energy=0.9701645835169326 pbc="F F F"
Sr       0.00000000       0.00000000       0.00000000       0.00000000       0.00000000      -3.52052474
Sr       0.00000000       0.00000000       2.66262626       0.00000000       0.00000000       3.52052474
2
Properties=species:S:1:pos:R:3:forces:R:3 energy=0.7666799216853336 pbc="F F F"
Sr       0.00000000       0.00000000       0.00000000       0.00000000       0.00000000      -3.30748630
Sr       0.00000000       0.00000000       2.72222222       0.00000000       0.00000000       3.30748630
2
Properties=species:S:1:pos:R:3:forces:R:3 energy=0.5760671570548582 pbc="F F F"
Sr       0.00000000       0.00000000       0.00000000       0.00000000       0.00000000      -3.08817625
Sr       0.00000000       0.00000000       2.78181818       0.00000000       0.00000000       3.08817625
2
Properties=species:S:1:pos:R:3:forces:R:3 energy=0.3987318783144922 pbc="F F F"
Sr       0.00000000       0.00000000       0.00000000       0.00000000       0.00000000      -2.86212111
Sr       0.00000000       0.00000000       2.84141414       0.00000000       0.00000000       2.86212111
2
Properties=species:S:1:pos:R:3:forces:R:3 energy=0.23499713063969763 pbc="F F F"
Sr       0.00000000       0.00000000       0.00000000       0.00000000       0.00000000      -2.63256264
Sr       0.00000000       0.00000000       2.90101010       0.00000000       0.00000000       2.63256264
2
Properties=species:S:1:pos:R:3:forces:R:3 energy=0.08491605964092468 pbc="F F F"
Sr       0.00000000       0.00000000       0.00000000       0.00000000       0.00000000      -2.40480781
Sr       0.00000000       0.00000000       2.96060606       0.00000000       0.00000000       2.40480781
2
Properties=species:S:1:pos:R:3:forces:R:3 energy=-0.05177734143387917 pbc="F F F"
Sr       0.00000000       0.00000000       0.00000000       0.00000000       0.00000000      -2.18405151
Sr       0.00000000       0.00000000       3.02020202       0.00000000       0.00000000       2.18405151
2
Properties=species:S:1:pos:R:3:forces:R:3 energy=-0.17560902832392566 pbc="F F F"
Sr       0.00000000       0.00000000       0.00000000       0.00000000       0.00000000      -1.97349513
Sr       0.00000000       0.00000000       3.07979798       0.00000000       0.00000000       1.97349513
2
Properties=species:S:1:pos:R:3:forces:R:3 energy=-0.2872191184221623 pbc="F F F"
Sr       0.00000000       0.00000000       0.00000000       0.00000000       0.00000000      -1.77381325
Sr       0.00000000       0.00000000       3.13939394       0.00000000       0.00000000       1.77381325
2
Properties=species:S:1:pos:R:3:forces:R:3 energy=-0.3872313022722932 pbc="F F F"
Sr       0.00000000       0.00000000       0.00000000       0.00000000       0.00000000      -1.58405948
Sr       0.00000000       0.00000000       3.19898990       0.00000000       0.00000000       1.58405948
2
Properties=species:S:1:pos:R:3:forces:R:3 energy=-0.4761975707021661 pbc="F F F"
Sr       0.00000000       0.00000000       0.00000000       0.00000000       0.00000000      -1.40293336
Sr       0.00000000       0.00000000       3.25858586       0.00000000       0.00000000       1.40293336
2
Properties=species:S:1:pos:R:3:forces:R:3 energy=-0.554606348733943 pbc="F F F"
Sr       0.00000000       0.00000000       0.00000000       0.00000000       0.00000000      -1.22973073
Sr       0.00000000       0.00000000       3.31818182       0.00000000       0.00000000       1.22973073
2
Properties=species:S:1:pos:R:3:forces:R:3 energy=-0.6229304519805668 pbc="F F F"
Sr       0.00000000       0.00000000       0.00000000       0.00000000       0.00000000      -1.06455076
Sr       0.00000000       0.00000000       3.37777778       0.00000000       0.00000000       1.06455076
2
Properties=species:S:1:pos:R:3:forces:R:3 energy=-0.6816652568371548 pbc="F F F"
Sr       0.00000000       0.00000000       0.00000000       0.00000000       0.00000000      -0.90807617
Sr       0.00000000       0.00000000       3.43737374       0.00000000       0.00000000       0.90807617
2
Properties=species:S:1:pos:R:3:forces:R:3 energy=-0.7313570819193478 pbc="F F F"
Sr       0.00000000       0.00000000       0.00000000       0.00000000       0.00000000      -0.76122385
Sr       0.00000000       0.00000000       3.49696970       0.00000000       0.00000000       0.76122385
2
Properties=species:S:1:pos:R:3:forces:R:3 energy=-0.7726053084879457 pbc="F F F"
Sr       0.00000000       0.00000000       0.00000000       0.00000000       0.00000000      -0.62483948
Sr       0.00000000       0.00000000       3.55656566       0.00000000       0.00000000       0.62483948
2
Properties=species:S:1:pos:R:3:forces:R:3 energy=-0.806052689314376 pbc="F F F"
Sr       0.00000000       0.00000000       0.00000000       0.00000000       0.00000000      -0.49952719
Sr       0.00000000       0.00000000       3.61616162       0.00000000       0.00000000       0.49952719
2
Properties=species:S:1:pos:R:3:forces:R:3 energy=-0.8323711350967561 pbc="F F F"
Sr       0.00000000       0.00000000       0.00000000       0.00000000       0.00000000      -0.38559163
Sr       0.00000000       0.00000000       3.67575758       0.00000000       0.00000000       0.38559163
2
Properties=species:S:1:pos:R:3:forces:R:3 energy=-0.8522394063955439 pbc="F F F"
Sr       0.00000000       0.00000000       0.00000000       0.00000000       0.00000000      -0.28305823
Sr       0.00000000       0.00000000       3.73535354       0.00000000       0.00000000       0.28305823
2
Properties=species:S:1:pos:R:3:forces:R:3 energy=-0.8663319246313493 pbc="F F F"
Sr       0.00000000       0.00000000       0.00000000       0.00000000       0.00000000      -0.19172993
Sr       0.00000000       0.00000000       3.79494949       0.00000000       0.00000000       0.19172993
2
Properties=species:S:1:pos:R:3:forces:R:3 energy=-0.8753066073217661 pbc="F F F"
Sr       0.00000000       0.00000000       0.00000000       0.00000000       0.00000000      -0.11122163
Sr       0.00000000       0.00000000       3.85454545       0.00000000       0.00000000       0.11122163
2
Properties=species:S:1:pos:R:3:forces:R:3 energy=-0.8797930151089093 pbc="F F F"
Sr       0.00000000       0.00000000       0.00000000       0.00000000       0.00000000      -0.04099663
Sr       0.00000000       0.00000000       3.91414141       0.00000000       0.00000000       0.04099663
2
Properties=species:S:1:pos:R:3:forces:R:3 energy=-0.8803845954367258 pbc="F F F"
Sr       0.00000000       0.00000000       0.00000000       0.00000000       0.00000000       0.01959051
Sr       0.00000000       0.00000000       3.97373737       0.00000000       0.00000000      -0.01959051
2
Properties=species:S:1:pos:R:3:forces:R:3 energy=-0.8776362144750856 pbc="F F F"
Sr       0.00000000       0.00000000       0.00000000       0.00000000       0.00000000       0.07118627
Sr       0.00000000       0.00000000       4.03333333       0.00000000       0.00000000      -0.07118627
2
Properties=species:S:1:pos:R:3:forces:R:3 energy=-0.8720678629367227 pbc="F F F"
Sr       0.00000000       0.00000000       0.00000000       0.00000000       0.00000000       0.11431520
Sr       0.00000000       0.00000000       4.09292929       0.00000000       0.00000000      -0.11431520
2
Properties=species:S:1:pos:R:3:forces:R:3 energy=-0.8641719006548794 pbc="F F F"
Sr       0.00000000       0.00000000       0.00000000       0.00000000       0.00000000       0.14933895
Sr       0.00000000       0.00000000       4.15252525       0.00000000       0.00000000      -0.14933895
2
Properties=species:S:1:pos:R:3:forces:R:3 energy=-0.8544219934564663 pbc="F F F"
Sr       0.00000000       0.00000000       0.00000000       0.00000000       0.00000000       0.17663060
Sr       0.00000000       0.00000000       4.21212121       0.00000000       0.00000000      -0.17663060
2
Properties=species:S:1:pos:R:3:forces:R:3 energy=-0.8432552263658374 pbc="F F F"
Sr       0.00000000       0.00000000       0.00000000       0.00000000       0.00000000       0.19710551
Sr       0.00000000       0.00000000       4.27171717       0.00000000       0.00000000      -0.19710551
2
Properties=species:S:1:pos:R:3:forces:R:3 energy=-0.8310216762347225 pbc="F F F"
Sr       0.00000000       0.00000000       0.00000000       0.00000000       0.00000000       0.21295032
Sr       0.00000000       0.00000000       4.33131313       0.00000000       0.00000000      -0.21295032
2
Properties=species:S:1:pos:R:3:forces:R:3 energy=-0.8178914996948131 pbc="F F F"
Sr       0.00000000       0.00000000       0.00000000       0.00000000       0.00000000       0.22789824
Sr       0.00000000       0.00000000       4.39090909       0.00000000       0.00000000      -0.22789824
2
Properties=species:S:1:pos:R:3:forces:R:3 energy=-0.8037930381280043 pbc="F F F"
Sr       0.00000000       0.00000000       0.00000000       0.00000000       0.00000000       0.24602227
Sr       0.00000000       0.00000000       4.45050505       0.00000000       0.00000000      -0.24602227
2
Properties=species:S:1:pos:R:3:forces:R:3 energy=-0.7884623463731595 pbc="F F F"
Sr       0.00000000       0.00000000       0.00000000       0.00000000       0.00000000       0.26933074
Sr       0.00000000       0.00000000       4.51010101       0.00000000       0.00000000      -0.26933074
2
Properties=species:S:1:pos:R:3:forces:R:3 energy=-0.7716124570779191 pbc="F F F"
Sr       0.00000000       0.00000000       0.00000000       0.00000000       0.00000000       0.29652300
Sr       0.00000000       0.00000000       4.56969697       0.00000000       0.00000000      -0.29652300
2
Properties=species:S:1:pos:R:3:forces:R:3 energy=-0.7531074248600899 pbc="F F F"
Sr       0.00000000       0.00000000       0.00000000       0.00000000       0.00000000       0.32429013
Sr       0.00000000       0.00000000       4.62929293       0.00000000       0.00000000      -0.32429013
2
Properties=species:S:1:pos:R:3:forces:R:3 energy=-0.7330127168119698 pbc="F F F"
Sr       0.00000000       0.00000000       0.00000000       0.00000000       0.00000000       0.34946033
Sr       0.00000000       0.00000000       4.68888889       0.00000000       0.00000000      -0.34946033
2
Properties=species:S:1:pos:R:3:forces:R:3 energy=-0.7115463658245311 pbc="F F F"
Sr       0.00000000       0.00000000       0.00000000       0.00000000       0.00000000       0.37005579
Sr       0.00000000       0.00000000       4.74848485       0.00000000       0.00000000      -0.37005579
2
Properties=species:S:1:pos:R:3:forces:R:3 energy=-0.6890117358883199 pbc="F F F"
Sr       0.00000000       0.00000000       0.00000000       0.00000000       0.00000000       0.38531256
Sr       0.00000000       0.00000000       4.80808081       0.00000000       0.00000000      -0.38531256
2
Properties=species:S:1:pos:R:3:forces:R:3 energy=-0.6657206474933596 pbc="F F F"
Sr       0.00000000       0.00000000       0.00000000       0.00000000       0.00000000       0.39554289
Sr       0.00000000       0.00000000       4.86767677       0.00000000       0.00000000      -0.39554289
2
Properties=species:S:1:pos:R:3:forces:R:3 energy=-0.6419385983178393 pbc="F F F"
Sr       0.00000000       0.00000000       0.00000000       0.00000000       0.00000000       0.40212530
Sr       0.00000000       0.00000000       4.92727273       0.00000000       0.00000000      -0.40212530
2
Properties=species:S:1:pos:R:3:forces:R:3 energy=-0.617813877450031 pbc="F F F"
Sr       0.00000000       0.00000000       0.00000000       0.00000000       0.00000000       0.40755001
Sr       0.00000000       0.00000000       4.98686869       0.00000000       0.00000000      -0.40755001
2
Properties=species:S:1:pos:R:3:forces:R:3 energy=-0.5933228535247466 pbc="F F F"
Sr       0.00000000       0.00000000       0.00000000       0.00000000       0.00000000       0.41506588
Sr       0.00000000       0.00000000       5.04646465       0.00000000       0.00000000      -0.41506588
2
Properties=species:S:1:pos:R:3:forces:R:3 energy=-0.5682416770610468 pbc="F F F"
Sr       0.00000000       0.00000000       0.00000000       0.00000000       0.00000000       0.42763138
Sr       0.00000000       0.00000000       5.10606061       0.00000000       0.00000000      -0.42763138
2
Properties=species:S:1:pos:R:3:forces:R:3 energy=-0.5422306905114126 pbc="F F F"
Sr       0.00000000       0.00000000       0.00000000       0.00000000       0.00000000       0.44594982
Sr       0.00000000       0.00000000       5.16565657       0.00000000       0.00000000      -0.44594982
2
Properties=species:S:1:pos:R:3:forces:R:3 energy=-0.5150535486316644 pbc="F F F"
Sr       0.00000000       0.00000000       0.00000000       0.00000000       0.00000000       0.46563485
Sr       0.00000000       0.00000000       5.22525253       0.00000000       0.00000000      -0.46563485
2
Properties=species:S:1:pos:R:3:forces:R:3 energy=-0.48693307148187026 pbc="F F F"
Sr       0.00000000       0.00000000       0.00000000       0.00000000       0.00000000       0.47512525
Sr       0.00000000       0.00000000       5.28484848       0.00000000       0.00000000      -0.47512525
2
Properties=species:S:1:pos:R:3:forces:R:3 energy=-0.45890116538508346 pbc="F F F"
Sr       0.00000000       0.00000000       0.00000000       0.00000000       0.00000000       0.46123031
Sr       0.00000000       0.00000000       5.34444444       0.00000000       0.00000000      -0.46123031
2
Properties=species:S:1:pos:R:3:forces:R:3 energy=-0.43225625048162186 pbc="F F F"
Sr       0.00000000       0.00000000       0.00000000       0.00000000       0.00000000       0.43403232
Sr       0.00000000       0.00000000       5.40404040       0.00000000       0.00000000      -0.43403232
2
Properties=species:S:1:pos:R:3:forces:R:3 energy=-0.40645307957804666 pbc="F F F"
Sr       0.00000000       0.00000000       0.00000000       0.00000000       0.00000000       0.44095632
Sr       0.00000000       0.00000000       5.46363636       0.00000000       0.00000000      -0.44095632
2
Properties=species:S:1:pos:R:3:forces:R:3 energy=-0.37897652106416857 pbc="F F F"
Sr       0.00000000       0.00000000       0.00000000       0.00000000       0.00000000       0.48038980
Sr       0.00000000       0.00000000       5.52323232       0.00000000       0.00000000      -0.48038980
2
Properties=species:S:1:pos:R:3:forces:R:3 energy=-0.35025663886870834 pbc="F F F"
Sr       0.00000000       0.00000000       0.00000000       0.00000000       0.00000000       0.47095570
Sr       0.00000000       0.00000000       5.58282828       0.00000000       0.00000000      -0.47095570
2
Properties=species:S:1:pos:R:3:forces:R:3 energy=-0.3238710736949873 pbc="F F F"
Sr       0.00000000       0.00000000       0.00000000       0.00000000       0.00000000       0.41297457
Sr       0.00000000       0.00000000       5.64242424       0.00000000       0.00000000      -0.41297457
2
Properties=species:S:1:pos:R:3:forces:R:3 energy=-0.3000856564484016 pbc="F F F"
Sr       0.00000000       0.00000000       0.00000000       0.00000000       0.00000000       0.40204585
Sr       0.00000000       0.00000000       5.70202020       0.00000000       0.00000000      -0.40204585
2
Properties=species:S:1:pos:R:3:forces:R:3 energy=-0.27365866557371565 pbc="F F F"
Sr       0.00000000       0.00000000       0.00000000       0.00000000       0.00000000       0.49726221
Sr       0.00000000       0.00000000       5.76161616       0.00000000       0.00000000      -0.49726221
2
Properties=species:S:1:pos:R:3:forces:R:3 energy=-0.24195854368196534 pbc="F F F"
Sr       0.00000000       0.00000000       0.00000000       0.00000000       0.00000000       0.53493035
Sr       0.00000000       0.00000000       5.82121212       0.00000000       0.00000000      -0.53493035
2
Properties=species:S:1:pos:R:3:forces:R:3 energy=-0.21434121517283877 pbc="F F F"
Sr       0.00000000       0.00000000       0.00000000       0.00000000       0.00000000       0.36608952
Sr       0.00000000       0.00000000       5.88080808       0.00000000       0.00000000      -0.36608952
2
Properties=species:S:1:pos:R:3:forces:R:3 energy=-0.19944125533762197 pbc="F F F"
Sr       0.00000000       0.00000000       0.00000000       0.00000000       0.00000000       0.13781504
Sr       0.00000000       0.00000000       5.94040404       0.00000000       0.00000000      -0.13781504
2
Properties=species:S:1:pos:R:3:forces:R:3 energy=-0.19511252475025537 pbc="F F F"
Sr       0.00000000       0.00000000       0.00000000       0.00000000       0.00000000       0.04012058
Sr       0.00000000       0.00000000       6.00000000       0.00000000       0.00000000      -0.04012058
