2
Properties=species:S:1:pos:R:3:forces:R:3 energy=7516.533840800387 pbc="F F F"
Tc       0.00000000       0.00000000       0.00000000       0.00000000       0.00000000 -114827.59375000
Tc       0.00000000       0.00000000       0.18000000       0.00000000       0.00000000  114827.59375000
2
Properties=species:S:1:pos:R:3:forces:R:3 energy=3413.9598661910127 pbc="F F F"
Tc       0.00000000       0.00000000       0.00000000       0.00000000       0.00000000  -40051.71484375
Tc       0.00000000       0.00000000       0.23878788       0.00000000       0.00000000   40051.71484375
2
Properties=species:S:1:pos:R:3:forces:R:3 energy=1871.72976365195 pbc="F F F"
Tc       0.00000000       0.00000000       0.00000000       0.00000000       0.00000000  -16402.38476562
Tc       0.00000000       0.00000000       0.29757576       0.00000000       0.00000000   16402.38476562
2
Properties=species:S:1:pos:R:3:forces:R:3 energy=1213.2897001817232 pbc="F F F"
Tc       0.00000000       0.00000000       0.00000000       0.00000000       0.00000000   -7320.89648438
Tc       0.00000000       0.00000000       0.35636364       0.00000000       0.00000000    7320.89648438
2
Properties=species:S:1:pos:R:3:forces:R:3 energy=912.8466459888401 pbc="F F F"
Tc       0.00000000       0.00000000       0.00000000       0.00000000       0.00000000   -3408.83251953
Tc       0.00000000       0.00000000       0.41515152       0.00000000       0.00000000    3408.83251953
2
Properties=species:S:1:pos:R:3:forces:R:3 energy=773.0760771665264 pbc="F F F"
Tc       0.00000000       0.00000000       0.00000000       0.00000000       0.00000000   -1568.55017090
Tc       0.00000000       0.00000000       0.47393939       0.00000000       0.00000000    1568.55017090
2
Properties=species:S:1:pos:R:3:forces:R:3 energy=709.4614531811028 pbc="F F F"
Tc       0.00000000       0.00000000       0.00000000       0.00000000       0.00000000    -716.06604004
Tc       0.00000000       0.00000000       0.53272727       0.00000000       0.00000000     716.06604004
2
Properties=species:S:1:pos:R:3:forces:R:3 energy=677.2597320657243 pbc="F F F"
Tc       0.00000000       0.00000000       0.00000000       0.00000000       0.00000000    -464.07769775
Tc       0.00000000       0.00000000       0.59151515       0.00000000       0.00000000     464.07769775
2
Properties=species:S:1:pos:R:3:forces:R:3 energy=646.0608796343677 pbc="F F F"
Tc       0.00000000       0.00000000       0.00000000       0.00000000       0.00000000    -662.87347412
Tc       0.00000000       0.00000000       0.65030303       0.00000000       0.00000000     662.87347412
2
Properties=species:S:1:pos:R:3:forces:R:3 energy=593.2812167321639 pbc="F F F"
Tc       0.00000000       0.00000000       0.00000000       0.00000000       0.00000000   -1165.11608887
Tc       0.00000000       0.00000000       0.70909091       0.00000000       0.00000000    1165.11608887
2
Properties=species:S:1:pos:R:3:forces:R:3 energy=508.2511571901435 pbc="F F F"
Tc       0.00000000       0.00000000       0.00000000       0.00000000       0.00000000   -1704.94885254
Tc       0.00000000       0.00000000       0.76787879       0.00000000       0.00000000    1704.94885254
2
Properties=species:S:1:pos:R:3:forces:R:3 energy=400.4897440150703 pbc="F F F"
Tc       0.00000000       0.00000000       0.00000000       0.00000000       0.00000000   -1871.24890137
Tc       0.00000000       0.00000000       0.82666667       0.00000000       0.00000000    1871.24890137
2
Properties=species:S:1:pos:R:3:forces:R:3 energy=300.7164596858402 pbc="F F F"
Tc       0.00000000       0.00000000       0.00000000       0.00000000       0.00000000   -1507.70483398
Tc       0.00000000       0.00000000       0.88545455       0.00000000       0.00000000    1507.70483398
2
Properties=species:S:1:pos:R:3:forces:R:3 energy=220.93673637570893 pbc="F F F"
Tc       0.00000000       0.00000000       0.00000000       0.00000000       0.00000000   -1226.42260742
Tc       0.00000000       0.00000000       0.94424242       0.00000000       0.00000000    1226.42260742
2
Properties=species:S:1:pos:R:3:forces:R:3 energy=156.22329755571172 pbc="F F F"
Tc       0.00000000       0.00000000       0.00000000       0.00000000       0.00000000    -955.44836426
Tc       0.00000000       0.00000000       1.00303030       0.00000000       0.00000000     955.44836426
2
Properties=species:S:1:pos:R:3:forces:R:3 energy=110.07201579309927 pbc="F F F"
Tc       0.00000000       0.00000000       0.00000000       0.00000000       0.00000000    -627.40551758
Tc       0.00000000       0.00000000       1.06181818       0.00000000       0.00000000     627.40551758
2
Properties=species:S:1:pos:R:3:forces:R:3 energy=79.42616665990896 pbc="F F F"
Tc       0.00000000       0.00000000       0.00000000       0.00000000       0.00000000    -439.36645508
Tc       0.00000000       0.00000000       1.12060606       0.00000000       0.00000000     439.36645508
2
Properties=species:S:1:pos:R:3:forces:R:3 energy=56.72923172183054 pbc="F F F"
Tc       0.00000000       0.00000000       0.00000000       0.00000000       0.00000000    -338.21594238
Tc       0.00000000       0.00000000       1.17939394       0.00000000       0.00000000     338.21594238
2
Properties=species:S:1:pos:R:3:forces:R:3 energy=39.335012845543105 pbc="F F F"
Tc       0.00000000       0.00000000       0.00000000       0.00000000       0.00000000    -256.21325684
Tc       0.00000000       0.00000000       1.23818182       0.00000000       0.00000000     256.21325684
2
Properties=species:S:1:pos:R:3:forces:R:3 energy=26.21802804971726 pbc="F F F"
Tc       0.00000000       0.00000000       0.00000000       0.00000000       0.00000000    -193.53482056
Tc       0.00000000       0.00000000       1.29696970       0.00000000       0.00000000     193.53482056
2
Properties=species:S:1:pos:R:3:forces:R:3 energy=16.23869202309157 pbc="F F F"
Tc       0.00000000       0.00000000       0.00000000       0.00000000       0.00000000    -148.06147766
Tc       0.00000000       0.00000000       1.35575758       0.00000000       0.00000000     148.06147766
2
Properties=species:S:1:pos:R:3:forces:R:3 energy=8.62024206308614 pbc="F F F"
Tc       0.00000000       0.00000000       0.00000000       0.00000000       0.00000000    -112.55905914
Tc       0.00000000       0.00000000       1.41454545       0.00000000       0.00000000     112.55905914
2
Properties=species:S:1:pos:R:3:forces:R:3 energy=2.8412131216130683 pbc="F F F"
Tc       0.00000000       0.00000000       0.00000000       0.00000000       0.00000000     -85.31179810
Tc       0.00000000       0.00000000       1.47333333       0.00000000       0.00000000      85.31179810
2
Properties=species:S:1:pos:R:3:forces:R:3 energy=-1.5349894412835137 pbc="F F F"
Tc       0.00000000       0.00000000       0.00000000       0.00000000       0.00000000     -64.43593597
Tc       0.00000000       0.00000000       1.53212121       0.00000000       0.00000000      64.43593597
2
Properties=species:S:1:pos:R:3:forces:R:3 energy=-4.8205114449648505 pbc="F F F"
Tc       0.00000000       0.00000000       0.00000000       0.00000000       0.00000000     -47.96191406
Tc       0.00000000       0.00000000       1.59090909       0.00000000       0.00000000      47.96191406
2
Properties=species:S:1:pos:R:3:forces:R:3 energy=-7.238918068746045 pbc="F F F"
Tc       0.00000000       0.00000000       0.00000000       0.00000000       0.00000000     -34.81127167
Tc       0.00000000       0.00000000       1.64969697       0.00000000       0.00000000      34.81127167
2
Properties=species:S:1:pos:R:3:forces:R:3 energy=-8.967902731980482 pbc="F F F"
Tc       0.00000000       0.00000000       0.00000000       0.00000000       0.00000000     -24.44220734
Tc       0.00000000       0.00000000       1.70848485       0.00000000       0.00000000      24.44220734
2
Properties=species:S:1:pos:R:3:forces:R:3 energy=-10.159215047232877 pbc="F F F"
Tc       0.00000000       0.00000000       0.00000000       0.00000000       0.00000000     -16.43843079
Tc       0.00000000       0.00000000       1.76727273       0.00000000       0.00000000      16.43843079
2
Properties=species:S:1:pos:R:3:forces:R:3 energy=-10.936263428767647 pbc="F F F"
Tc       0.00000000       0.00000000       0.00000000       0.00000000       0.00000000     -10.25434685
Tc       0.00000000       0.00000000       1.82606061       0.00000000       0.00000000      10.25434685
2
Properties=species:S:1:pos:R:3:forces:R:3 energy=-11.390954075670745 pbc="F F F"
Tc       0.00000000       0.00000000       0.00000000       0.00000000       0.00000000      -5.40876055
Tc       0.00000000       0.00000000       1.88484848       0.00000000       0.00000000       5.40876055
2
Properties=species:S:1:pos:R:3:forces:R:3 energy=-11.593048200830843 pbc="F F F"
Tc       0.00000000       0.00000000       0.00000000       0.00000000       0.00000000      -1.63213432
Tc       0.00000000       0.00000000       1.94363636       0.00000000       0.00000000       1.63213432
2
Properties=species:S:1:pos:R:3:forces:R:3 energy=-11.601438504139722 pbc="F F F"
Tc       0.00000000       0.00000000       0.00000000       0.00000000       0.00000000       1.19518876
Tc       0.00000000       0.00000000       2.00242424       0.00000000       0.00000000      -1.19518876
2
Properties=species:S:1:pos:R:3:forces:R:3 energy=-11.469468156279659 pbc="F F F"
Tc       0.00000000       0.00000000       0.00000000       0.00000000       0.00000000       3.15894246
Tc       0.00000000       0.00000000       2.06121212       0.00000000       0.00000000      -3.15894246
2
Properties=species:S:1:pos:R:3:forces:R:3 energy=-11.244765537306307 pbc="F F F"
Tc       0.00000000       0.00000000       0.00000000       0.00000000       0.00000000       4.37119198
Tc       0.00000000       0.00000000       2.12000000       0.00000000       0.00000000      -4.37119198
2
Properties=species:S:1:pos:R:3:forces:R:3 energy=-10.967627698333926 pbc="F F F"
Tc       0.00000000       0.00000000       0.00000000       0.00000000       0.00000000       4.96570778
Tc       0.00000000       0.00000000       2.17878788       0.00000000       0.00000000      -4.96570778
2
Properties=species:S:1:pos:R:3:forces:R:3 energy=-10.670358055073699 pbc="F F F"
Tc       0.00000000       0.00000000       0.00000000       0.00000000       0.00000000       5.07853699
Tc       0.00000000       0.00000000       2.23757576       0.00000000       0.00000000      -5.07853699
2
Properties=species:S:1:pos:R:3:forces:R:3 energy=-10.377337307873887 pbc="F F F"
Tc       0.00000000       0.00000000       0.00000000       0.00000000       0.00000000       4.84334183
Tc       0.00000000       0.00000000       2.29636364       0.00000000       0.00000000      -4.84334183
2
Properties=species:S:1:pos:R:3:forces:R:3 energy=-10.105053933315975 pbc="F F F"
Tc       0.00000000       0.00000000       0.00000000       0.00000000       0.00000000       4.39597034
Tc       0.00000000       0.00000000       2.35515152       0.00000000       0.00000000      -4.39597034
2
Properties=species:S:1:pos:R:3:forces:R:3 energy=-9.862026647204283 pbc="F F F"
Tc       0.00000000       0.00000000       0.00000000       0.00000000       0.00000000       3.86868906
Tc       0.00000000       0.00000000       2.41393939       0.00000000       0.00000000      -3.86868906
2
Properties=species:S:1:pos:R:3:forces:R:3 energy=-9.649626856382802 pbc="F F F"
Tc       0.00000000       0.00000000       0.00000000       0.00000000       0.00000000       3.36848569
Tc       0.00000000       0.00000000       2.47272727       0.00000000       0.00000000      -3.36848569
2
Properties=species:S:1:pos:R:3:forces:R:3 energy=-9.464218231227152 pbc="F F F"
Tc       0.00000000       0.00000000       0.00000000       0.00000000       0.00000000       2.95623422
Tc       0.00000000       0.00000000       2.53151515       0.00000000       0.00000000      -2.95623422
2
Properties=species:S:1:pos:R:3:forces:R:3 energy=-9.300046854640378 pbc="F F F"
Tc       0.00000000       0.00000000       0.00000000       0.00000000       0.00000000       2.64499617
Tc       0.00000000       0.00000000       2.59030303       0.00000000       0.00000000      -2.64499617
2
Properties=species:S:1:pos:R:3:forces:R:3 energy=-9.151592090433788 pbc="F F F"
Tc       0.00000000       0.00000000       0.00000000       0.00000000       0.00000000       2.41716480
Tc       0.00000000       0.00000000       2.64909091       0.00000000       0.00000000      -2.41716480
2
Properties=species:S:1:pos:R:3:forces:R:3 energy=-9.014734496409805 pbc="F F F"
Tc       0.00000000       0.00000000       0.00000000       0.00000000       0.00000000       2.24634027
Tc       0.00000000       0.00000000       2.70787879       0.00000000       0.00000000      -2.24634027
2
Properties=species:S:1:pos:R:3:forces:R:3 energy=-8.886703547348421 pbc="F F F"
Tc       0.00000000       0.00000000       0.00000000       0.00000000       0.00000000       2.11595201
Tc       0.00000000       0.00000000       2.76666667       0.00000000       0.00000000      -2.11595201
2
Properties=species:S:1:pos:R:3:forces:R:3 energy=-8.764984171504315 pbc="F F F"
Tc       0.00000000       0.00000000       0.00000000       0.00000000       0.00000000       2.03549838
Tc       0.00000000       0.00000000       2.82545455       0.00000000       0.00000000      -2.03549838
2
Properties=species:S:1:pos:R:3:forces:R:3 energy=-8.646007832941622 pbc="F F F"
Tc       0.00000000       0.00000000       0.00000000       0.00000000       0.00000000       2.02253461
Tc       0.00000000       0.00000000       2.88424242       0.00000000       0.00000000      -2.02253461
2
Properties=species:S:1:pos:R:3:forces:R:3 energy=-8.526535026968544 pbc="F F F"
Tc       0.00000000       0.00000000       0.00000000       0.00000000       0.00000000       2.04174638
Tc       0.00000000       0.00000000       2.94303030       0.00000000       0.00000000      -2.04174638
2
Properties=species:S:1:pos:R:3:forces:R:3 energy=-8.40648643894937 pbc="F F F"
Tc       0.00000000       0.00000000       0.00000000       0.00000000       0.00000000       2.03528643
Tc       0.00000000       0.00000000       3.00181818       0.00000000       0.00000000      -2.03528643
2
Properties=species:S:1:pos:R:3:forces:R:3 energy=-8.28810227639502 pbc="F F F"
Tc       0.00000000       0.00000000       0.00000000       0.00000000       0.00000000       1.98528397
Tc       0.00000000       0.00000000       3.06060606       0.00000000       0.00000000      -1.98528397
2
Properties=species:S:1:pos:R:3:forces:R:3 energy=-8.173776383068368 pbc="F F F"
Tc       0.00000000       0.00000000       0.00000000       0.00000000       0.00000000       1.89918542
Tc       0.00000000       0.00000000       3.11939394       0.00000000       0.00000000      -1.89918542
2
Properties=species:S:1:pos:R:3:forces:R:3 energy=-8.065275871468902 pbc="F F F"
Tc       0.00000000       0.00000000       0.00000000       0.00000000       0.00000000       1.78905702
Tc       0.00000000       0.00000000       3.17818182       0.00000000       0.00000000      -1.78905702
2
Properties=species:S:1:pos:R:3:forces:R:3 energy=-7.96365664301554 pbc="F F F"
Tc       0.00000000       0.00000000       0.00000000       0.00000000       0.00000000       1.66710246
Tc       0.00000000       0.00000000       3.23696970       0.00000000       0.00000000      -1.66710246
2
Properties=species:S:1:pos:R:3:forces:R:3 energy=-7.8692814364653305 pbc="F F F"
Tc       0.00000000       0.00000000       0.00000000       0.00000000       0.00000000       1.54422879
Tc       0.00000000       0.00000000       3.29575758       0.00000000       0.00000000      -1.54422879
2
Properties=species:S:1:pos:R:3:forces:R:3 energy=-7.781955303562511 pbc="F F F"
Tc       0.00000000       0.00000000       0.00000000       0.00000000       0.00000000       1.42824757
Tc       0.00000000       0.00000000       3.35454545       0.00000000       0.00000000      -1.42824757
2
Properties=species:S:1:pos:R:3:forces:R:3 energy=-7.701144830942077 pbc="F F F"
Tc       0.00000000       0.00000000       0.00000000       0.00000000       0.00000000       1.32280445
Tc       0.00000000       0.00000000       3.41333333       0.00000000       0.00000000      -1.32280445
2
Properties=species:S:1:pos:R:3:forces:R:3 energy=-7.626222428203773 pbc="F F F"
Tc       0.00000000       0.00000000       0.00000000       0.00000000       0.00000000       1.22760332
Tc       0.00000000       0.00000000       3.47212121       0.00000000       0.00000000      -1.22760332
2
Properties=species:S:1:pos:R:3:forces:R:3 energy=-7.556663779197729 pbc="F F F"
Tc       0.00000000       0.00000000       0.00000000       0.00000000       0.00000000       1.13978839
Tc       0.00000000       0.00000000       3.53090909       0.00000000       0.00000000      -1.13978839
2
Properties=species:S:1:pos:R:3:forces:R:3 energy=-7.492138608819242 pbc="F F F"
Tc       0.00000000       0.00000000       0.00000000       0.00000000       0.00000000       1.05568326
Tc       0.00000000       0.00000000       3.58969697       0.00000000       0.00000000      -1.05568326
2
Properties=species:S:1:pos:R:3:forces:R:3 energy=-7.43252738965241 pbc="F F F"
Tc       0.00000000       0.00000000       0.00000000       0.00000000       0.00000000       0.97228909
Tc       0.00000000       0.00000000       3.64848485       0.00000000       0.00000000      -0.97228909
2
Properties=species:S:1:pos:R:3:forces:R:3 energy=-7.377838994861582 pbc="F F F"
Tc       0.00000000       0.00000000       0.00000000       0.00000000       0.00000000       0.88808185
Tc       0.00000000       0.00000000       3.70727273       0.00000000       0.00000000      -0.88808185
2
Properties=species:S:1:pos:R:3:forces:R:3 energy=-7.328125285655405 pbc="F F F"
Tc       0.00000000       0.00000000       0.00000000       0.00000000       0.00000000       0.80313307
Tc       0.00000000       0.00000000       3.76606061       0.00000000       0.00000000      -0.80313307
2
Properties=species:S:1:pos:R:3:forces:R:3 energy=-7.283399814551091 pbc="F F F"
Tc       0.00000000       0.00000000       0.00000000       0.00000000       0.00000000       0.71872401
Tc       0.00000000       0.00000000       3.82484848       0.00000000       0.00000000      -0.71872401
2
Properties=species:S:1:pos:R:3:forces:R:3 energy=-7.2435733683308445 pbc="F F F"
Tc       0.00000000       0.00000000       0.00000000       0.00000000       0.00000000       0.63673192
Tc       0.00000000       0.00000000       3.88363636       0.00000000       0.00000000      -0.63673192
2
Properties=species:S:1:pos:R:3:forces:R:3 energy=-7.2084491996702855 pbc="F F F"
Tc       0.00000000       0.00000000       0.00000000       0.00000000       0.00000000       0.55909896
Tc       0.00000000       0.00000000       3.94242424       0.00000000       0.00000000      -0.55909896
2
Properties=species:S:1:pos:R:3:forces:R:3 energy=-7.177720579596212 pbc="F F F"
Tc       0.00000000       0.00000000       0.00000000       0.00000000       0.00000000       0.48742765
Tc       0.00000000       0.00000000       4.00121212       0.00000000       0.00000000      -0.48742765
2
Properties=species:S:1:pos:R:3:forces:R:3 energy=-7.151001429106324 pbc="F F F"
Tc       0.00000000       0.00000000       0.00000000       0.00000000       0.00000000       0.42279768
Tc       0.00000000       0.00000000       4.06000000       0.00000000       0.00000000      -0.42279768
2
Properties=species:S:1:pos:R:3:forces:R:3 energy=-7.127861109274838 pbc="F F F"
Tc       0.00000000       0.00000000       0.00000000       0.00000000       0.00000000       0.36574575
Tc       0.00000000       0.00000000       4.11878788       0.00000000       0.00000000      -0.36574575
2
Properties=species:S:1:pos:R:3:forces:R:3 energy=-7.107848695598047 pbc="F F F"
Tc       0.00000000       0.00000000       0.00000000       0.00000000       0.00000000       0.31633055
Tc       0.00000000       0.00000000       4.17757576       0.00000000       0.00000000      -0.31633055
2
Properties=species:S:1:pos:R:3:forces:R:3 energy=-7.090523769668986 pbc="F F F"
Tc       0.00000000       0.00000000       0.00000000       0.00000000       0.00000000       0.27425155
Tc       0.00000000       0.00000000       4.23636364       0.00000000       0.00000000      -0.27425155
2
Properties=species:S:1:pos:R:3:forces:R:3 energy=-7.0754697579465695 pbc="F F F"
Tc       0.00000000       0.00000000       0.00000000       0.00000000       0.00000000       0.23896676
Tc       0.00000000       0.00000000       4.29515152       0.00000000       0.00000000      -0.23896676
2
Properties=species:S:1:pos:R:3:forces:R:3 energy=-7.062307690341097 pbc="F F F"
Tc       0.00000000       0.00000000       0.00000000       0.00000000       0.00000000       0.20978841
Tc       0.00000000       0.00000000       4.35393939       0.00000000       0.00000000      -0.20978841
2
Properties=species:S:1:pos:R:3:forces:R:3 energy=-7.050699615765927 pbc="F F F"
Tc       0.00000000       0.00000000       0.00000000       0.00000000       0.00000000       0.18594313
Tc       0.00000000       0.00000000       4.41272727       0.00000000       0.00000000      -0.18594313
2
Properties=species:S:1:pos:R:3:forces:R:3 energy=-7.0403561618399175 pbc="F F F"
Tc       0.00000000       0.00000000       0.00000000       0.00000000       0.00000000       0.16662288
Tc       0.00000000       0.00000000       4.47151515       0.00000000       0.00000000      -0.16662288
2
Properties=species:S:1:pos:R:3:forces:R:3 energy=-7.03103632581117 pbc="F F F"
Tc       0.00000000       0.00000000       0.00000000       0.00000000       0.00000000       0.15100227
Tc       0.00000000       0.00000000       4.53030303       0.00000000       0.00000000      -0.15100227
2
Properties=species:S:1:pos:R:3:forces:R:3 energy=-7.0225458349692875 pbc="F F F"
Tc       0.00000000       0.00000000       0.00000000       0.00000000       0.00000000       0.13826102
Tc       0.00000000       0.00000000       4.58909091       0.00000000       0.00000000      -0.13826102
2
Properties=species:S:1:pos:R:3:forces:R:3 energy=-7.014739207713309 pbc="F F F"
Tc       0.00000000       0.00000000       0.00000000       0.00000000       0.00000000       0.12761728
Tc       0.00000000       0.00000000       4.64787879       0.00000000       0.00000000      -0.12761728
2
Properties=species:S:1:pos:R:3:forces:R:3 energy=-7.007514050512746 pbc="F F F"
Tc       0.00000000       0.00000000       0.00000000       0.00000000       0.00000000       0.11835852
Tc       0.00000000       0.00000000       4.70666667       0.00000000       0.00000000      -0.11835852
2
Properties=species:S:1:pos:R:3:forces:R:3 energy=-7.000807276552368 pbc="F F F"
Tc       0.00000000       0.00000000       0.00000000       0.00000000       0.00000000       0.10990159
Tc       0.00000000       0.00000000       4.76545455       0.00000000       0.00000000      -0.10990159
2
Properties=species:S:1:pos:R:3:forces:R:3 energy=-6.994584252519168 pbc="F F F"
Tc       0.00000000       0.00000000       0.00000000       0.00000000       0.00000000       0.10184012
Tc       0.00000000       0.00000000       4.82424242       0.00000000       0.00000000      -0.10184012
2
Properties=species:S:1:pos:R:3:forces:R:3 energy=-6.988829491606228 pbc="F F F"
Tc       0.00000000       0.00000000       0.00000000       0.00000000       0.00000000       0.09400040
Tc       0.00000000       0.00000000       4.88303030       0.00000000       0.00000000      -0.09400040
2
Properties=species:S:1:pos:R:3:forces:R:3 energy=-6.983526938462476 pbc="F F F"
Tc       0.00000000       0.00000000       0.00000000       0.00000000       0.00000000       0.08646310
Tc       0.00000000       0.00000000       4.94181818       0.00000000       0.00000000      -0.08646310
2
Properties=species:S:1:pos:R:3:forces:R:3 energy=-6.978651430473354 pbc="F F F"
Tc       0.00000000       0.00000000       0.00000000       0.00000000       0.00000000       0.07953370
Tc       0.00000000       0.00000000       5.00060606       0.00000000       0.00000000      -0.07953370
2
Properties=species:S:1:pos:R:3:forces:R:3 energy=-6.974154926504026 pbc="F F F"
Tc       0.00000000       0.00000000       0.00000000       0.00000000       0.00000000       0.07364914
Tc       0.00000000       0.00000000       5.05939394       0.00000000       0.00000000      -0.07364914
2
Properties=species:S:1:pos:R:3:forces:R:3 energy=-6.9699634558070995 pbc="F F F"
Tc       0.00000000       0.00000000       0.00000000       0.00000000       0.00000000       0.06920782
Tc       0.00000000       0.00000000       5.11818182       0.00000000       0.00000000      -0.06920782
2
Properties=species:S:1:pos:R:3:forces:R:3 energy=-6.965986778310856 pbc="F F F"
Tc       0.00000000       0.00000000       0.00000000       0.00000000       0.00000000       0.06634434
Tc       0.00000000       0.00000000       5.17696970       0.00000000       0.00000000      -0.06634434
2
Properties=species:S:1:pos:R:3:forces:R:3 energy=-6.962139463656696 pbc="F F F"
Tc       0.00000000       0.00000000       0.00000000       0.00000000       0.00000000       0.06466446
Tc       0.00000000       0.00000000       5.23575758       0.00000000       0.00000000      -0.06466446
2
Properties=species:S:1:pos:R:3:forces:R:3 energy=-6.9583823411858585 pbc="F F F"
Tc       0.00000000       0.00000000       0.00000000       0.00000000       0.00000000       0.06302763
Tc       0.00000000       0.00000000       5.29454545       0.00000000       0.00000000      -0.06302763
2
Properties=species:S:1:pos:R:3:forces:R:3 energy=-6.954758910625845 pbc="F F F"
Tc       0.00000000       0.00000000       0.00000000       0.00000000       0.00000000       0.05989815
Tc       0.00000000       0.00000000       5.35333333       0.00000000       0.00000000      -0.05989815
2
Properties=species:S:1:pos:R:3:forces:R:3 energy=-6.95136954853436 pbc="F F F"
Tc       0.00000000       0.00000000       0.00000000       0.00000000       0.00000000       0.05542695
Tc       0.00000000       0.00000000       5.41212121       0.00000000       0.00000000      -0.05542695
2
Properties=species:S:1:pos:R:3:forces:R:3 energy=-6.948190531926749 pbc="F F F"
Tc       0.00000000       0.00000000       0.00000000       0.00000000       0.00000000       0.05354101
Tc       0.00000000       0.00000000       5.47090909       0.00000000       0.00000000      -0.05354101
2
Properties=species:S:1:pos:R:3:forces:R:3 energy=-6.944992518128878 pbc="F F F"
Tc       0.00000000       0.00000000       0.00000000       0.00000000       0.00000000       0.05539212
Tc       0.00000000       0.00000000       5.52969697       0.00000000       0.00000000      -0.05539212
2
Properties=species:S:1:pos:R:3:forces:R:3 energy=-6.941743974355547 pbc="F F F"
Tc       0.00000000       0.00000000       0.00000000       0.00000000       0.00000000       0.05413951
Tc       0.00000000       0.00000000       5.58848485       0.00000000       0.00000000      -0.05413951
2
Properties=species:S:1:pos:R:3:forces:R:3 energy=-6.93872255003324 pbc="F F F"
Tc       0.00000000       0.00000000       0.00000000       0.00000000       0.00000000       0.04833612
Tc       0.00000000       0.00000000       5.64727273       0.00000000       0.00000000      -0.04833612
2
Properties=species:S:1:pos:R:3:forces:R:3 energy=-6.935999937445972 pbc="F F F"
Tc       0.00000000       0.00000000       0.00000000       0.00000000       0.00000000       0.04579755
Tc       0.00000000       0.00000000       5.70606061       0.00000000       0.00000000      -0.04579755
2
Properties=species:S:1:pos:R:3:forces:R:3 energy=-6.933104470600087 pbc="F F F"
Tc       0.00000000       0.00000000       0.00000000       0.00000000       0.00000000       0.05411895
Tc       0.00000000       0.00000000       5.76484848       0.00000000       0.00000000      -0.05411895
2
Properties=species:S:1:pos:R:3:forces:R:3 energy=-6.929685457588112 pbc="F F F"
Tc       0.00000000       0.00000000       0.00000000       0.00000000       0.00000000       0.05982882
Tc       0.00000000       0.00000000       5.82363636       0.00000000       0.00000000      -0.05982882
2
Properties=species:S:1:pos:R:3:forces:R:3 energy=-6.926463922606222 pbc="F F F"
Tc       0.00000000       0.00000000       0.00000000       0.00000000       0.00000000       0.04708958
Tc       0.00000000       0.00000000       5.88242424       0.00000000       0.00000000      -0.04708958
2
Properties=species:S:1:pos:R:3:forces:R:3 energy=-6.924285753077862 pbc="F F F"
Tc       0.00000000       0.00000000       0.00000000       0.00000000       0.00000000       0.02736946
Tc       0.00000000       0.00000000       5.94121212       0.00000000       0.00000000      -0.02736946
2
Properties=species:S:1:pos:R:3:forces:R:3 energy=-6.923024999532464 pbc="F F F"
Tc       0.00000000       0.00000000       0.00000000       0.00000000       0.00000000       0.01818999
Tc       0.00000000       0.00000000       6.00000000       0.00000000       0.00000000      -0.01818999
