2
Properties=species:S:1:pos:R:3:forces:R:3 energy=-681485.3040883363 pbc="F F F"
Th       0.00000000       0.00000000       0.00000000       0.00000000       0.00000000 -300818.53125000
Th       0.00000000       0.00000000       0.18000000       0.00000000       0.00000000  300818.53125000
2
Properties=species:S:1:pos:R:3:forces:R:3 energy=-688794.4290883363 pbc="F F F"
Th       0.00000000       0.00000000       0.00000000       0.00000000       0.00000000   11158.16796875
Th       0.00000000       0.00000000       0.23878788       0.00000000       0.00000000  -11158.16796875
2
Properties=species:S:1:pos:R:3:forces:R:3 energy=-681898.3040883363 pbc="F F F"
Th       0.00000000       0.00000000       0.00000000       0.00000000       0.00000000  223607.00000000
Th       0.00000000       0.00000000       0.29757576       0.00000000       0.00000000 -223607.00000000
2
Properties=species:S:1:pos:R:3:forces:R:3 energy=-661710.4290883363 pbc="F F F"
Th       0.00000000       0.00000000       0.00000000       0.00000000       0.00000000  473847.71875000
Th       0.00000000       0.00000000       0.35636364       0.00000000       0.00000000 -473847.71875000
2
Properties=species:S:1:pos:R:3:forces:R:3 energy=-624764.4915883236 pbc="F F F"
Th       0.00000000       0.00000000       0.00000000       0.00000000       0.00000000  795149.56250000
Th       0.00000000       0.00000000       0.41515152       0.00000000       0.00000000 -795149.56250000
2
Properties=species:S:1:pos:R:3:forces:R:3 energy=-567089.4915883236 pbc="F F F"
Th       0.00000000       0.00000000       0.00000000       0.00000000       0.00000000 1172731.62500000
Th       0.00000000       0.00000000       0.47393939       0.00000000       0.00000000 -1172731.62500000
2
Properties=species:S:1:pos:R:3:forces:R:3 energy=-486927.9290883109 pbc="F F F"
Th       0.00000000       0.00000000       0.00000000       0.00000000       0.00000000 1546290.25000000
Th       0.00000000       0.00000000       0.53272727       0.00000000       0.00000000 -1546290.25000000
2
Properties=species:S:1:pos:R:3:forces:R:3 energy=-387321.4290882856 pbc="F F F"
Th       0.00000000       0.00000000       0.00000000       0.00000000       0.00000000 1815064.00000000
Th       0.00000000       0.00000000       0.59151515       0.00000000       0.00000000 -1815064.00000000
2
Properties=species:S:1:pos:R:3:forces:R:3 energy=-277783.8665882349 pbc="F F F"
Th       0.00000000       0.00000000       0.00000000       0.00000000       0.00000000 1867908.12500000
Th       0.00000000       0.00000000       0.65030303       0.00000000       0.00000000 -1867908.12500000
2
Properties=species:S:1:pos:R:3:forces:R:3 energy=-173226.99158817154 pbc="F F F"
Th       0.00000000       0.00000000       0.00000000       0.00000000       0.00000000 1642805.75000000
Th       0.00000000       0.00000000       0.70909091       0.00000000       0.00000000 -1642805.75000000
2
Properties=species:S:1:pos:R:3:forces:R:3 energy=-89208.73377557017 pbc="F F F"
Th       0.00000000       0.00000000       0.00000000       0.00000000       0.00000000 1188189.12500000
Th       0.00000000       0.00000000       0.76787879       0.00000000       0.00000000 -1188189.12500000
2
Properties=species:S:1:pos:R:3:forces:R:3 energy=-34877.59315041811 pbc="F F F"
Th       0.00000000       0.00000000       0.00000000       0.00000000       0.00000000  665605.81250000
Th       0.00000000       0.00000000       0.82666667       0.00000000       0.00000000 -665605.81250000
2
Properties=species:S:1:pos:R:3:forces:R:3 energy=-8592.236704877529 pbc="F F F"
Th       0.00000000       0.00000000       0.00000000       0.00000000       0.00000000  259509.82812500
Th       0.00000000       0.00000000       0.88545455       0.00000000       0.00000000 -259509.82812500
2
Properties=species:S:1:pos:R:3:forces:R:3 energy=-741.5587260577922 pbc="F F F"
Th       0.00000000       0.00000000       0.00000000       0.00000000       0.00000000   46201.07421875
Th       0.00000000       0.00000000       0.94424242       0.00000000       0.00000000  -46201.07421875
2
Properties=species:S:1:pos:R:3:forces:R:3 energy=342.03746576661024 pbc="F F F"
Th       0.00000000       0.00000000       0.00000000       0.00000000       0.00000000    1619.64038086
Th       0.00000000       0.00000000       1.00303030       0.00000000       0.00000000   -1619.64038086
2
Properties=species:S:1:pos:R:3:forces:R:3 energy=225.40746144133445 pbc="F F F"
Th       0.00000000       0.00000000       0.00000000       0.00000000       0.00000000   -2278.32128906
Th       0.00000000       0.00000000       1.06181818       0.00000000       0.00000000    2278.32128906
2
Properties=species:S:1:pos:R:3:forces:R:3 energy=149.94408328269049 pbc="F F F"
Th       0.00000000       0.00000000       0.00000000       0.00000000       0.00000000    -617.58264160
Th       0.00000000       0.00000000       1.12060606       0.00000000       0.00000000     617.58264160
2
Properties=species:S:1:pos:R:3:forces:R:3 energy=128.93471537456662 pbc="F F F"
Th       0.00000000       0.00000000       0.00000000       0.00000000       0.00000000    -272.25369263
Th       0.00000000       0.00000000       1.17939394       0.00000000       0.00000000     272.25369263
2
Properties=species:S:1:pos:R:3:forces:R:3 energy=111.8884596226525 pbc="F F F"
Th       0.00000000       0.00000000       0.00000000       0.00000000       0.00000000    -283.28363037
Th       0.00000000       0.00000000       1.23818182       0.00000000       0.00000000     283.28363037
2
Properties=species:S:1:pos:R:3:forces:R:3 energy=96.09115136908916 pbc="F F F"
Th       0.00000000       0.00000000       0.00000000       0.00000000       0.00000000    -254.58265686
Th       0.00000000       0.00000000       1.29696970       0.00000000       0.00000000     254.58265686
2
Properties=species:S:1:pos:R:3:forces:R:3 energy=81.88757064549475 pbc="F F F"
Th       0.00000000       0.00000000       0.00000000       0.00000000       0.00000000    -229.00138855
Th       0.00000000       0.00000000       1.35575758       0.00000000       0.00000000     229.00138855
2
Properties=species:S:1:pos:R:3:forces:R:3 energy=69.1689376713556 pbc="F F F"
Th       0.00000000       0.00000000       0.00000000       0.00000000       0.00000000    -203.68469238
Th       0.00000000       0.00000000       1.41454545       0.00000000       0.00000000     203.68469238
2
Properties=species:S:1:pos:R:3:forces:R:3 energy=57.89462215678067 pbc="F F F"
Th       0.00000000       0.00000000       0.00000000       0.00000000       0.00000000    -180.57173157
Th       0.00000000       0.00000000       1.47333333       0.00000000       0.00000000     180.57173157
2
Properties=species:S:1:pos:R:3:forces:R:3 energy=47.850638810710215 pbc="F F F"
Th       0.00000000       0.00000000       0.00000000       0.00000000       0.00000000    -161.75210571
Th       0.00000000       0.00000000       1.53212121       0.00000000       0.00000000     161.75210571
2
Properties=species:S:1:pos:R:3:forces:R:3 energy=38.8359493992614 pbc="F F F"
Th       0.00000000       0.00000000       0.00000000       0.00000000       0.00000000    -144.99819946
Th       0.00000000       0.00000000       1.59090909       0.00000000       0.00000000     144.99819946
2
Properties=species:S:1:pos:R:3:forces:R:3 energy=30.810755350588725 pbc="F F F"
Th       0.00000000       0.00000000       0.00000000       0.00000000       0.00000000    -127.94822693
Th       0.00000000       0.00000000       1.64969697       0.00000000       0.00000000     127.94822693
2
Properties=species:S:1:pos:R:3:forces:R:3 energy=23.789854040112292 pbc="F F F"
Th       0.00000000       0.00000000       0.00000000       0.00000000       0.00000000    -110.99196625
Th       0.00000000       0.00000000       1.70848485       0.00000000       0.00000000     110.99196625
2
Properties=species:S:1:pos:R:3:forces:R:3 energy=17.75378307245221 pbc="F F F"
Th       0.00000000       0.00000000       0.00000000       0.00000000       0.00000000     -94.38497925
Th       0.00000000       0.00000000       1.76727273       0.00000000       0.00000000      94.38497925
2
Properties=species:S:1:pos:R:3:forces:R:3 energy=12.683862128524494 pbc="F F F"
Th       0.00000000       0.00000000       0.00000000       0.00000000       0.00000000     -78.27965546
Th       0.00000000       0.00000000       1.82606061       0.00000000       0.00000000      78.27965546
2
Properties=species:S:1:pos:R:3:forces:R:3 energy=8.514013250377175 pbc="F F F"
Th       0.00000000       0.00000000       0.00000000       0.00000000       0.00000000     -63.97153854
Th       0.00000000       0.00000000       1.88484848       0.00000000       0.00000000      63.97153854
2
Properties=species:S:1:pos:R:3:forces:R:3 energy=5.114857444317666 pbc="F F F"
Th       0.00000000       0.00000000       0.00000000       0.00000000       0.00000000     -52.05687714
Th       0.00000000       0.00000000       1.94363636       0.00000000       0.00000000      52.05687714
2
Properties=species:S:1:pos:R:3:forces:R:3 energy=2.352179710222615 pbc="F F F"
Th       0.00000000       0.00000000       0.00000000       0.00000000       0.00000000     -42.24241638
Th       0.00000000       0.00000000       2.00242424       0.00000000       0.00000000      42.24241638
2
Properties=species:S:1:pos:R:3:forces:R:3 energy=0.11606082951085693 pbc="F F F"
Th       0.00000000       0.00000000       0.00000000       0.00000000       0.00000000     -34.06864166
Th       0.00000000       0.00000000       2.06121212       0.00000000       0.00000000      34.06864166
2
Properties=species:S:1:pos:R:3:forces:R:3 energy=-1.677532902952693 pbc="F F F"
Th       0.00000000       0.00000000       0.00000000       0.00000000       0.00000000     -27.12787437
Th       0.00000000       0.00000000       2.12000000       0.00000000       0.00000000      27.12787437
2
Properties=species:S:1:pos:R:3:forces:R:3 energy=-3.092199306186277 pbc="F F F"
Th       0.00000000       0.00000000       0.00000000       0.00000000       0.00000000     -21.14575195
Th       0.00000000       0.00000000       2.17878788       0.00000000       0.00000000      21.14575195
2
Properties=species:S:1:pos:R:3:forces:R:3 energy=-4.180008886655867 pbc="F F F"
Th       0.00000000       0.00000000       0.00000000       0.00000000       0.00000000     -15.99342632
Th       0.00000000       0.00000000       2.23757576       0.00000000       0.00000000      15.99342632
2
Properties=species:S:1:pos:R:3:forces:R:3 energy=-4.987406362678511 pbc="F F F"
Th       0.00000000       0.00000000       0.00000000       0.00000000       0.00000000     -11.59517288
Th       0.00000000       0.00000000       2.29636364       0.00000000       0.00000000      11.59517288
2
Properties=species:S:1:pos:R:3:forces:R:3 energy=-5.556915012306332 pbc="F F F"
Th       0.00000000       0.00000000       0.00000000       0.00000000       0.00000000      -7.89182091
Th       0.00000000       0.00000000       2.35515152       0.00000000       0.00000000       7.89182091
2
Properties=species:S:1:pos:R:3:forces:R:3 energy=-5.928094984133932 pbc="F F F"
Th       0.00000000       0.00000000       0.00000000       0.00000000       0.00000000      -4.84161282
Th       0.00000000       0.00000000       2.41393939       0.00000000       0.00000000       4.84161282
2
Properties=species:S:1:pos:R:3:forces:R:3 energy=-6.138259029872862 pbc="F F F"
Th       0.00000000       0.00000000       0.00000000       0.00000000       0.00000000      -2.40799356
Th       0.00000000       0.00000000       2.47272727       0.00000000       0.00000000       2.40799356
2
Properties=species:S:1:pos:R:3:forces:R:3 energy=-6.222539763733501 pbc="F F F"
Th       0.00000000       0.00000000       0.00000000       0.00000000       0.00000000      -0.55224043
Th       0.00000000       0.00000000       2.53151515       0.00000000       0.00000000       0.55224043
2
Properties=species:S:1:pos:R:3:forces:R:3 energy=-6.213626874465733 pbc="F F F"
Th       0.00000000       0.00000000       0.00000000       0.00000000       0.00000000       0.77175730
Th       0.00000000       0.00000000       2.59030303       0.00000000       0.00000000      -0.77175730
2
Properties=species:S:1:pos:R:3:forces:R:3 energy=-6.140882592430483 pbc="F F F"
Th       0.00000000       0.00000000       0.00000000       0.00000000       0.00000000       1.63344693
Th       0.00000000       0.00000000       2.64909091       0.00000000       0.00000000      -1.63344693
2
Properties=species:S:1:pos:R:3:forces:R:3 energy=-6.028710467695363 pbc="F F F"
Th       0.00000000       0.00000000       0.00000000       0.00000000       0.00000000       2.13106132
Th       0.00000000       0.00000000       2.70787879       0.00000000       0.00000000      -2.13106132
2
Properties=species:S:1:pos:R:3:forces:R:3 energy=-5.895339384596108 pbc="F F F"
Th       0.00000000       0.00000000       0.00000000       0.00000000       0.00000000       2.37182784
Th       0.00000000       0.00000000       2.76666667       0.00000000       0.00000000      -2.37182784
2
Properties=species:S:1:pos:R:3:forces:R:3 energy=-5.75307680028144 pbc="F F F"
Th       0.00000000       0.00000000       0.00000000       0.00000000       0.00000000       2.44652748
Th       0.00000000       0.00000000       2.82545455       0.00000000       0.00000000      -2.44652748
2
Properties=species:S:1:pos:R:3:forces:R:3 energy=-5.609679162034463 pbc="F F F"
Th       0.00000000       0.00000000       0.00000000       0.00000000       0.00000000       2.41885257
Th       0.00000000       0.00000000       2.88424242       0.00000000       0.00000000      -2.41885257
2
Properties=species:S:1:pos:R:3:forces:R:3 energy=-5.469870557593802 pbc="F F F"
Th       0.00000000       0.00000000       0.00000000       0.00000000       0.00000000       2.32993054
Th       0.00000000       0.00000000       2.94303030       0.00000000       0.00000000      -2.32993054
2
Properties=species:S:1:pos:R:3:forces:R:3 energy=-5.336382321528795 pbc="F F F"
Th       0.00000000       0.00000000       0.00000000       0.00000000       0.00000000       2.20788074
Th       0.00000000       0.00000000       3.00181818       0.00000000       0.00000000      -2.20788074
2
Properties=species:S:1:pos:R:3:forces:R:3 energy=-5.210498937757909 pbc="F F F"
Th       0.00000000       0.00000000       0.00000000       0.00000000       0.00000000       2.07451272
Th       0.00000000       0.00000000       3.06060606       0.00000000       0.00000000      -2.07451272
2
Properties=species:S:1:pos:R:3:forces:R:3 energy=-5.092336613819435 pbc="F F F"
Th       0.00000000       0.00000000       0.00000000       0.00000000       0.00000000       1.94782639
Th       0.00000000       0.00000000       3.11939394       0.00000000       0.00000000      -1.94782639
2
Properties=species:S:1:pos:R:3:forces:R:3 energy=-4.981063879077696 pbc="F F F"
Th       0.00000000       0.00000000       0.00000000       0.00000000       0.00000000       1.84219372
Th       0.00000000       0.00000000       3.17818182       0.00000000       0.00000000      -1.84219372
2
Properties=species:S:1:pos:R:3:forces:R:3 energy=-4.875132538634371 pbc="F F F"
Th       0.00000000       0.00000000       0.00000000       0.00000000       0.00000000       1.76738060
Th       0.00000000       0.00000000       3.23696970       0.00000000       0.00000000      -1.76738060
2
Properties=species:S:1:pos:R:3:forces:R:3 energy=-4.772582735068145 pbc="F F F"
Th       0.00000000       0.00000000       0.00000000       0.00000000       0.00000000       1.72709489
Th       0.00000000       0.00000000       3.29575758       0.00000000       0.00000000      -1.72709489
2
Properties=species:S:1:pos:R:3:forces:R:3 energy=-4.67144361836049 pbc="F F F"
Th       0.00000000       0.00000000       0.00000000       0.00000000       0.00000000       1.71838140
Th       0.00000000       0.00000000       3.35454545       0.00000000       0.00000000      -1.71838140
2
Properties=species:S:1:pos:R:3:forces:R:3 energy=-4.570085500472378 pbc="F F F"
Th       0.00000000       0.00000000       0.00000000       0.00000000       0.00000000       1.73286176
Th       0.00000000       0.00000000       3.41333333       0.00000000       0.00000000      -1.73286176
2
Properties=species:S:1:pos:R:3:forces:R:3 energy=-4.467463371748469 pbc="F F F"
Th       0.00000000       0.00000000       0.00000000       0.00000000       0.00000000       1.75952363
Th       0.00000000       0.00000000       3.47212121       0.00000000       0.00000000      -1.75952363
2
Properties=species:S:1:pos:R:3:forces:R:3 energy=-4.363178522280308 pbc="F F F"
Th       0.00000000       0.00000000       0.00000000       0.00000000       0.00000000       1.78786826
Th       0.00000000       0.00000000       3.53090909       0.00000000       0.00000000      -1.78786826
2
Properties=species:S:1:pos:R:3:forces:R:3 energy=-4.257374482036053 pbc="F F F"
Th       0.00000000       0.00000000       0.00000000       0.00000000       0.00000000       1.81011009
Th       0.00000000       0.00000000       3.58969697       0.00000000       0.00000000      -1.81011009
2
Properties=species:S:1:pos:R:3:forces:R:3 energy=-4.150557438649343 pbc="F F F"
Th       0.00000000       0.00000000       0.00000000       0.00000000       0.00000000       1.82195866
Th       0.00000000       0.00000000       3.64848485       0.00000000       0.00000000      -1.82195866
2
Properties=species:S:1:pos:R:3:forces:R:3 energy=-4.043388589844102 pbc="F F F"
Th       0.00000000       0.00000000       0.00000000       0.00000000       0.00000000       1.82205093
Th       0.00000000       0.00000000       3.70727273       0.00000000       0.00000000      -1.82205093
2
Properties=species:S:1:pos:R:3:forces:R:3 energy=-3.936552171247406 pbc="F F F"
Th       0.00000000       0.00000000       0.00000000       0.00000000       0.00000000       1.81062865
Th       0.00000000       0.00000000       3.76606061       0.00000000       0.00000000      -1.81062865
2
Properties=species:S:1:pos:R:3:forces:R:3 energy=-3.8307155034385025 pbc="F F F"
Th       0.00000000       0.00000000       0.00000000       0.00000000       0.00000000       1.78835225
Th       0.00000000       0.00000000       3.82484848       0.00000000       0.00000000      -1.78835225
2
Properties=species:S:1:pos:R:3:forces:R:3 energy=-3.726490517858558 pbc="F F F"
Th       0.00000000       0.00000000       0.00000000       0.00000000       0.00000000       1.75563538
Th       0.00000000       0.00000000       3.88363636       0.00000000       0.00000000      -1.75563538
2
Properties=species:S:1:pos:R:3:forces:R:3 energy=-3.624493538853469 pbc="F F F"
Th       0.00000000       0.00000000       0.00000000       0.00000000       0.00000000       1.71274519
Th       0.00000000       0.00000000       3.94242424       0.00000000       0.00000000      -1.71274519
2
Properties=species:S:1:pos:R:3:forces:R:3 energy=-3.5253048388785357 pbc="F F F"
Th       0.00000000       0.00000000       0.00000000       0.00000000       0.00000000       1.66022921
Th       0.00000000       0.00000000       4.00121212       0.00000000       0.00000000      -1.66022921
2
Properties=species:S:1:pos:R:3:forces:R:3 energy=-3.4294563801165188 pbc="F F F"
Th       0.00000000       0.00000000       0.00000000       0.00000000       0.00000000       1.59933746
Th       0.00000000       0.00000000       4.06000000       0.00000000       0.00000000      -1.59933746
2
Properties=species:S:1:pos:R:3:forces:R:3 energy=-3.3373838796719544 pbc="F F F"
Th       0.00000000       0.00000000       0.00000000       0.00000000       0.00000000       1.53216434
Th       0.00000000       0.00000000       4.11878788       0.00000000       0.00000000      -1.53216434
2
Properties=species:S:1:pos:R:3:forces:R:3 energy=-3.2493800985365824 pbc="F F F"
Th       0.00000000       0.00000000       0.00000000       0.00000000       0.00000000       1.46141982
Th       0.00000000       0.00000000       4.17757576       0.00000000       0.00000000      -1.46141982
2
Properties=species:S:1:pos:R:3:forces:R:3 energy=-3.165568754929819 pbc="F F F"
Th       0.00000000       0.00000000       0.00000000       0.00000000       0.00000000       1.38999200
Th       0.00000000       0.00000000       4.23636364       0.00000000       0.00000000      -1.38999200
2
Properties=species:S:1:pos:R:3:forces:R:3 energy=-3.0859105964689286 pbc="F F F"
Th       0.00000000       0.00000000       0.00000000       0.00000000       0.00000000       1.32048845
Th       0.00000000       0.00000000       4.29515152       0.00000000       0.00000000      -1.32048845
2
Properties=species:S:1:pos:R:3:forces:R:3 energy=-3.010234654345722 pbc="F F F"
Th       0.00000000       0.00000000       0.00000000       0.00000000       0.00000000       1.25492358
Th       0.00000000       0.00000000       4.35393939       0.00000000       0.00000000      -1.25492358
2
Properties=species:S:1:pos:R:3:forces:R:3 energy=-2.938262390959229 pbc="F F F"
Th       0.00000000       0.00000000       0.00000000       0.00000000       0.00000000       1.19452298
Th       0.00000000       0.00000000       4.41272727       0.00000000       0.00000000      -1.19452298
2
Properties=species:S:1:pos:R:3:forces:R:3 energy=-2.8696765038506546 pbc="F F F"
Th       0.00000000       0.00000000       0.00000000       0.00000000       0.00000000       1.13973463
Th       0.00000000       0.00000000       4.47151515       0.00000000       0.00000000      -1.13973463
2
Properties=species:S:1:pos:R:3:forces:R:3 energy=-2.8041506163200745 pbc="F F F"
Th       0.00000000       0.00000000       0.00000000       0.00000000       0.00000000       1.09030581
Th       0.00000000       0.00000000       4.53030303       0.00000000       0.00000000      -1.09030581
2
Properties=species:S:1:pos:R:3:forces:R:3 energy=-2.7413946949977985 pbc="F F F"
Th       0.00000000       0.00000000       0.00000000       0.00000000       0.00000000       1.04538178
Th       0.00000000       0.00000000       4.58909091       0.00000000       0.00000000      -1.04538178
2
Properties=species:S:1:pos:R:3:forces:R:3 energy=-2.6811764148177337 pbc="F F F"
Th       0.00000000       0.00000000       0.00000000       0.00000000       0.00000000       1.00373101
Th       0.00000000       0.00000000       4.64787879       0.00000000       0.00000000      -1.00373101
2
Properties=species:S:1:pos:R:3:forces:R:3 energy=-2.623343602042038 pbc="F F F"
Th       0.00000000       0.00000000       0.00000000       0.00000000       0.00000000       0.96389318
Th       0.00000000       0.00000000       4.70666667       0.00000000       0.00000000      -0.96389318
2
Properties=species:S:1:pos:R:3:forces:R:3 energy=-2.567836619355947 pbc="F F F"
Th       0.00000000       0.00000000       0.00000000       0.00000000       0.00000000       0.92450190
Th       0.00000000       0.00000000       4.76545455       0.00000000       0.00000000      -0.92450190
2
Properties=species:S:1:pos:R:3:forces:R:3 energy=-2.5146559916261695 pbc="F F F"
Th       0.00000000       0.00000000       0.00000000       0.00000000       0.00000000       0.88455957
Th       0.00000000       0.00000000       4.82424242       0.00000000       0.00000000      -0.88455957
2
Properties=species:S:1:pos:R:3:forces:R:3 energy=-2.463853151925812 pbc="F F F"
Th       0.00000000       0.00000000       0.00000000       0.00000000       0.00000000       0.84382373
Th       0.00000000       0.00000000       4.88303030       0.00000000       0.00000000      -0.84382373
2
Properties=species:S:1:pos:R:3:forces:R:3 energy=-2.4154450243266194 pbc="F F F"
Th       0.00000000       0.00000000       0.00000000       0.00000000       0.00000000       0.80305904
Th       0.00000000       0.00000000       4.94181818       0.00000000       0.00000000      -0.80305904
2
Properties=species:S:1:pos:R:3:forces:R:3 energy=-2.369393783662327 pbc="F F F"
Th       0.00000000       0.00000000       0.00000000       0.00000000       0.00000000       0.76407355
Th       0.00000000       0.00000000       5.00060606       0.00000000       0.00000000      -0.76407355
2
Properties=species:S:1:pos:R:3:forces:R:3 energy=-2.325523202285617 pbc="F F F"
Th       0.00000000       0.00000000       0.00000000       0.00000000       0.00000000       0.72933936
Th       0.00000000       0.00000000       5.05939394       0.00000000       0.00000000      -0.72933936
2
Properties=species:S:1:pos:R:3:forces:R:3 energy=-2.2835133161603607 pbc="F F F"
Th       0.00000000       0.00000000       0.00000000       0.00000000       0.00000000       0.70103562
Th       0.00000000       0.00000000       5.11818182       0.00000000       0.00000000      -0.70103562
2
Properties=species:S:1:pos:R:3:forces:R:3 energy=-2.242966460472381 pbc="F F F"
Th       0.00000000       0.00000000       0.00000000       0.00000000       0.00000000       0.67945951
Th       0.00000000       0.00000000       5.17696970       0.00000000       0.00000000      -0.67945951
2
Properties=species:S:1:pos:R:3:forces:R:3 energy=-2.2035645498639322 pbc="F F F"
Th       0.00000000       0.00000000       0.00000000       0.00000000       0.00000000       0.66103917
Th       0.00000000       0.00000000       5.23575758       0.00000000       0.00000000      -0.66103917
2
Properties=species:S:1:pos:R:3:forces:R:3 energy=-2.165351309010555 pbc="F F F"
Th       0.00000000       0.00000000       0.00000000       0.00000000       0.00000000       0.63727337
Th       0.00000000       0.00000000       5.29454545       0.00000000       0.00000000      -0.63727337
2
Properties=species:S:1:pos:R:3:forces:R:3 energy=-2.1289125043955894 pbc="F F F"
Th       0.00000000       0.00000000       0.00000000       0.00000000       0.00000000       0.59991956
Th       0.00000000       0.00000000       5.35333333       0.00000000       0.00000000      -0.59991956
2
Properties=species:S:1:pos:R:3:forces:R:3 energy=-2.0949268754128405 pbc="F F F"
Th       0.00000000       0.00000000       0.00000000       0.00000000       0.00000000       0.55764520
Th       0.00000000       0.00000000       5.41212121       0.00000000       0.00000000      -0.55764520
2
Properties=species:S:1:pos:R:3:forces:R:3 energy=-2.062883592130572 pbc="F F F"
Th       0.00000000       0.00000000       0.00000000       0.00000000       0.00000000       0.53753656
Th       0.00000000       0.00000000       5.47090909       0.00000000       0.00000000      -0.53753656
2
Properties=species:S:1:pos:R:3:forces:R:3 energy=-2.0314608006386736 pbc="F F F"
Th       0.00000000       0.00000000       0.00000000       0.00000000       0.00000000       0.52908355
Th       0.00000000       0.00000000       5.52969697       0.00000000       0.00000000      -0.52908355
2
Properties=species:S:1:pos:R:3:forces:R:3 energy=-2.001366962625868 pbc="F F F"
Th       0.00000000       0.00000000       0.00000000       0.00000000       0.00000000       0.48803663
Th       0.00000000       0.00000000       5.58848485       0.00000000       0.00000000      -0.48803663
2
Properties=species:S:1:pos:R:3:forces:R:3 energy=-1.9745473741738306 pbc="F F F"
Th       0.00000000       0.00000000       0.00000000       0.00000000       0.00000000       0.42474732
Th       0.00000000       0.00000000       5.64727273       0.00000000       0.00000000      -0.42474732
2
Properties=species:S:1:pos:R:3:forces:R:3 energy=-1.950734145211381 pbc="F F F"
Th       0.00000000       0.00000000       0.00000000       0.00000000       0.00000000       0.39681348
Th       0.00000000       0.00000000       5.70606061       0.00000000       0.00000000      -0.39681348
2
Properties=species:S:1:pos:R:3:forces:R:3 energy=-1.9265237148503787 pbc="F F F"
Th       0.00000000       0.00000000       0.00000000       0.00000000       0.00000000       0.43050781
Th       0.00000000       0.00000000       5.76484848       0.00000000       0.00000000      -0.43050781
2
Properties=species:S:1:pos:R:3:forces:R:3 energy=-1.9010879553721 pbc="F F F"
Th       0.00000000       0.00000000       0.00000000       0.00000000       0.00000000       0.41564471
Th       0.00000000       0.00000000       5.82363636       0.00000000       0.00000000      -0.41564471
2
Properties=species:S:1:pos:R:3:forces:R:3 energy=-1.880400107527688 pbc="F F F"
Th       0.00000000       0.00000000       0.00000000       0.00000000       0.00000000       0.27294612
Th       0.00000000       0.00000000       5.88242424       0.00000000       0.00000000      -0.27294612
2
Properties=species:S:1:pos:R:3:forces:R:3 energy=-1.8695035634346442 pbc="F F F"
Th       0.00000000       0.00000000       0.00000000       0.00000000       0.00000000       0.10431752
Th       0.00000000       0.00000000       5.94121212       0.00000000       0.00000000      -0.10431752
2
Properties=species:S:1:pos:R:3:forces:R:3 energy=-1.8661054021332155 pbc="F F F"
Th       0.00000000       0.00000000       0.00000000       0.00000000       0.00000000       0.03418691
Th       0.00000000       0.00000000       6.00000000       0.00000000       0.00000000      -0.03418691
