2
Properties=species:S:1:pos:R:3:forces:R:3 energy=17685.41384647844 pbc="F F F"
Tl       0.00000000       0.00000000       0.00000000       0.00000000       0.00000000 -296485.87500000
Tl       0.00000000       0.00000000       0.18000000       0.00000000       0.00000000  296485.87500000
2
Properties=species:S:1:pos:R:3:forces:R:3 energy=7368.88259647844 pbc="F F F"
Tl       0.00000000       0.00000000       0.00000000       0.00000000       0.00000000  -97030.90625000
Tl       0.00000000       0.00000000       0.23878788       0.00000000       0.00000000   97030.90625000
2
Properties=species:S:1:pos:R:3:forces:R:3 energy=3727.8908972596905 pbc="F F F"
Tl       0.00000000       0.00000000       0.00000000       0.00000000       0.00000000  -37473.81250000
Tl       0.00000000       0.00000000       0.29757576       0.00000000       0.00000000   37473.81250000
2
Properties=species:S:1:pos:R:3:forces:R:3 energy=2248.1819128846905 pbc="F F F"
Tl       0.00000000       0.00000000       0.00000000       0.00000000       0.00000000  -16237.93457031
Tl       0.00000000       0.00000000       0.35636364       0.00000000       0.00000000   16237.93457031
2
Properties=species:S:1:pos:R:3:forces:R:3 energy=1575.6799597628583 pbc="F F F"
Tl       0.00000000       0.00000000       0.00000000       0.00000000       0.00000000   -7862.54443359
Tl       0.00000000       0.00000000       0.41515152       0.00000000       0.00000000    7862.54443359
2
Properties=species:S:1:pos:R:3:forces:R:3 energy=1233.7398962894636 pbc="F F F"
Tl       0.00000000       0.00000000       0.00000000       0.00000000       0.00000000   -4266.00000000
Tl       0.00000000       0.00000000       0.47393939       0.00000000       0.00000000    4266.00000000
2
Properties=species:S:1:pos:R:3:forces:R:3 energy=1031.540189264549 pbc="F F F"
Tl       0.00000000       0.00000000       0.00000000       0.00000000       0.00000000   -2839.71166992
Tl       0.00000000       0.00000000       0.53272727       0.00000000       0.00000000    2839.71166992
2
Properties=species:S:1:pos:R:3:forces:R:3 energy=883.0655188733998 pbc="F F F"
Tl       0.00000000       0.00000000       0.00000000       0.00000000       0.00000000   -2302.34472656
Tl       0.00000000       0.00000000       0.59151515       0.00000000       0.00000000    2302.34472656
2
Properties=species:S:1:pos:R:3:forces:R:3 energy=753.8446326682737 pbc="F F F"
Tl       0.00000000       0.00000000       0.00000000       0.00000000       0.00000000   -2128.84179688
Tl       0.00000000       0.00000000       0.65030303       0.00000000       0.00000000    2128.84179688
2
Properties=species:S:1:pos:R:3:forces:R:3 energy=630.6673255710457 pbc="F F F"
Tl       0.00000000       0.00000000       0.00000000       0.00000000       0.00000000   -2065.44140625
Tl       0.00000000       0.00000000       0.70909091       0.00000000       0.00000000    2065.44140625
2
Properties=species:S:1:pos:R:3:forces:R:3 energy=512.151334417129 pbc="F F F"
Tl       0.00000000       0.00000000       0.00000000       0.00000000       0.00000000   -1939.65563965
Tl       0.00000000       0.00000000       0.76787879       0.00000000       0.00000000    1939.65563965
2
Properties=species:S:1:pos:R:3:forces:R:3 energy=407.6130959804373 pbc="F F F"
Tl       0.00000000       0.00000000       0.00000000       0.00000000       0.00000000   -1580.01501465
Tl       0.00000000       0.00000000       0.82666667       0.00000000       0.00000000    1580.01501465
2
Properties=species:S:1:pos:R:3:forces:R:3 energy=324.1868876110565 pbc="F F F"
Tl       0.00000000       0.00000000       0.00000000       0.00000000       0.00000000   -1294.00830078
Tl       0.00000000       0.00000000       0.88545455       0.00000000       0.00000000    1294.00830078
2
Properties=species:S:1:pos:R:3:forces:R:3 energy=255.13992122621667 pbc="F F F"
Tl       0.00000000       0.00000000       0.00000000       0.00000000       0.00000000   -1048.35827637
Tl       0.00000000       0.00000000       0.94424242       0.00000000       0.00000000    1048.35827637
2
Properties=species:S:1:pos:R:3:forces:R:3 energy=201.3038771522799 pbc="F F F"
Tl       0.00000000       0.00000000       0.00000000       0.00000000       0.00000000    -791.06555176
Tl       0.00000000       0.00000000       1.00303030       0.00000000       0.00000000     791.06555176
2
Properties=species:S:1:pos:R:3:forces:R:3 energy=160.72735464824933 pbc="F F F"
Tl       0.00000000       0.00000000       0.00000000       0.00000000       0.00000000    -598.52716064
Tl       0.00000000       0.00000000       1.06181818       0.00000000       0.00000000     598.52716064
2
Properties=species:S:1:pos:R:3:forces:R:3 energy=129.94229037547186 pbc="F F F"
Tl       0.00000000       0.00000000       0.00000000       0.00000000       0.00000000    -456.92010498
Tl       0.00000000       0.00000000       1.12060606       0.00000000       0.00000000     456.92010498
2
Properties=species:S:1:pos:R:3:forces:R:3 energy=106.34448971817683 pbc="F F F"
Tl       0.00000000       0.00000000       0.00000000       0.00000000       0.00000000    -349.88214111
Tl       0.00000000       0.00000000       1.17939394       0.00000000       0.00000000     349.88214111
2
Properties=species:S:1:pos:R:3:forces:R:3 energy=88.13843575294028 pbc="F F F"
Tl       0.00000000       0.00000000       0.00000000       0.00000000       0.00000000    -276.62716675
Tl       0.00000000       0.00000000       1.23818182       0.00000000       0.00000000     276.62716675
2
Properties=species:S:1:pos:R:3:forces:R:3 energy=73.15854012619855 pbc="F F F"
Tl       0.00000000       0.00000000       0.00000000       0.00000000       0.00000000    -235.95120239
Tl       0.00000000       0.00000000       1.29696970       0.00000000       0.00000000     235.95120239
2
Properties=species:S:1:pos:R:3:forces:R:3 energy=60.331202110090345 pbc="F F F"
Tl       0.00000000       0.00000000       0.00000000       0.00000000       0.00000000    -199.54475403
Tl       0.00000000       0.00000000       1.35575758       0.00000000       0.00000000     199.54475403
2
Properties=species:S:1:pos:R:3:forces:R:3 energy=49.75333034047589 pbc="F F F"
Tl       0.00000000       0.00000000       0.00000000       0.00000000       0.00000000    -161.08946228
Tl       0.00000000       0.00000000       1.41454545       0.00000000       0.00000000     161.08946228
2
Properties=species:S:1:pos:R:3:forces:R:3 energy=41.189302452530995 pbc="F F F"
Tl       0.00000000       0.00000000       0.00000000       0.00000000       0.00000000    -132.21153259
Tl       0.00000000       0.00000000       1.47333333       0.00000000       0.00000000     132.21153259
2
Properties=species:S:1:pos:R:3:forces:R:3 energy=34.02829393415465 pbc="F F F"
Tl       0.00000000       0.00000000       0.00000000       0.00000000       0.00000000    -112.46463776
Tl       0.00000000       0.00000000       1.53212121       0.00000000       0.00000000     112.46463776
2
Properties=species:S:1:pos:R:3:forces:R:3 energy=27.883025363547805 pbc="F F F"
Tl       0.00000000       0.00000000       0.00000000       0.00000000       0.00000000     -97.06385040
Tl       0.00000000       0.00000000       1.59090909       0.00000000       0.00000000      97.06385040
2
Properties=species:S:1:pos:R:3:forces:R:3 energy=22.57813136240452 pbc="F F F"
Tl       0.00000000       0.00000000       0.00000000       0.00000000       0.00000000     -83.63743591
Tl       0.00000000       0.00000000       1.64969697       0.00000000       0.00000000      83.63743591
2
Properties=species:S:1:pos:R:3:forces:R:3 energy=18.02859387413611 pbc="F F F"
Tl       0.00000000       0.00000000       0.00000000       0.00000000       0.00000000     -71.28806305
Tl       0.00000000       0.00000000       1.70848485       0.00000000       0.00000000      71.28806305
2
Properties=species:S:1:pos:R:3:forces:R:3 energy=14.178932074759857 pbc="F F F"
Tl       0.00000000       0.00000000       0.00000000       0.00000000       0.00000000     -59.84291077
Tl       0.00000000       0.00000000       1.76727273       0.00000000       0.00000000      59.84291077
2
Properties=species:S:1:pos:R:3:forces:R:3 energy=10.970768809219361 pbc="F F F"
Tl       0.00000000       0.00000000       0.00000000       0.00000000       0.00000000     -49.50489044
Tl       0.00000000       0.00000000       1.82606061       0.00000000       0.00000000      49.50489044
2
Properties=species:S:1:pos:R:3:forces:R:3 energy=8.333411210350016 pbc="F F F"
Tl       0.00000000       0.00000000       0.00000000       0.00000000       0.00000000     -40.43340683
Tl       0.00000000       0.00000000       1.88484848       0.00000000       0.00000000      40.43340683
2
Properties=species:S:1:pos:R:3:forces:R:3 energy=6.191924944465002 pbc="F F F"
Tl       0.00000000       0.00000000       0.00000000       0.00000000       0.00000000     -32.63074493
Tl       0.00000000       0.00000000       1.94363636       0.00000000       0.00000000      32.63074493
2
Properties=species:S:1:pos:R:3:forces:R:3 energy=4.472269785562993 pbc="F F F"
Tl       0.00000000       0.00000000       0.00000000       0.00000000       0.00000000     -26.07946587
Tl       0.00000000       0.00000000       2.00242424       0.00000000       0.00000000      26.07946587
2
Properties=species:S:1:pos:R:3:forces:R:3 energy=3.102145483265123 pbc="F F F"
Tl       0.00000000       0.00000000       0.00000000       0.00000000       0.00000000     -20.72287941
Tl       0.00000000       0.00000000       2.06121212       0.00000000       0.00000000      20.72287941
2
Properties=species:S:1:pos:R:3:forces:R:3 energy=2.014999353382397 pbc="F F F"
Tl       0.00000000       0.00000000       0.00000000       0.00000000       0.00000000     -16.42463684
Tl       0.00000000       0.00000000       2.12000000       0.00000000       0.00000000      16.42463684
2
Properties=species:S:1:pos:R:3:forces:R:3 energy=1.1537265437668087 pbc="F F F"
Tl       0.00000000       0.00000000       0.00000000       0.00000000       0.00000000     -13.00851440
Tl       0.00000000       0.00000000       2.17878788       0.00000000       0.00000000      13.00851440
2
Properties=species:S:1:pos:R:3:forces:R:3 energy=0.4715713941725932 pbc="F F F"
Tl       0.00000000       0.00000000       0.00000000       0.00000000       0.00000000     -10.30452442
Tl       0.00000000       0.00000000       2.23757576       0.00000000       0.00000000      10.30452442
2
Properties=species:S:1:pos:R:3:forces:R:3 energy=-0.0689198547823674 pbc="F F F"
Tl       0.00000000       0.00000000       0.00000000       0.00000000       0.00000000      -8.16710091
Tl       0.00000000       0.00000000       2.29636364       0.00000000       0.00000000       8.16710091
2
Properties=species:S:1:pos:R:3:forces:R:3 energy=-0.4974166433898568 pbc="F F F"
Tl       0.00000000       0.00000000       0.00000000       0.00000000       0.00000000      -6.47638273
Tl       0.00000000       0.00000000       2.35515152       0.00000000       0.00000000       6.47638273
2
Properties=species:S:1:pos:R:3:forces:R:3 energy=-0.8372019257254629 pbc="F F F"
Tl       0.00000000       0.00000000       0.00000000       0.00000000       0.00000000      -5.13406801
Tl       0.00000000       0.00000000       2.41393939       0.00000000       0.00000000       5.13406801
2
Properties=species:S:1:pos:R:3:forces:R:3 energy=-1.106309319732891 pbc="F F F"
Tl       0.00000000       0.00000000       0.00000000       0.00000000       0.00000000      -4.06013536
Tl       0.00000000       0.00000000       2.47272727       0.00000000       0.00000000       4.06013536
2
Properties=species:S:1:pos:R:3:forces:R:3 energy=-1.3185844471197432 pbc="F F F"
Tl       0.00000000       0.00000000       0.00000000       0.00000000       0.00000000      -3.19141841
Tl       0.00000000       0.00000000       2.53151515       0.00000000       0.00000000       3.19141841
2
Properties=species:S:1:pos:R:3:forces:R:3 energy=-1.4846251560311388 pbc="F F F"
Tl       0.00000000       0.00000000       0.00000000       0.00000000       0.00000000      -2.48044395
Tl       0.00000000       0.00000000       2.59030303       0.00000000       0.00000000       2.48044395
2
Properties=species:S:1:pos:R:3:forces:R:3 energy=-1.6126401144543667 pbc="F F F"
Tl       0.00000000       0.00000000       0.00000000       0.00000000       0.00000000      -1.89301145
Tl       0.00000000       0.00000000       2.64909091       0.00000000       0.00000000       1.89301145
2
Properties=species:S:1:pos:R:3:forces:R:3 energy=-1.7091378361606913 pbc="F F F"
Tl       0.00000000       0.00000000       0.00000000       0.00000000       0.00000000      -1.40480018
Tl       0.00000000       0.00000000       2.70787879       0.00000000       0.00000000       1.40480018
2
Properties=species:S:1:pos:R:3:forces:R:3 energy=-1.7794067923672192 pbc="F F F"
Tl       0.00000000       0.00000000       0.00000000       0.00000000       0.00000000      -0.99821264
Tl       0.00000000       0.00000000       2.76666667       0.00000000       0.00000000       0.99821264
2
Properties=species:S:1:pos:R:3:forces:R:3 energy=-1.8278436305889956 pbc="F F F"
Tl       0.00000000       0.00000000       0.00000000       0.00000000       0.00000000      -0.66011721
Tl       0.00000000       0.00000000       2.82545455       0.00000000       0.00000000       0.66011721
2
Properties=species:S:1:pos:R:3:forces:R:3 energy=-1.8581642199269015 pbc="F F F"
Tl       0.00000000       0.00000000       0.00000000       0.00000000       0.00000000      -0.38047037
Tl       0.00000000       0.00000000       2.88424242       0.00000000       0.00000000       0.38047037
2
Properties=species:S:1:pos:R:3:forces:R:3 energy=-1.87356642292893 pbc="F F F"
Tl       0.00000000       0.00000000       0.00000000       0.00000000       0.00000000      -0.15136702
Tl       0.00000000       0.00000000       2.94303030       0.00000000       0.00000000       0.15136702
2
Properties=species:S:1:pos:R:3:forces:R:3 energy=-1.876823090835256 pbc="F F F"
Tl       0.00000000       0.00000000       0.00000000       0.00000000       0.00000000       0.03376139
Tl       0.00000000       0.00000000       3.00181818       0.00000000       0.00000000      -0.03376139
2
Properties=species:S:1:pos:R:3:forces:R:3 energy=-1.87034228210844 pbc="F F F"
Tl       0.00000000       0.00000000       0.00000000       0.00000000       0.00000000       0.18087327
Tl       0.00000000       0.00000000       3.06060606       0.00000000       0.00000000      -0.18087327
2
Properties=species:S:1:pos:R:3:forces:R:3 energy=-1.8561881869196588 pbc="F F F"
Tl       0.00000000       0.00000000       0.00000000       0.00000000       0.00000000       0.29578003
Tl       0.00000000       0.00000000       3.11939394       0.00000000       0.00000000      -0.29578003
2
Properties=species:S:1:pos:R:3:forces:R:3 energy=-1.836083342288305 pbc="F F F"
Tl       0.00000000       0.00000000       0.00000000       0.00000000       0.00000000       0.38426200
Tl       0.00000000       0.00000000       3.17818182       0.00000000       0.00000000      -0.38426200
2
Properties=species:S:1:pos:R:3:forces:R:3 energy=-1.8114170294336136 pbc="F F F"
Tl       0.00000000       0.00000000       0.00000000       0.00000000       0.00000000       0.45184740
Tl       0.00000000       0.00000000       3.23696970       0.00000000       0.00000000      -0.45184740
2
Properties=species:S:1:pos:R:3:forces:R:3 energy=-1.783268936410847 pbc="F F F"
Tl       0.00000000       0.00000000       0.00000000       0.00000000       0.00000000       0.50347811
Tl       0.00000000       0.00000000       3.29575758       0.00000000       0.00000000      -0.50347811
2
Properties=species:S:1:pos:R:3:forces:R:3 energy=-1.7524529267513078 pbc="F F F"
Tl       0.00000000       0.00000000       0.00000000       0.00000000       0.00000000       0.54321176
Tl       0.00000000       0.00000000       3.35454545       0.00000000       0.00000000      -0.54321176
2
Properties=species:S:1:pos:R:3:forces:R:3 energy=-1.7195725267702413 pbc="F F F"
Tl       0.00000000       0.00000000       0.00000000       0.00000000       0.00000000       0.57411355
Tl       0.00000000       0.00000000       3.41333333       0.00000000       0.00000000      -0.57411355
2
Properties=species:S:1:pos:R:3:forces:R:3 energy=-1.685081388146524 pbc="F F F"
Tl       0.00000000       0.00000000       0.00000000       0.00000000       0.00000000       0.59829360
Tl       0.00000000       0.00000000       3.47212121       0.00000000       0.00000000      -0.59829360
2
Properties=species:S:1:pos:R:3:forces:R:3 energy=-1.6493348561876888 pbc="F F F"
Tl       0.00000000       0.00000000       0.00000000       0.00000000       0.00000000       0.61700344
Tl       0.00000000       0.00000000       3.53090909       0.00000000       0.00000000      -0.61700344
2
Properties=species:S:1:pos:R:3:forces:R:3 energy=-1.6126321577920226 pbc="F F F"
Tl       0.00000000       0.00000000       0.00000000       0.00000000       0.00000000       0.63084328
Tl       0.00000000       0.00000000       3.58969697       0.00000000       0.00000000      -0.63084328
2
Properties=species:S:1:pos:R:3:forces:R:3 energy=-1.5752527381561288 pbc="F F F"
Tl       0.00000000       0.00000000       0.00000000       0.00000000       0.00000000       0.64007401
Tl       0.00000000       0.00000000       3.64848485       0.00000000       0.00000000      -0.64007401
2
Properties=species:S:1:pos:R:3:forces:R:3 energy=-1.5374615501733258 pbc="F F F"
Tl       0.00000000       0.00000000       0.00000000       0.00000000       0.00000000       0.64491332
Tl       0.00000000       0.00000000       3.70727273       0.00000000       0.00000000      -0.64491332
2
Properties=species:S:1:pos:R:3:forces:R:3 energy=-1.4995072085851047 pbc="F F F"
Tl       0.00000000       0.00000000       0.00000000       0.00000000       0.00000000       0.64563966
Tl       0.00000000       0.00000000       3.76606061       0.00000000       0.00000000      -0.64563966
2
Properties=species:S:1:pos:R:3:forces:R:3 energy=-1.4616239579979309 pbc="F F F"
Tl       0.00000000       0.00000000       0.00000000       0.00000000       0.00000000       0.64259446
Tl       0.00000000       0.00000000       3.82484848       0.00000000       0.00000000      -0.64259446
2
Properties=species:S:1:pos:R:3:forces:R:3 energy=-1.424020817494149 pbc="F F F"
Tl       0.00000000       0.00000000       0.00000000       0.00000000       0.00000000       0.63613170
Tl       0.00000000       0.00000000       3.88363636       0.00000000       0.00000000      -0.63613170
2
Properties=species:S:1:pos:R:3:forces:R:3 energy=-1.3868899736315028 pbc="F F F"
Tl       0.00000000       0.00000000       0.00000000       0.00000000       0.00000000       0.62660110
Tl       0.00000000       0.00000000       3.94242424       0.00000000       0.00000000      -0.62660110
2
Properties=species:S:1:pos:R:3:forces:R:3 energy=-1.3504015965909655 pbc="F F F"
Tl       0.00000000       0.00000000       0.00000000       0.00000000       0.00000000       0.61433989
Tl       0.00000000       0.00000000       4.00121212       0.00000000       0.00000000      -0.61433989
2
Properties=species:S:1:pos:R:3:forces:R:3 energy=-1.3147056813371434 pbc="F F F"
Tl       0.00000000       0.00000000       0.00000000       0.00000000       0.00000000       0.59968364
Tl       0.00000000       0.00000000       4.06000000       0.00000000       0.00000000      -0.59968364
2
Properties=species:S:1:pos:R:3:forces:R:3 energy=-1.2799330563135205 pbc="F F F"
Tl       0.00000000       0.00000000       0.00000000       0.00000000       0.00000000       0.58300114
Tl       0.00000000       0.00000000       4.11878788       0.00000000       0.00000000      -0.58300114
2
Properties=species:S:1:pos:R:3:forces:R:3 energy=-1.2461902554431372 pbc="F F F"
Tl       0.00000000       0.00000000       0.00000000       0.00000000       0.00000000       0.56471145
Tl       0.00000000       0.00000000       4.17757576       0.00000000       0.00000000      -0.56471145
2
Properties=species:S:1:pos:R:3:forces:R:3 energy=-1.2135582460082237 pbc="F F F"
Tl       0.00000000       0.00000000       0.00000000       0.00000000       0.00000000       0.54530096
Tl       0.00000000       0.00000000       4.23636364       0.00000000       0.00000000      -0.54530096
2
Properties=species:S:1:pos:R:3:forces:R:3 energy=-1.18208680997448 pbc="F F F"
Tl       0.00000000       0.00000000       0.00000000       0.00000000       0.00000000       0.52530813
Tl       0.00000000       0.00000000       4.29515152       0.00000000       0.00000000      -0.52530813
2
Properties=species:S:1:pos:R:3:forces:R:3 energy=-1.151795816447477 pbc="F F F"
Tl       0.00000000       0.00000000       0.00000000       0.00000000       0.00000000       0.50529414
Tl       0.00000000       0.00000000       4.35393939       0.00000000       0.00000000      -0.50529414
2
Properties=species:S:1:pos:R:3:forces:R:3 energy=-1.1226675816067078 pbc="F F F"
Tl       0.00000000       0.00000000       0.00000000       0.00000000       0.00000000       0.48577467
Tl       0.00000000       0.00000000       4.41272727       0.00000000       0.00000000      -0.48577467
2
Properties=species:S:1:pos:R:3:forces:R:3 energy=-1.0946624704513586 pbc="F F F"
Tl       0.00000000       0.00000000       0.00000000       0.00000000       0.00000000       0.46713671
Tl       0.00000000       0.00000000       4.47151515       0.00000000       0.00000000      -0.46713671
2
Properties=species:S:1:pos:R:3:forces:R:3 energy=-1.0677220817730364 pbc="F F F"
Tl       0.00000000       0.00000000       0.00000000       0.00000000       0.00000000       0.44955957
Tl       0.00000000       0.00000000       4.53030303       0.00000000       0.00000000      -0.44955957
2
Properties=species:S:1:pos:R:3:forces:R:3 energy=-1.0417864257967997 pbc="F F F"
Tl       0.00000000       0.00000000       0.00000000       0.00000000       0.00000000       0.43293628
Tl       0.00000000       0.00000000       4.58909091       0.00000000       0.00000000      -0.43293628
2
Properties=species:S:1:pos:R:3:forces:R:3 energy=-1.0168091397886643 pbc="F F F"
Tl       0.00000000       0.00000000       0.00000000       0.00000000       0.00000000       0.41685748
Tl       0.00000000       0.00000000       4.64787879       0.00000000       0.00000000      -0.41685748
2
Properties=species:S:1:pos:R:3:forces:R:3 energy=-0.9927757397481917 pbc="F F F"
Tl       0.00000000       0.00000000       0.00000000       0.00000000       0.00000000       0.40067255
Tl       0.00000000       0.00000000       4.70666667       0.00000000       0.00000000      -0.40067255
2
Properties=species:S:1:pos:R:3:forces:R:3 energy=-0.9697159579859828 pbc="F F F"
Tl       0.00000000       0.00000000       0.00000000       0.00000000       0.00000000       0.38366142
Tl       0.00000000       0.00000000       4.76545455       0.00000000       0.00000000      -0.38366142
2
Properties=species:S:1:pos:R:3:forces:R:3 energy=-0.9476925817999692 pbc="F F F"
Tl       0.00000000       0.00000000       0.00000000       0.00000000       0.00000000       0.36532369
Tl       0.00000000       0.00000000       4.82424242       0.00000000       0.00000000      -0.36532369
2
Properties=species:S:1:pos:R:3:forces:R:3 energy=-0.9267894786934827 pbc="F F F"
Tl       0.00000000       0.00000000       0.00000000       0.00000000       0.00000000       0.34570053
Tl       0.00000000       0.00000000       4.88303030       0.00000000       0.00000000      -0.34570053
2
Properties=species:S:1:pos:R:3:forces:R:3 energy=-0.9070556181103436 pbc="F F F"
Tl       0.00000000       0.00000000       0.00000000       0.00000000       0.00000000       0.32566807
Tl       0.00000000       0.00000000       4.94181818       0.00000000       0.00000000      -0.32566807
2
Properties=species:S:1:pos:R:3:forces:R:3 energy=-0.888470007480647 pbc="F F F"
Tl       0.00000000       0.00000000       0.00000000       0.00000000       0.00000000       0.30702659
Tl       0.00000000       0.00000000       5.00060606       0.00000000       0.00000000      -0.30702659
2
Properties=species:S:1:pos:R:3:forces:R:3 energy=-0.8708812441914693 pbc="F F F"
Tl       0.00000000       0.00000000       0.00000000       0.00000000       0.00000000       0.29220128
Tl       0.00000000       0.00000000       5.05939394       0.00000000       0.00000000      -0.29220128
2
Properties=species:S:1:pos:R:3:forces:R:3 energy=-0.8539938649552632 pbc="F F F"
Tl       0.00000000       0.00000000       0.00000000       0.00000000       0.00000000       0.28346914
Tl       0.00000000       0.00000000       5.11818182       0.00000000       0.00000000      -0.28346914
2
Properties=species:S:1:pos:R:3:forces:R:3 energy=-0.8374159198198547 pbc="F F F"
Tl       0.00000000       0.00000000       0.00000000       0.00000000       0.00000000       0.28163743
Tl       0.00000000       0.00000000       5.17696970       0.00000000       0.00000000      -0.28163743
2
Properties=species:S:1:pos:R:3:forces:R:3 energy=-0.8207895368507705 pbc="F F F"
Tl       0.00000000       0.00000000       0.00000000       0.00000000       0.00000000       0.28436410
Tl       0.00000000       0.00000000       5.23575758       0.00000000       0.00000000      -0.28436410
2
Properties=species:S:1:pos:R:3:forces:R:3 energy=-0.8040238665864867 pbc="F F F"
Tl       0.00000000       0.00000000       0.00000000       0.00000000       0.00000000       0.28490081
Tl       0.00000000       0.00000000       5.29454545       0.00000000       0.00000000      -0.28490081
2
Properties=species:S:1:pos:R:3:forces:R:3 energy=-0.7875062011062475 pbc="F F F"
Tl       0.00000000       0.00000000       0.00000000       0.00000000       0.00000000       0.27479672
Tl       0.00000000       0.00000000       5.35333333       0.00000000       0.00000000      -0.27479672
2
Properties=species:S:1:pos:R:3:forces:R:3 energy=-0.7718870971177622 pbc="F F F"
Tl       0.00000000       0.00000000       0.00000000       0.00000000       0.00000000       0.25676906
Tl       0.00000000       0.00000000       5.41212121       0.00000000       0.00000000      -0.25676906
2
Properties=species:S:1:pos:R:3:forces:R:3 energy=-0.7569816191836829 pbc="F F F"
Tl       0.00000000       0.00000000       0.00000000       0.00000000       0.00000000       0.25520787
Tl       0.00000000       0.00000000       5.47090909       0.00000000       0.00000000      -0.25520787
2
Properties=species:S:1:pos:R:3:forces:R:3 energy=-0.7414605591512687 pbc="F F F"
Tl       0.00000000       0.00000000       0.00000000       0.00000000       0.00000000       0.27251953
Tl       0.00000000       0.00000000       5.52969697       0.00000000       0.00000000      -0.27251953
2
Properties=species:S:1:pos:R:3:forces:R:3 energy=-0.7254975970521742 pbc="F F F"
Tl       0.00000000       0.00000000       0.00000000       0.00000000       0.00000000       0.26361972
Tl       0.00000000       0.00000000       5.58848485       0.00000000       0.00000000      -0.26361972
2
Properties=species:S:1:pos:R:3:forces:R:3 energy=-0.7110647444875549 pbc="F F F"
Tl       0.00000000       0.00000000       0.00000000       0.00000000       0.00000000       0.22596584
Tl       0.00000000       0.00000000       5.64727273       0.00000000       0.00000000      -0.22596584
2
Properties=species:S:1:pos:R:3:forces:R:3 energy=-0.6985229567790283 pbc="F F F"
Tl       0.00000000       0.00000000       0.00000000       0.00000000       0.00000000       0.20925587
Tl       0.00000000       0.00000000       5.70606061       0.00000000       0.00000000      -0.20925587
2
Properties=species:S:1:pos:R:3:forces:R:3 energy=-0.6852998556094213 pbc="F F F"
Tl       0.00000000       0.00000000       0.00000000       0.00000000       0.00000000       0.24573945
Tl       0.00000000       0.00000000       5.76484848       0.00000000       0.00000000      -0.24573945
2
Properties=species:S:1:pos:R:3:forces:R:3 energy=-0.6701649808751727 pbc="F F F"
Tl       0.00000000       0.00000000       0.00000000       0.00000000       0.00000000       0.25526229
Tl       0.00000000       0.00000000       5.82363636       0.00000000       0.00000000      -0.25526229
2
Properties=species:S:1:pos:R:3:forces:R:3 energy=-0.6573456163690321 pbc="F F F"
Tl       0.00000000       0.00000000       0.00000000       0.00000000       0.00000000       0.16872890
Tl       0.00000000       0.00000000       5.88242424       0.00000000       0.00000000      -0.16872890
2
Properties=species:S:1:pos:R:3:forces:R:3 energy=-0.6507922474970633 pbc="F F F"
Tl       0.00000000       0.00000000       0.00000000       0.00000000       0.00000000       0.05807298
Tl       0.00000000       0.00000000       5.94121212       0.00000000       0.00000000      -0.05807298
2
Properties=species:S:1:pos:R:3:forces:R:3 energy=-0.6491930268010065 pbc="F F F"
Tl       0.00000000       0.00000000       0.00000000       0.00000000       0.00000000       0.01155493
Tl       0.00000000       0.00000000       6.00000000       0.00000000       0.00000000      -0.01155493
