2
Properties=species:S:1:pos:R:3:forces:R:3 energy=834.1616295104487 pbc="F F F"
Tm       0.00000000       0.00000000       0.00000000       0.00000000       0.00000000 -234012.18750000
Tm       0.00000000       0.00000000       0.18000000       0.00000000       0.00000000  234012.18750000
2
Properties=species:S:1:pos:R:3:forces:R:3 energy=-7363.990775274708 pbc="F F F"
Tm       0.00000000       0.00000000       0.00000000       0.00000000       0.00000000  -77833.89062500
Tm       0.00000000       0.00000000       0.23878788       0.00000000       0.00000000   77833.89062500
2
Properties=species:S:1:pos:R:3:forces:R:3 energy=-10298.523978399708 pbc="F F F"
Tm       0.00000000       0.00000000       0.00000000       0.00000000       0.00000000  -30286.15625000
Tm       0.00000000       0.00000000       0.29757576       0.00000000       0.00000000   30286.15625000
2
Properties=species:S:1:pos:R:3:forces:R:3 energy=-11478.055228399708 pbc="F F F"
Tm       0.00000000       0.00000000       0.00000000       0.00000000       0.00000000  -12386.30273438
Tm       0.00000000       0.00000000       0.35636364       0.00000000       0.00000000   12386.30273438
2
Properties=species:S:1:pos:R:3:forces:R:3 energy=-11925.718314324537 pbc="F F F"
Tm       0.00000000       0.00000000       0.00000000       0.00000000       0.00000000   -3551.99804688
Tm       0.00000000       0.00000000       0.41515152       0.00000000       0.00000000    3551.99804688
2
Properties=species:S:1:pos:R:3:forces:R:3 energy=-11924.511283074537 pbc="F F F"
Tm       0.00000000       0.00000000       0.00000000       0.00000000       0.00000000    3704.93652344
Tm       0.00000000       0.00000000       0.47393939       0.00000000       0.00000000   -3704.93652344
2
Properties=species:S:1:pos:R:3:forces:R:3 energy=-11448.765189311865 pbc="F F F"
Tm       0.00000000       0.00000000       0.00000000       0.00000000       0.00000000   12998.18554688
Tm       0.00000000       0.00000000       0.53272727       0.00000000       0.00000000  -12998.18554688
2
Properties=species:S:1:pos:R:3:forces:R:3 energy=-10252.41850958635 pbc="F F F"
Tm       0.00000000       0.00000000       0.00000000       0.00000000       0.00000000   60125.11718750
Tm       0.00000000       0.00000000       0.59151515       0.00000000       0.00000000  -60125.11718750
2
Properties=species:S:1:pos:R:3:forces:R:3 energy=-6735.686575954587 pbc="F F F"
Tm       0.00000000       0.00000000       0.00000000       0.00000000       0.00000000   57757.31640625
Tm       0.00000000       0.00000000       0.65030303       0.00000000       0.00000000  -57757.31640625
2
Properties=species:S:1:pos:R:3:forces:R:3 energy=-3690.3699254879343 pbc="F F F"
Tm       0.00000000       0.00000000       0.00000000       0.00000000       0.00000000   45088.45312500
Tm       0.00000000       0.00000000       0.70909091       0.00000000       0.00000000  -45088.45312500
2
Properties=species:S:1:pos:R:3:forces:R:3 energy=-1539.0477818318768 pbc="F F F"
Tm       0.00000000       0.00000000       0.00000000       0.00000000       0.00000000   27733.64843750
Tm       0.00000000       0.00000000       0.76787879       0.00000000       0.00000000  -27733.64843750
2
Properties=species:S:1:pos:R:3:forces:R:3 energy=-395.61681244154 pbc="F F F"
Tm       0.00000000       0.00000000       0.00000000       0.00000000       0.00000000   12034.65820312
Tm       0.00000000       0.00000000       0.82666667       0.00000000       0.00000000  -12034.65820312
2
Properties=species:S:1:pos:R:3:forces:R:3 energy=0.8129713096259298 pbc="F F F"
Tm       0.00000000       0.00000000       0.00000000       0.00000000       0.00000000    2941.25170898
Tm       0.00000000       0.00000000       0.88545455       0.00000000       0.00000000   -2941.25170898
2
Properties=species:S:1:pos:R:3:forces:R:3 energy=90.24073203596662 pbc="F F F"
Tm       0.00000000       0.00000000       0.00000000       0.00000000       0.00000000     828.89642334
Tm       0.00000000       0.00000000       0.94424242       0.00000000       0.00000000    -828.89642334
2
Properties=species:S:1:pos:R:3:forces:R:3 energy=109.20039585790371 pbc="F F F"
Tm       0.00000000       0.00000000       0.00000000       0.00000000       0.00000000     -38.58681870
Tm       0.00000000       0.00000000       1.00303030       0.00000000       0.00000000      38.58681870
2
Properties=species:S:1:pos:R:3:forces:R:3 energy=101.16201295689628 pbc="F F F"
Tm       0.00000000       0.00000000       0.00000000       0.00000000       0.00000000    -161.27551270
Tm       0.00000000       0.00000000       1.06181818       0.00000000       0.00000000     161.27551270
2
Properties=species:S:1:pos:R:3:forces:R:3 energy=91.07995196226675 pbc="F F F"
Tm       0.00000000       0.00000000       0.00000000       0.00000000       0.00000000    -217.80635071
Tm       0.00000000       0.00000000       1.12060606       0.00000000       0.00000000     217.80635071
2
Properties=species:S:1:pos:R:3:forces:R:3 energy=78.36113431141906 pbc="F F F"
Tm       0.00000000       0.00000000       0.00000000       0.00000000       0.00000000    -211.46443176
Tm       0.00000000       0.00000000       1.17939394       0.00000000       0.00000000     211.46443176
2
Properties=species:S:1:pos:R:3:forces:R:3 energy=66.40151800181569 pbc="F F F"
Tm       0.00000000       0.00000000       0.00000000       0.00000000       0.00000000    -195.45266724
Tm       0.00000000       0.00000000       1.23818182       0.00000000       0.00000000     195.45266724
2
Properties=species:S:1:pos:R:3:forces:R:3 energy=55.380226034289066 pbc="F F F"
Tm       0.00000000       0.00000000       0.00000000       0.00000000       0.00000000    -178.84780884
Tm       0.00000000       0.00000000       1.29696970       0.00000000       0.00000000     178.84780884
2
Properties=species:S:1:pos:R:3:forces:R:3 energy=45.439405536404614 pbc="F F F"
Tm       0.00000000       0.00000000       0.00000000       0.00000000       0.00000000    -159.23719788
Tm       0.00000000       0.00000000       1.35575758       0.00000000       0.00000000     159.23719788
2
Properties=species:S:1:pos:R:3:forces:R:3 energy=36.6797798761342 pbc="F F F"
Tm       0.00000000       0.00000000       0.00000000       0.00000000       0.00000000    -137.99845886
Tm       0.00000000       0.00000000       1.41454545       0.00000000       0.00000000     137.99845886
2
Properties=species:S:1:pos:R:3:forces:R:3 energy=29.34268791004912 pbc="F F F"
Tm       0.00000000       0.00000000       0.00000000       0.00000000       0.00000000    -110.90335083
Tm       0.00000000       0.00000000       1.47333333       0.00000000       0.00000000     110.90335083
2
Properties=species:S:1:pos:R:3:forces:R:3 energy=23.60611967389389 pbc="F F F"
Tm       0.00000000       0.00000000       0.00000000       0.00000000       0.00000000     -85.39627075
Tm       0.00000000       0.00000000       1.53212121       0.00000000       0.00000000      85.39627075
2
Properties=species:S:1:pos:R:3:forces:R:3 energy=19.13839886191226 pbc="F F F"
Tm       0.00000000       0.00000000       0.00000000       0.00000000       0.00000000     -67.92755127
Tm       0.00000000       0.00000000       1.59090909       0.00000000       0.00000000      67.92755127
2
Properties=species:S:1:pos:R:3:forces:R:3 energy=15.49405767724612 pbc="F F F"
Tm       0.00000000       0.00000000       0.00000000       0.00000000       0.00000000     -56.84637070
Tm       0.00000000       0.00000000       1.64969697       0.00000000       0.00000000      56.84637070
2
Properties=species:S:1:pos:R:3:forces:R:3 energy=12.390421495193507 pbc="F F F"
Tm       0.00000000       0.00000000       0.00000000       0.00000000       0.00000000     -49.07034683
Tm       0.00000000       0.00000000       1.70848485       0.00000000       0.00000000      49.07034683
2
Properties=species:S:1:pos:R:3:forces:R:3 energy=9.704329227919649 pbc="F F F"
Tm       0.00000000       0.00000000       0.00000000       0.00000000       0.00000000     -42.38111877
Tm       0.00000000       0.00000000       1.76727273       0.00000000       0.00000000      42.38111877
2
Properties=species:S:1:pos:R:3:forces:R:3 energy=7.402585131065114 pbc="F F F"
Tm       0.00000000       0.00000000       0.00000000       0.00000000       0.00000000     -35.97248077
Tm       0.00000000       0.00000000       1.82606061       0.00000000       0.00000000      35.97248077
2
Properties=species:S:1:pos:R:3:forces:R:3 energy=5.466531284221053 pbc="F F F"
Tm       0.00000000       0.00000000       0.00000000       0.00000000       0.00000000     -29.98454094
Tm       0.00000000       0.00000000       1.88484848       0.00000000       0.00000000      29.98454094
2
Properties=species:S:1:pos:R:3:forces:R:3 energy=3.8653724173101613 pbc="F F F"
Tm       0.00000000       0.00000000       0.00000000       0.00000000       0.00000000     -24.59000969
Tm       0.00000000       0.00000000       1.94363636       0.00000000       0.00000000      24.59000969
2
Properties=species:S:1:pos:R:3:forces:R:3 energy=2.5637094355065475 pbc="F F F"
Tm       0.00000000       0.00000000       0.00000000       0.00000000       0.00000000     -19.78929329
Tm       0.00000000       0.00000000       2.00242424       0.00000000       0.00000000      19.78929329
2
Properties=species:S:1:pos:R:3:forces:R:3 energy=1.5273660928765314 pbc="F F F"
Tm       0.00000000       0.00000000       0.00000000       0.00000000       0.00000000     -15.56589603
Tm       0.00000000       0.00000000       2.06121212       0.00000000       0.00000000      15.56589603
2
Properties=species:S:1:pos:R:3:forces:R:3 energy=0.7212720775666005 pbc="F F F"
Tm       0.00000000       0.00000000       0.00000000       0.00000000       0.00000000     -11.96991825
Tm       0.00000000       0.00000000       2.12000000       0.00000000       0.00000000      11.96991825
2
Properties=species:S:1:pos:R:3:forces:R:3 energy=0.10607662084385254 pbc="F F F"
Tm       0.00000000       0.00000000       0.00000000       0.00000000       0.00000000      -9.08135986
Tm       0.00000000       0.00000000       2.17878788       0.00000000       0.00000000       9.08135986
2
Properties=species:S:1:pos:R:3:forces:R:3 energy=-0.3605714760264204 pbc="F F F"
Tm       0.00000000       0.00000000       0.00000000       0.00000000       0.00000000      -6.90814781
Tm       0.00000000       0.00000000       2.23757576       0.00000000       0.00000000       6.90814781
2
Properties=species:S:1:pos:R:3:forces:R:3 energy=-0.718350986845267 pbc="F F F"
Tm       0.00000000       0.00000000       0.00000000       0.00000000       0.00000000      -5.35616779
Tm       0.00000000       0.00000000       2.29636364       0.00000000       0.00000000       5.35616779
2
Properties=species:S:1:pos:R:3:forces:R:3 energy=-0.9998125152598926 pbc="F F F"
Tm       0.00000000       0.00000000       0.00000000       0.00000000       0.00000000      -4.28839111
Tm       0.00000000       0.00000000       2.35515152       0.00000000       0.00000000       4.28839111
2
Properties=species:S:1:pos:R:3:forces:R:3 energy=-1.2293534736874567 pbc="F F F"
Tm       0.00000000       0.00000000       0.00000000       0.00000000       0.00000000      -3.56741142
Tm       0.00000000       0.00000000       2.41393939       0.00000000       0.00000000       3.56741142
2
Properties=species:S:1:pos:R:3:forces:R:3 energy=-1.4235297820531283 pbc="F F F"
Tm       0.00000000       0.00000000       0.00000000       0.00000000       0.00000000      -3.06545877
Tm       0.00000000       0.00000000       2.47272727       0.00000000       0.00000000       3.06545877
2
Properties=species:S:1:pos:R:3:forces:R:3 energy=-1.5920109376479508 pbc="F F F"
Tm       0.00000000       0.00000000       0.00000000       0.00000000       0.00000000      -2.67888403
Tm       0.00000000       0.00000000       2.53151515       0.00000000       0.00000000       2.67888403
2
Properties=species:S:1:pos:R:3:forces:R:3 energy=-1.739452870511312 pbc="F F F"
Tm       0.00000000       0.00000000       0.00000000       0.00000000       0.00000000      -2.34201407
Tm       0.00000000       0.00000000       2.59030303       0.00000000       0.00000000       2.34201407
2
Properties=species:S:1:pos:R:3:forces:R:3 energy=-1.8677206259771941 pbc="F F F"
Tm       0.00000000       0.00000000       0.00000000       0.00000000       0.00000000      -2.02345300
Tm       0.00000000       0.00000000       2.64909091       0.00000000       0.00000000       2.02345300
2
Properties=species:S:1:pos:R:3:forces:R:3 energy=-1.977497715425688 pbc="F F F"
Tm       0.00000000       0.00000000       0.00000000       0.00000000       0.00000000      -1.71206272
Tm       0.00000000       0.00000000       2.70787879       0.00000000       0.00000000       1.71206272
2
Properties=species:S:1:pos:R:3:forces:R:3 energy=-2.069107762559422 pbc="F F F"
Tm       0.00000000       0.00000000       0.00000000       0.00000000       0.00000000      -1.40533769
Tm       0.00000000       0.00000000       2.76666667       0.00000000       0.00000000       1.40533769
2
Properties=species:S:1:pos:R:3:forces:R:3 energy=-2.142833783894847 pbc="F F F"
Tm       0.00000000       0.00000000       0.00000000       0.00000000       0.00000000      -1.10393929
Tm       0.00000000       0.00000000       2.82545455       0.00000000       0.00000000       1.10393929
2
Properties=species:S:1:pos:R:3:forces:R:3 energy=-2.1990499962226107 pbc="F F F"
Tm       0.00000000       0.00000000       0.00000000       0.00000000       0.00000000      -0.81001031
Tm       0.00000000       0.00000000       2.88424242       0.00000000       0.00000000       0.81001031
2
Properties=species:S:1:pos:R:3:forces:R:3 energy=-2.238278674270984 pbc="F F F"
Tm       0.00000000       0.00000000       0.00000000       0.00000000       0.00000000      -0.52665222
Tm       0.00000000       0.00000000       2.94303030       0.00000000       0.00000000       0.52665222
2
Properties=species:S:1:pos:R:3:forces:R:3 energy=-2.261250493613046 pbc="F F F"
Tm       0.00000000       0.00000000       0.00000000       0.00000000       0.00000000      -0.25758505
Tm       0.00000000       0.00000000       3.00181818       0.00000000       0.00000000       0.25758505
2
Properties=species:S:1:pos:R:3:forces:R:3 energy=-2.2689264041554207 pbc="F F F"
Tm       0.00000000       0.00000000       0.00000000       0.00000000       0.00000000      -0.00696737
Tm       0.00000000       0.00000000       3.06060606       0.00000000       0.00000000       0.00696737
2
Properties=species:S:1:pos:R:3:forces:R:3 energy=-2.262515705600781 pbc="F F F"
Tm       0.00000000       0.00000000       0.00000000       0.00000000       0.00000000       0.22089706
Tm       0.00000000       0.00000000       3.11939394       0.00000000       0.00000000      -0.22089706
2
Properties=species:S:1:pos:R:3:forces:R:3 energy=-2.2434759650844724 pbc="F F F"
Tm       0.00000000       0.00000000       0.00000000       0.00000000       0.00000000       0.42215765
Tm       0.00000000       0.00000000       3.17818182       0.00000000       0.00000000      -0.42215765
2
Properties=species:S:1:pos:R:3:forces:R:3 energy=-2.2134556786741895 pbc="F F F"
Tm       0.00000000       0.00000000       0.00000000       0.00000000       0.00000000       0.59413999
Tm       0.00000000       0.00000000       3.23696970       0.00000000       0.00000000      -0.59413999
2
Properties=species:S:1:pos:R:3:forces:R:3 energy=-2.1742113690606337 pbc="F F F"
Tm       0.00000000       0.00000000       0.00000000       0.00000000       0.00000000       0.73597765
Tm       0.00000000       0.00000000       3.29575758       0.00000000       0.00000000      -0.73597765
2
Properties=species:S:1:pos:R:3:forces:R:3 energy=-2.1274921869654873 pbc="F F F"
Tm       0.00000000       0.00000000       0.00000000       0.00000000       0.00000000       0.84878057
Tm       0.00000000       0.00000000       3.35454545       0.00000000       0.00000000      -0.84878057
2
Properties=species:S:1:pos:R:3:forces:R:3 energy=-2.0749319115248195 pbc="F F F"
Tm       0.00000000       0.00000000       0.00000000       0.00000000       0.00000000       0.93524444
Tm       0.00000000       0.00000000       3.41333333       0.00000000       0.00000000      -0.93524444
2
Properties=species:S:1:pos:R:3:forces:R:3 energy=-2.0179788258845157 pbc="F F F"
Tm       0.00000000       0.00000000       0.00000000       0.00000000       0.00000000       0.99880636
Tm       0.00000000       0.00000000       3.47212121       0.00000000       0.00000000      -0.99880636
2
Properties=species:S:1:pos:R:3:forces:R:3 energy=-1.9578804013904132 pbc="F F F"
Tm       0.00000000       0.00000000       0.00000000       0.00000000       0.00000000       1.04280031
Tm       0.00000000       0.00000000       3.53090909       0.00000000       0.00000000      -1.04280031
2
Properties=species:S:1:pos:R:3:forces:R:3 energy=-1.8957006134455585 pbc="F F F"
Tm       0.00000000       0.00000000       0.00000000       0.00000000       0.00000000       1.06992936
Tm       0.00000000       0.00000000       3.58969697       0.00000000       0.00000000      -1.06992936
2
Properties=species:S:1:pos:R:3:forces:R:3 energy=-1.8323728600993812 pbc="F F F"
Tm       0.00000000       0.00000000       0.00000000       0.00000000       0.00000000       1.08221900
Tm       0.00000000       0.00000000       3.64848485       0.00000000       0.00000000      -1.08221900
2
Properties=species:S:1:pos:R:3:forces:R:3 energy=-1.768718524682739 pbc="F F F"
Tm       0.00000000       0.00000000       0.00000000       0.00000000       0.00000000       1.08126450
Tm       0.00000000       0.00000000       3.70727273       0.00000000       0.00000000      -1.08126450
2
Properties=species:S:1:pos:R:3:forces:R:3 energy=-1.7054715796069801 pbc="F F F"
Tm       0.00000000       0.00000000       0.00000000       0.00000000       0.00000000       1.06858718
Tm       0.00000000       0.00000000       3.76606061       0.00000000       0.00000000      -1.06858718
2
Properties=species:S:1:pos:R:3:forces:R:3 energy=-1.6432738473346775 pbc="F F F"
Tm       0.00000000       0.00000000       0.00000000       0.00000000       0.00000000       1.04591572
Tm       0.00000000       0.00000000       3.82484848       0.00000000       0.00000000      -1.04591572
2
Properties=species:S:1:pos:R:3:forces:R:3 energy=-1.5826530111854573 pbc="F F F"
Tm       0.00000000       0.00000000       0.00000000       0.00000000       0.00000000       1.01529324
Tm       0.00000000       0.00000000       3.88363636       0.00000000       0.00000000      -1.01529324
2
Properties=species:S:1:pos:R:3:forces:R:3 energy=-1.5240103862963779 pbc="F F F"
Tm       0.00000000       0.00000000       0.00000000       0.00000000       0.00000000       0.97904855
Tm       0.00000000       0.00000000       3.94242424       0.00000000       0.00000000      -0.97904855
2
Properties=species:S:1:pos:R:3:forces:R:3 energy=-1.4676046703126366 pbc="F F F"
Tm       0.00000000       0.00000000       0.00000000       0.00000000       0.00000000       0.93958265
Tm       0.00000000       0.00000000       4.00121212       0.00000000       0.00000000      -0.93958265
2
Properties=species:S:1:pos:R:3:forces:R:3 energy=-1.4135580357326258 pbc="F F F"
Tm       0.00000000       0.00000000       0.00000000       0.00000000       0.00000000       0.89909613
Tm       0.00000000       0.00000000       4.06000000       0.00000000       0.00000000      -0.89909613
2
Properties=species:S:1:pos:R:3:forces:R:3 energy=-1.3618784537233006 pbc="F F F"
Tm       0.00000000       0.00000000       0.00000000       0.00000000       0.00000000       0.85933691
Tm       0.00000000       0.00000000       4.11878788       0.00000000       0.00000000      -0.85933691
2
Properties=species:S:1:pos:R:3:forces:R:3 energy=-1.312483699536888 pbc="F F F"
Tm       0.00000000       0.00000000       0.00000000       0.00000000       0.00000000       0.82144266
Tm       0.00000000       0.00000000       4.17757576       0.00000000       0.00000000      -0.82144266
2
Properties=species:S:1:pos:R:3:forces:R:3 energy=-1.2652480013569671 pbc="F F F"
Tm       0.00000000       0.00000000       0.00000000       0.00000000       0.00000000       0.78595120
Tm       0.00000000       0.00000000       4.23636364       0.00000000       0.00000000      -0.78595120
2
Properties=species:S:1:pos:R:3:forces:R:3 energy=-1.2200265352236266 pbc="F F F"
Tm       0.00000000       0.00000000       0.00000000       0.00000000       0.00000000       0.75288731
Tm       0.00000000       0.00000000       4.29515152       0.00000000       0.00000000      -0.75288731
2
Properties=species:S:1:pos:R:3:forces:R:3 energy=-1.1766856229975853 pbc="F F F"
Tm       0.00000000       0.00000000       0.00000000       0.00000000       0.00000000       0.72195280
Tm       0.00000000       0.00000000       4.35393939       0.00000000       0.00000000      -0.72195280
2
Properties=species:S:1:pos:R:3:forces:R:3 energy=-1.1351109578011729 pbc="F F F"
Tm       0.00000000       0.00000000       0.00000000       0.00000000       0.00000000       0.69267070
Tm       0.00000000       0.00000000       4.41272727       0.00000000       0.00000000      -0.69267070
2
Properties=species:S:1:pos:R:3:forces:R:3 energy=-1.0952209629623546 pbc="F F F"
Tm       0.00000000       0.00000000       0.00000000       0.00000000       0.00000000       0.66455567
Tm       0.00000000       0.00000000       4.47151515       0.00000000       0.00000000      -0.66455567
2
Properties=species:S:1:pos:R:3:forces:R:3 energy=-1.056959720652783 pbc="F F F"
Tm       0.00000000       0.00000000       0.00000000       0.00000000       0.00000000       0.63719314
Tm       0.00000000       0.00000000       4.53030303       0.00000000       0.00000000      -0.63719314
2
Properties=species:S:1:pos:R:3:forces:R:3 energy=-1.020294312437513 pbc="F F F"
Tm       0.00000000       0.00000000       0.00000000       0.00000000       0.00000000       0.61027068
Tm       0.00000000       0.00000000       4.58909091       0.00000000       0.00000000      -0.61027068
2
Properties=species:S:1:pos:R:3:forces:R:3 energy=-0.9852034918086495 pbc="F F F"
Tm       0.00000000       0.00000000       0.00000000       0.00000000       0.00000000       0.58357173
Tm       0.00000000       0.00000000       4.64787879       0.00000000       0.00000000      -0.58357173
2
Properties=species:S:1:pos:R:3:forces:R:3 energy=-0.9516788382643766 pbc="F F F"
Tm       0.00000000       0.00000000       0.00000000       0.00000000       0.00000000       0.55691844
Tm       0.00000000       0.00000000       4.70666667       0.00000000       0.00000000      -0.55691844
2
Properties=species:S:1:pos:R:3:forces:R:3 energy=-0.919725344435915 pbc="F F F"
Tm       0.00000000       0.00000000       0.00000000       0.00000000       0.00000000       0.53017354
Tm       0.00000000       0.00000000       4.76545455       0.00000000       0.00000000      -0.53017354
2
Properties=species:S:1:pos:R:3:forces:R:3 energy=-0.889345690548744 pbc="F F F"
Tm       0.00000000       0.00000000       0.00000000       0.00000000       0.00000000       0.50325459
Tm       0.00000000       0.00000000       4.82424242       0.00000000       0.00000000      -0.50325459
2
Properties=species:S:1:pos:R:3:forces:R:3 energy=-0.8605575919580767 pbc="F F F"
Tm       0.00000000       0.00000000       0.00000000       0.00000000       0.00000000       0.47624755
Tm       0.00000000       0.00000000       4.88303030       0.00000000       0.00000000      -0.47624755
2
Properties=species:S:1:pos:R:3:forces:R:3 energy=-0.8333470374291352 pbc="F F F"
Tm       0.00000000       0.00000000       0.00000000       0.00000000       0.00000000       0.44949880
Tm       0.00000000       0.00000000       4.94181818       0.00000000       0.00000000      -0.44949880
2
Properties=species:S:1:pos:R:3:forces:R:3 energy=-0.8076869770691866 pbc="F F F"
Tm       0.00000000       0.00000000       0.00000000       0.00000000       0.00000000       0.42373464
Tm       0.00000000       0.00000000       5.00060606       0.00000000       0.00000000      -0.42373464
2
Properties=species:S:1:pos:R:3:forces:R:3 energy=-0.7834861878779699 pbc="F F F"
Tm       0.00000000       0.00000000       0.00000000       0.00000000       0.00000000       0.39995131
Tm       0.00000000       0.00000000       5.05939394       0.00000000       0.00000000      -0.39995131
2
Properties=species:S:1:pos:R:3:forces:R:3 energy=-0.7606043272122949 pbc="F F F"
Tm       0.00000000       0.00000000       0.00000000       0.00000000       0.00000000       0.37910450
Tm       0.00000000       0.00000000       5.11818182       0.00000000       0.00000000      -0.37910450
2
Properties=species:S:1:pos:R:3:forces:R:3 energy=-0.7388497084072528 pbc="F F F"
Tm       0.00000000       0.00000000       0.00000000       0.00000000       0.00000000       0.36150283
Tm       0.00000000       0.00000000       5.17696970       0.00000000       0.00000000      -0.36150283
2
Properties=species:S:1:pos:R:3:forces:R:3 energy=-0.7180593345590149 pbc="F F F"
Tm       0.00000000       0.00000000       0.00000000       0.00000000       0.00000000       0.34596279
Tm       0.00000000       0.00000000       5.23575758       0.00000000       0.00000000      -0.34596279
2
Properties=species:S:1:pos:R:3:forces:R:3 energy=-0.6981965818660706 pbc="F F F"
Tm       0.00000000       0.00000000       0.00000000       0.00000000       0.00000000       0.32919383
Tm       0.00000000       0.00000000       5.29454545       0.00000000       0.00000000      -0.32919383
2
Properties=species:S:1:pos:R:3:forces:R:3 energy=-0.6794547899180012 pbc="F F F"
Tm       0.00000000       0.00000000       0.00000000       0.00000000       0.00000000       0.30745077
Tm       0.00000000       0.00000000       5.35333333       0.00000000       0.00000000      -0.30745077
2
Properties=species:S:1:pos:R:3:forces:R:3 energy=-0.6621014133883735 pbc="F F F"
Tm       0.00000000       0.00000000       0.00000000       0.00000000       0.00000000       0.28344765
Tm       0.00000000       0.00000000       5.41212121       0.00000000       0.00000000      -0.28344765
2
Properties=species:S:1:pos:R:3:forces:R:3 energy=-0.645938137249546 pbc="F F F"
Tm       0.00000000       0.00000000       0.00000000       0.00000000       0.00000000       0.26862773
Tm       0.00000000       0.00000000       5.47090909       0.00000000       0.00000000      -0.26862773
2
Properties=species:S:1:pos:R:3:forces:R:3 energy=-0.630359991908998 pbc="F F F"
Tm       0.00000000       0.00000000       0.00000000       0.00000000       0.00000000       0.26082155
Tm       0.00000000       0.00000000       5.52969697       0.00000000       0.00000000      -0.26082155
2
Properties=species:S:1:pos:R:3:forces:R:3 energy=-0.6155296332355406 pbc="F F F"
Tm       0.00000000       0.00000000       0.00000000       0.00000000       0.00000000       0.24088588
Tm       0.00000000       0.00000000       5.58848485       0.00000000       0.00000000      -0.24088588
2
Properties=species:S:1:pos:R:3:forces:R:3 energy=-0.6022637565292004 pbc="F F F"
Tm       0.00000000       0.00000000       0.00000000       0.00000000       0.00000000       0.21057673
Tm       0.00000000       0.00000000       5.64727273       0.00000000       0.00000000      -0.21057673
2
Properties=species:S:1:pos:R:3:forces:R:3 energy=-0.59048929503985 pbc="F F F"
Tm       0.00000000       0.00000000       0.00000000       0.00000000       0.00000000       0.19472572
Tm       0.00000000       0.00000000       5.70606061       0.00000000       0.00000000      -0.19472572
2
Properties=species:S:1:pos:R:3:forces:R:3 energy=-0.5787107364246723 pbc="F F F"
Tm       0.00000000       0.00000000       0.00000000       0.00000000       0.00000000       0.20860517
Tm       0.00000000       0.00000000       5.76484848       0.00000000       0.00000000      -0.20860517
2
Properties=species:S:1:pos:R:3:forces:R:3 energy=-0.5662455874468647 pbc="F F F"
Tm       0.00000000       0.00000000       0.00000000       0.00000000       0.00000000       0.20713380
Tm       0.00000000       0.00000000       5.82363636       0.00000000       0.00000000      -0.20713380
2
Properties=species:S:1:pos:R:3:forces:R:3 energy=-0.5556582916311771 pbc="F F F"
Tm       0.00000000       0.00000000       0.00000000       0.00000000       0.00000000       0.14524630
Tm       0.00000000       0.00000000       5.88242424       0.00000000       0.00000000      -0.14524630
2
Properties=species:S:1:pos:R:3:forces:R:3 energy=-0.5495372152196587 pbc="F F F"
Tm       0.00000000       0.00000000       0.00000000       0.00000000       0.00000000       0.06536788
Tm       0.00000000       0.00000000       5.94121212       0.00000000       0.00000000      -0.06536788
2
Properties=species:S:1:pos:R:3:forces:R:3 energy=-0.5470303676125388 pbc="F F F"
Tm       0.00000000       0.00000000       0.00000000       0.00000000       0.00000000       0.03099215
Tm       0.00000000       0.00000000       6.00000000       0.00000000       0.00000000      -0.03099215
