2
Properties=species:S:1:pos:R:3:forces:R:3 energy=-71209.4962047646 pbc="F F F"
As       0.00000000       0.00000000       0.00000000       0.00000000       0.00000000  -12310.11914062
As       0.00000000       0.00000000       0.18000000       0.00000000       0.00000000   12310.11914062
2
Properties=species:S:1:pos:R:3:forces:R:3 energy=-71157.2696422646 pbc="F F F"
As       0.00000000       0.00000000       0.00000000       0.00000000       0.00000000  -86443.08593750
As       0.00000000       0.00000000       0.23878788       0.00000000       0.00000000   86443.08593750
2
Properties=species:S:1:pos:R:3:forces:R:3 energy=-78694.4649547646 pbc="F F F"
As       0.00000000       0.00000000       0.00000000       0.00000000       0.00000000  -10172.14257812
As       0.00000000       0.00000000       0.29757576       0.00000000       0.00000000   10172.14257812
2
Properties=species:S:1:pos:R:3:forces:R:3 energy=-64100.39073600825 pbc="F F F"
As       0.00000000       0.00000000       0.00000000       0.00000000       0.00000000 -167117.18750000
As       0.00000000       0.00000000       0.35636364       0.00000000       0.00000000  167117.18750000
2
Properties=species:S:1:pos:R:3:forces:R:3 energy=-44335.32432975192 pbc="F F F"
As       0.00000000       0.00000000       0.00000000       0.00000000       0.00000000  518432.00000000
As       0.00000000       0.00000000       0.41515152       0.00000000       0.00000000 -518432.00000000
2
Properties=species:S:1:pos:R:3:forces:R:3 energy=-19405.818470351576 pbc="F F F"
As       0.00000000       0.00000000       0.00000000       0.00000000       0.00000000  402034.75000000
As       0.00000000       0.00000000       0.47393939       0.00000000       0.00000000 -402034.75000000
2
Properties=species:S:1:pos:R:3:forces:R:3 energy=-4330.673450782313 pbc="F F F"
As       0.00000000       0.00000000       0.00000000       0.00000000       0.00000000  131312.96875000
As       0.00000000       0.00000000       0.53272727       0.00000000       0.00000000 -131312.96875000
2
Properties=species:S:1:pos:R:3:forces:R:3 energy=-464.5696604325859 pbc="F F F"
As       0.00000000       0.00000000       0.00000000       0.00000000       0.00000000   22512.63671875
As       0.00000000       0.00000000       0.59151515       0.00000000       0.00000000  -22512.63671875
2
Properties=species:S:1:pos:R:3:forces:R:3 energy=60.537200799125436 pbc="F F F"
As       0.00000000       0.00000000       0.00000000       0.00000000       0.00000000    1098.35473633
As       0.00000000       0.00000000       0.65030303       0.00000000       0.00000000   -1098.35473633
2
Properties=species:S:1:pos:R:3:forces:R:3 energy=59.00957493892582 pbc="F F F"
As       0.00000000       0.00000000       0.00000000       0.00000000       0.00000000    -297.81884766
As       0.00000000       0.00000000       0.70909091       0.00000000       0.00000000     297.81884766
2
Properties=species:S:1:pos:R:3:forces:R:3 energy=67.15694841082141 pbc="F F F"
As       0.00000000       0.00000000       0.00000000       0.00000000       0.00000000     157.87403870
As       0.00000000       0.00000000       0.76787879       0.00000000       0.00000000    -157.87403870
2
Properties=species:S:1:pos:R:3:forces:R:3 energy=76.20943905067764 pbc="F F F"
As       0.00000000       0.00000000       0.00000000       0.00000000       0.00000000     191.60038757
As       0.00000000       0.00000000       0.82666667       0.00000000       0.00000000    -191.60038757
2
Properties=species:S:1:pos:R:3:forces:R:3 energy=92.03440605471752 pbc="F F F"
As       0.00000000       0.00000000       0.00000000       0.00000000       0.00000000      79.45862579
As       0.00000000       0.00000000       0.88545455       0.00000000       0.00000000     -79.45862579
2
Properties=species:S:1:pos:R:3:forces:R:3 energy=81.79841443087155 pbc="F F F"
As       0.00000000       0.00000000       0.00000000       0.00000000       0.00000000    -276.40115356
As       0.00000000       0.00000000       0.94424242       0.00000000       0.00000000     276.40115356
2
Properties=species:S:1:pos:R:3:forces:R:3 energy=73.35214173589836 pbc="F F F"
As       0.00000000       0.00000000       0.00000000       0.00000000       0.00000000    -112.12075806
As       0.00000000       0.00000000       1.00303030       0.00000000       0.00000000     112.12075806
2
Properties=species:S:1:pos:R:3:forces:R:3 energy=64.715165088032 pbc="F F F"
As       0.00000000       0.00000000       0.00000000       0.00000000       0.00000000    -156.42628479
As       0.00000000       0.00000000       1.06181818       0.00000000       0.00000000     156.42628479
2
Properties=species:S:1:pos:R:3:forces:R:3 energy=55.02124694192626 pbc="F F F"
As       0.00000000       0.00000000       0.00000000       0.00000000       0.00000000    -171.46839905
As       0.00000000       0.00000000       1.12060606       0.00000000       0.00000000     171.46839905
2
Properties=species:S:1:pos:R:3:forces:R:3 energy=45.42499329294037 pbc="F F F"
As       0.00000000       0.00000000       0.00000000       0.00000000       0.00000000    -148.59465027
As       0.00000000       0.00000000       1.17939394       0.00000000       0.00000000     148.59465027
2
Properties=species:S:1:pos:R:3:forces:R:3 energy=37.482854173763045 pbc="F F F"
As       0.00000000       0.00000000       0.00000000       0.00000000       0.00000000    -131.21879578
As       0.00000000       0.00000000       1.23818182       0.00000000       0.00000000     131.21879578
2
Properties=species:S:1:pos:R:3:forces:R:3 energy=29.734586539862494 pbc="F F F"
As       0.00000000       0.00000000       0.00000000       0.00000000       0.00000000    -129.51277161
As       0.00000000       0.00000000       1.29696970       0.00000000       0.00000000     129.51277161
2
Properties=species:S:1:pos:R:3:forces:R:3 energy=22.638993767691396 pbc="F F F"
As       0.00000000       0.00000000       0.00000000       0.00000000       0.00000000    -112.42454529
As       0.00000000       0.00000000       1.35575758       0.00000000       0.00000000     112.42454529
2
Properties=species:S:1:pos:R:3:forces:R:3 energy=16.488115969220047 pbc="F F F"
As       0.00000000       0.00000000       0.00000000       0.00000000       0.00000000     -95.93016052
As       0.00000000       0.00000000       1.41454545       0.00000000       0.00000000      95.93016052
2
Properties=species:S:1:pos:R:3:forces:R:3 energy=11.2929912370836 pbc="F F F"
As       0.00000000       0.00000000       0.00000000       0.00000000       0.00000000     -81.32428741
As       0.00000000       0.00000000       1.47333333       0.00000000       0.00000000      81.32428741
2
Properties=species:S:1:pos:R:3:forces:R:3 energy=6.9147191312283285 pbc="F F F"
As       0.00000000       0.00000000       0.00000000       0.00000000       0.00000000     -67.56707001
As       0.00000000       0.00000000       1.53212121       0.00000000       0.00000000      67.56707001
2
Properties=species:S:1:pos:R:3:forces:R:3 energy=3.3982962743826395 pbc="F F F"
As       0.00000000       0.00000000       0.00000000       0.00000000       0.00000000     -52.15938950
As       0.00000000       0.00000000       1.59090909       0.00000000       0.00000000      52.15938950
2
Properties=species:S:1:pos:R:3:forces:R:3 energy=0.700126810663216 pbc="F F F"
As       0.00000000       0.00000000       0.00000000       0.00000000       0.00000000     -40.15587234
As       0.00000000       0.00000000       1.64969697       0.00000000       0.00000000      40.15587234
2
Properties=species:S:1:pos:R:3:forces:R:3 energy=-1.3725969550086699 pbc="F F F"
As       0.00000000       0.00000000       0.00000000       0.00000000       0.00000000     -30.60998726
As       0.00000000       0.00000000       1.70848485       0.00000000       0.00000000      30.60998726
2
Properties=species:S:1:pos:R:3:forces:R:3 energy=-2.9330661013887993 pbc="F F F"
As       0.00000000       0.00000000       0.00000000       0.00000000       0.00000000     -23.02677727
As       0.00000000       0.00000000       1.76727273       0.00000000       0.00000000      23.02677727
2
Properties=species:S:1:pos:R:3:forces:R:3 energy=-4.1328350974347625 pbc="F F F"
As       0.00000000       0.00000000       0.00000000       0.00000000       0.00000000     -17.80907631
As       0.00000000       0.00000000       1.82606061       0.00000000       0.00000000      17.80907631
2
Properties=species:S:1:pos:R:3:forces:R:3 energy=-5.0179734052912615 pbc="F F F"
As       0.00000000       0.00000000       0.00000000       0.00000000       0.00000000     -12.61201096
As       0.00000000       0.00000000       1.88484848       0.00000000       0.00000000      12.61201096
2
Properties=species:S:1:pos:R:3:forces:R:3 energy=-5.638569156630736 pbc="F F F"
As       0.00000000       0.00000000       0.00000000       0.00000000       0.00000000      -8.49673271
As       0.00000000       0.00000000       1.94363636       0.00000000       0.00000000       8.49673271
2
Properties=species:S:1:pos:R:3:forces:R:3 energy=-6.029728227936662 pbc="F F F"
As       0.00000000       0.00000000       0.00000000       0.00000000       0.00000000      -4.98689985
As       0.00000000       0.00000000       2.00242424       0.00000000       0.00000000       4.98689985
2
Properties=species:S:1:pos:R:3:forces:R:3 energy=-6.240013708440126 pbc="F F F"
As       0.00000000       0.00000000       0.00000000       0.00000000       0.00000000      -2.29289961
As       0.00000000       0.00000000       2.06121212       0.00000000       0.00000000       2.29289961
2
Properties=species:S:1:pos:R:3:forces:R:3 energy=-6.317445957987161 pbc="F F F"
As       0.00000000       0.00000000       0.00000000       0.00000000       0.00000000      -0.47313541
As       0.00000000       0.00000000       2.12000000       0.00000000       0.00000000       0.47313541
2
Properties=species:S:1:pos:R:3:forces:R:3 energy=-6.308890389309298 pbc="F F F"
As       0.00000000       0.00000000       0.00000000       0.00000000       0.00000000       0.65020269
As       0.00000000       0.00000000       2.17878788       0.00000000       0.00000000      -0.65020269
2
Properties=species:S:1:pos:R:3:forces:R:3 energy=-6.25009105973392 pbc="F F F"
As       0.00000000       0.00000000       0.00000000       0.00000000       0.00000000       1.30977798
As       0.00000000       0.00000000       2.23757576       0.00000000       0.00000000      -1.30977798
2
Properties=species:S:1:pos:R:3:forces:R:3 energy=-6.15999923338104 pbc="F F F"
As       0.00000000       0.00000000       0.00000000       0.00000000       0.00000000       1.71057272
As       0.00000000       0.00000000       2.29636364       0.00000000       0.00000000      -1.71057272
2
Properties=species:S:1:pos:R:3:forces:R:3 energy=-6.053866868529507 pbc="F F F"
As       0.00000000       0.00000000       0.00000000       0.00000000       0.00000000       1.86452198
As       0.00000000       0.00000000       2.35515152       0.00000000       0.00000000      -1.86452198
2
Properties=species:S:1:pos:R:3:forces:R:3 energy=-5.941537474850902 pbc="F F F"
As       0.00000000       0.00000000       0.00000000       0.00000000       0.00000000       1.98079383
As       0.00000000       0.00000000       2.41393939       0.00000000       0.00000000      -1.98079383
2
Properties=species:S:1:pos:R:3:forces:R:3 energy=-5.81834701956167 pbc="F F F"
As       0.00000000       0.00000000       0.00000000       0.00000000       0.00000000       2.21581554
As       0.00000000       0.00000000       2.47272727       0.00000000       0.00000000      -2.21581554
2
Properties=species:S:1:pos:R:3:forces:R:3 energy=-5.6814938817766 pbc="F F F"
As       0.00000000       0.00000000       0.00000000       0.00000000       0.00000000       2.43539548
As       0.00000000       0.00000000       2.53151515       0.00000000       0.00000000      -2.43539548
2
Properties=species:S:1:pos:R:3:forces:R:3 energy=-5.53244422504324 pbc="F F F"
As       0.00000000       0.00000000       0.00000000       0.00000000       0.00000000       2.63108444
As       0.00000000       0.00000000       2.59030303       0.00000000       0.00000000      -2.63108444
2
Properties=species:S:1:pos:R:3:forces:R:3 energy=-5.372642500147414 pbc="F F F"
As       0.00000000       0.00000000       0.00000000       0.00000000       0.00000000       2.80085135
As       0.00000000       0.00000000       2.64909091       0.00000000       0.00000000      -2.80085135
2
Properties=species:S:1:pos:R:3:forces:R:3 energy=-5.204003889520918 pbc="F F F"
As       0.00000000       0.00000000       0.00000000       0.00000000       0.00000000       2.92510986
As       0.00000000       0.00000000       2.70787879       0.00000000       0.00000000      -2.92510986
2
Properties=species:S:1:pos:R:3:forces:R:3 energy=-5.030317610327868 pbc="F F F"
As       0.00000000       0.00000000       0.00000000       0.00000000       0.00000000       2.96989703
As       0.00000000       0.00000000       2.76666667       0.00000000       0.00000000      -2.96989703
2
Properties=species:S:1:pos:R:3:forces:R:3 energy=-4.856275229386367 pbc="F F F"
As       0.00000000       0.00000000       0.00000000       0.00000000       0.00000000       2.94026136
As       0.00000000       0.00000000       2.82545455       0.00000000       0.00000000      -2.94026136
2
Properties=species:S:1:pos:R:3:forces:R:3 energy=-4.685775768176648 pbc="F F F"
As       0.00000000       0.00000000       0.00000000       0.00000000       0.00000000       2.85116053
As       0.00000000       0.00000000       2.88424242       0.00000000       0.00000000      -2.85116053
2
Properties=species:S:1:pos:R:3:forces:R:3 energy=-4.521993236479346 pbc="F F F"
As       0.00000000       0.00000000       0.00000000       0.00000000       0.00000000       2.71419334
As       0.00000000       0.00000000       2.94303030       0.00000000       0.00000000      -2.71419334
2
Properties=species:S:1:pos:R:3:forces:R:3 energy=-4.367191969617054 pbc="F F F"
As       0.00000000       0.00000000       0.00000000       0.00000000       0.00000000       2.54973865
As       0.00000000       0.00000000       3.00181818       0.00000000       0.00000000      -2.54973865
2
Properties=species:S:1:pos:R:3:forces:R:3 energy=-4.222333582960742 pbc="F F F"
As       0.00000000       0.00000000       0.00000000       0.00000000       0.00000000       2.37810707
As       0.00000000       0.00000000       3.06060606       0.00000000       0.00000000      -2.37810707
2
Properties=species:S:1:pos:R:3:forces:R:3 energy=-4.0876312962777845 pbc="F F F"
As       0.00000000       0.00000000       0.00000000       0.00000000       0.00000000       2.20404005
As       0.00000000       0.00000000       3.11939394       0.00000000       0.00000000      -2.20404005
2
Properties=species:S:1:pos:R:3:forces:R:3 energy=-3.963232962487635 pbc="F F F"
As       0.00000000       0.00000000       0.00000000       0.00000000       0.00000000       2.02816916
As       0.00000000       0.00000000       3.17818182       0.00000000       0.00000000      -2.02816916
2
Properties=species:S:1:pos:R:3:forces:R:3 energy=-3.849066814012455 pbc="F F F"
As       0.00000000       0.00000000       0.00000000       0.00000000       0.00000000       1.85718334
As       0.00000000       0.00000000       3.23696970       0.00000000       0.00000000      -1.85718334
2
Properties=species:S:1:pos:R:3:forces:R:3 energy=-3.744676123443248 pbc="F F F"
As       0.00000000       0.00000000       0.00000000       0.00000000       0.00000000       1.69611382
As       0.00000000       0.00000000       3.29575758       0.00000000       0.00000000      -1.69611382
2
Properties=species:S:1:pos:R:3:forces:R:3 energy=-3.649444982988143 pbc="F F F"
As       0.00000000       0.00000000       0.00000000       0.00000000       0.00000000       1.54530525
As       0.00000000       0.00000000       3.35454545       0.00000000       0.00000000      -1.54530525
2
Properties=species:S:1:pos:R:3:forces:R:3 energy=-3.5628207224471575 pbc="F F F"
As       0.00000000       0.00000000       0.00000000       0.00000000       0.00000000       1.40289283
As       0.00000000       0.00000000       3.41333333       0.00000000       0.00000000      -1.40289283
2
Properties=species:S:1:pos:R:3:forces:R:3 energy=-3.484361776821559 pbc="F F F"
As       0.00000000       0.00000000       0.00000000       0.00000000       0.00000000       1.26748562
As       0.00000000       0.00000000       3.47212121       0.00000000       0.00000000      -1.26748562
2
Properties=species:S:1:pos:R:3:forces:R:3 energy=-3.4136549382360326 pbc="F F F"
As       0.00000000       0.00000000       0.00000000       0.00000000       0.00000000       1.13925910
As       0.00000000       0.00000000       3.53090909       0.00000000       0.00000000      -1.13925910
2
Properties=species:S:1:pos:R:3:forces:R:3 energy=-3.350257744013891 pbc="F F F"
As       0.00000000       0.00000000       0.00000000       0.00000000       0.00000000       1.01884842
As       0.00000000       0.00000000       3.58969697       0.00000000       0.00000000      -1.01884842
2
Properties=species:S:1:pos:R:3:forces:R:3 energy=-3.293707282997456 pbc="F F F"
As       0.00000000       0.00000000       0.00000000       0.00000000       0.00000000       0.90632677
As       0.00000000       0.00000000       3.64848485       0.00000000       0.00000000      -0.90632677
2
Properties=species:S:1:pos:R:3:forces:R:3 energy=-3.2435450527728924 pbc="F F F"
As       0.00000000       0.00000000       0.00000000       0.00000000       0.00000000       0.80160713
As       0.00000000       0.00000000       3.70727273       0.00000000       0.00000000      -0.80160713
2
Properties=species:S:1:pos:R:3:forces:R:3 energy=-3.199297453696232 pbc="F F F"
As       0.00000000       0.00000000       0.00000000       0.00000000       0.00000000       0.70514154
As       0.00000000       0.00000000       3.76606061       0.00000000       0.00000000      -0.70514154
2
Properties=species:S:1:pos:R:3:forces:R:3 energy=-3.160457067035305 pbc="F F F"
As       0.00000000       0.00000000       0.00000000       0.00000000       0.00000000       0.61786884
As       0.00000000       0.00000000       3.82484848       0.00000000       0.00000000      -0.61786884
2
Properties=species:S:1:pos:R:3:forces:R:3 energy=-3.126456725197332 pbc="F F F"
As       0.00000000       0.00000000       0.00000000       0.00000000       0.00000000       0.54059362
As       0.00000000       0.00000000       3.88363636       0.00000000       0.00000000      -0.54059362
2
Properties=species:S:1:pos:R:3:forces:R:3 energy=-3.096695823303826 pbc="F F F"
As       0.00000000       0.00000000       0.00000000       0.00000000       0.00000000       0.47343665
As       0.00000000       0.00000000       3.94242424       0.00000000       0.00000000      -0.47343665
2
Properties=species:S:1:pos:R:3:forces:R:3 energy=-3.0706027215018716 pbc="F F F"
As       0.00000000       0.00000000       0.00000000       0.00000000       0.00000000       0.41567490
As       0.00000000       0.00000000       4.00121212       0.00000000       0.00000000      -0.41567490
2
Properties=species:S:1:pos:R:3:forces:R:3 energy=-3.0476656696873237 pbc="F F F"
As       0.00000000       0.00000000       0.00000000       0.00000000       0.00000000       0.36598140
As       0.00000000       0.00000000       4.06000000       0.00000000       0.00000000      -0.36598140
2
Properties=species:S:1:pos:R:3:forces:R:3 energy=-3.0274460322323478 pbc="F F F"
As       0.00000000       0.00000000       0.00000000       0.00000000       0.00000000       0.32287100
As       0.00000000       0.00000000       4.11878788       0.00000000       0.00000000      -0.32287100
2
Properties=species:S:1:pos:R:3:forces:R:3 energy=-3.009599205463941 pbc="F F F"
As       0.00000000       0.00000000       0.00000000       0.00000000       0.00000000       0.28511065
As       0.00000000       0.00000000       4.17757576       0.00000000       0.00000000      -0.28511065
2
Properties=species:S:1:pos:R:3:forces:R:3 energy=-2.9938334782037064 pbc="F F F"
As       0.00000000       0.00000000       0.00000000       0.00000000       0.00000000       0.25193998
As       0.00000000       0.00000000       4.23636364       0.00000000       0.00000000      -0.25193998
2
Properties=species:S:1:pos:R:3:forces:R:3 energy=-2.9798937131824315 pbc="F F F"
As       0.00000000       0.00000000       0.00000000       0.00000000       0.00000000       0.22301446
As       0.00000000       0.00000000       4.29515152       0.00000000       0.00000000      -0.22301446
2
Properties=species:S:1:pos:R:3:forces:R:3 energy=-2.967532665534598 pbc="F F F"
As       0.00000000       0.00000000       0.00000000       0.00000000       0.00000000       0.19818552
As       0.00000000       0.00000000       4.35393939       0.00000000       0.00000000      -0.19818552
2
Properties=species:S:1:pos:R:3:forces:R:3 energy=-2.9565151111899666 pbc="F F F"
As       0.00000000       0.00000000       0.00000000       0.00000000       0.00000000       0.17725892
As       0.00000000       0.00000000       4.41272727       0.00000000       0.00000000      -0.17725892
2
Properties=species:S:1:pos:R:3:forces:R:3 energy=-2.946622648507289 pbc="F F F"
As       0.00000000       0.00000000       0.00000000       0.00000000       0.00000000       0.15986480
As       0.00000000       0.00000000       4.47151515       0.00000000       0.00000000      -0.15986480
2
Properties=species:S:1:pos:R:3:forces:R:3 energy=-2.937660223522972 pbc="F F F"
As       0.00000000       0.00000000       0.00000000       0.00000000       0.00000000       0.14545636
As       0.00000000       0.00000000       4.53030303       0.00000000       0.00000000      -0.14545636
2
Properties=species:S:1:pos:R:3:forces:R:3 energy=-2.929475699281497 pbc="F F F"
As       0.00000000       0.00000000       0.00000000       0.00000000       0.00000000       0.13339867
As       0.00000000       0.00000000       4.58909091       0.00000000       0.00000000      -0.13339867
2
Properties=species:S:1:pos:R:3:forces:R:3 energy=-2.9219431459440397 pbc="F F F"
As       0.00000000       0.00000000       0.00000000       0.00000000       0.00000000       0.12309521
As       0.00000000       0.00000000       4.64787879       0.00000000       0.00000000      -0.12309521
2
Properties=species:S:1:pos:R:3:forces:R:3 energy=-2.914974717367912 pbc="F F F"
As       0.00000000       0.00000000       0.00000000       0.00000000       0.00000000       0.11408641
As       0.00000000       0.00000000       4.70666667       0.00000000       0.00000000      -0.11408641
2
Properties=species:S:1:pos:R:3:forces:R:3 energy=-2.9085092592838344 pbc="F F F"
As       0.00000000       0.00000000       0.00000000       0.00000000       0.00000000       0.10610772
As       0.00000000       0.00000000       4.76545455       0.00000000       0.00000000      -0.10610772
2
Properties=species:S:1:pos:R:3:forces:R:3 energy=-2.9024818028051853 pbc="F F F"
As       0.00000000       0.00000000       0.00000000       0.00000000       0.00000000       0.09908475
As       0.00000000       0.00000000       4.82424242       0.00000000       0.00000000      -0.09908475
2
Properties=species:S:1:pos:R:3:forces:R:3 energy=-2.8968407749152085 pbc="F F F"
As       0.00000000       0.00000000       0.00000000       0.00000000       0.00000000       0.09307914
As       0.00000000       0.00000000       4.88303030       0.00000000       0.00000000      -0.09307914
2
Properties=species:S:1:pos:R:3:forces:R:3 energy=-2.891516523254794 pbc="F F F"
As       0.00000000       0.00000000       0.00000000       0.00000000       0.00000000       0.08819381
As       0.00000000       0.00000000       4.94181818       0.00000000       0.00000000      -0.08819381
2
Properties=species:S:1:pos:R:3:forces:R:3 energy=-2.886446202729589 pbc="F F F"
As       0.00000000       0.00000000       0.00000000       0.00000000       0.00000000       0.08446804
As       0.00000000       0.00000000       5.00060606       0.00000000       0.00000000      -0.08446804
2
Properties=species:S:1:pos:R:3:forces:R:3 energy=-2.881564268861147 pbc="F F F"
As       0.00000000       0.00000000       0.00000000       0.00000000       0.00000000       0.08178870
As       0.00000000       0.00000000       5.05939394       0.00000000       0.00000000      -0.08178870
2
Properties=species:S:1:pos:R:3:forces:R:3 energy=-2.8768168320029175 pbc="F F F"
As       0.00000000       0.00000000       0.00000000       0.00000000       0.00000000       0.07984503
As       0.00000000       0.00000000       5.11818182       0.00000000       0.00000000      -0.07984503
2
Properties=species:S:1:pos:R:3:forces:R:3 energy=-2.872170253872334 pbc="F F F"
As       0.00000000       0.00000000       0.00000000       0.00000000       0.00000000       0.07814427
As       0.00000000       0.00000000       5.17696970       0.00000000       0.00000000      -0.07814427
2
Properties=species:S:1:pos:R:3:forces:R:3 energy=-2.8676336602675616 pbc="F F F"
As       0.00000000       0.00000000       0.00000000       0.00000000       0.00000000       0.07608710
As       0.00000000       0.00000000       5.23575758       0.00000000       0.00000000      -0.07608710
2
Properties=species:S:1:pos:R:3:forces:R:3 energy=-2.8632431777228327 pbc="F F F"
As       0.00000000       0.00000000       0.00000000       0.00000000       0.00000000       0.07307781
As       0.00000000       0.00000000       5.29454545       0.00000000       0.00000000      -0.07307781
2
Properties=species:S:1:pos:R:3:forces:R:3 energy=-2.85906965081004 pbc="F F F"
As       0.00000000       0.00000000       0.00000000       0.00000000       0.00000000       0.06865973
As       0.00000000       0.00000000       5.35333333       0.00000000       0.00000000      -0.06865973
2
Properties=species:S:1:pos:R:3:forces:R:3 energy=-2.8552062515002263 pbc="F F F"
As       0.00000000       0.00000000       0.00000000       0.00000000       0.00000000       0.06261992
As       0.00000000       0.00000000       5.41212121       0.00000000       0.00000000      -0.06261992
2
Properties=species:S:1:pos:R:3:forces:R:3 energy=-2.851736550872871 pbc="F F F"
As       0.00000000       0.00000000       0.00000000       0.00000000       0.00000000       0.05504637
As       0.00000000       0.00000000       5.47090909       0.00000000       0.00000000      -0.05504637
2
Properties=species:S:1:pos:R:3:forces:R:3 energy=-2.8487521993126554 pbc="F F F"
As       0.00000000       0.00000000       0.00000000       0.00000000       0.00000000       0.04633482
As       0.00000000       0.00000000       5.52969697       0.00000000       0.00000000      -0.04633482
2
Properties=species:S:1:pos:R:3:forces:R:3 energy=-2.8462995397546753 pbc="F F F"
As       0.00000000       0.00000000       0.00000000       0.00000000       0.00000000       0.03710645
As       0.00000000       0.00000000       5.58848485       0.00000000       0.00000000      -0.03710645
2
Properties=species:S:1:pos:R:3:forces:R:3 energy=-2.844386770537237 pbc="F F F"
As       0.00000000       0.00000000       0.00000000       0.00000000       0.00000000       0.02811344
As       0.00000000       0.00000000       5.64727273       0.00000000       0.00000000      -0.02811344
2
Properties=species:S:1:pos:R:3:forces:R:3 energy=-2.8429763231349265 pbc="F F F"
As       0.00000000       0.00000000       0.00000000       0.00000000       0.00000000       0.02007933
As       0.00000000       0.00000000       5.70606061       0.00000000       0.00000000      -0.02007933
2
Properties=species:S:1:pos:R:3:forces:R:3 energy=-2.8419939517629467 pbc="F F F"
As       0.00000000       0.00000000       0.00000000       0.00000000       0.00000000       0.01357892
As       0.00000000       0.00000000       5.76484848       0.00000000       0.00000000      -0.01357892
2
Properties=species:S:1:pos:R:3:forces:R:3 energy=-2.8413420816497252 pbc="F F F"
As       0.00000000       0.00000000       0.00000000       0.00000000       0.00000000       0.00893695
As       0.00000000       0.00000000       5.82363636       0.00000000       0.00000000      -0.00893695
2
Properties=species:S:1:pos:R:3:forces:R:3 energy=-2.840908385374141 pbc="F F F"
As       0.00000000       0.00000000       0.00000000       0.00000000       0.00000000       0.00614168
As       0.00000000       0.00000000       5.88242424       0.00000000       0.00000000      -0.00614168
2
Properties=species:S:1:pos:R:3:forces:R:3 energy=-2.8405891815443844 pbc="F F F"
As       0.00000000       0.00000000       0.00000000       0.00000000       0.00000000       0.00484230
As       0.00000000       0.00000000       5.94121212       0.00000000       0.00000000      -0.00484230
2
Properties=species:S:1:pos:R:3:forces:R:3 energy=-2.840320406642511 pbc="F F F"
As       0.00000000       0.00000000       0.00000000       0.00000000       0.00000000       0.00440468
As       0.00000000       0.00000000       6.00000000       0.00000000       0.00000000      -0.00440468
