2
Properties=species:S:1:pos:R:3:forces:R:3 energy=68664.08395081059 pbc="F F F"
Cr       0.00000000       0.00000000       0.00000000       0.00000000       0.00000000 -2229375.25000000
Cr       0.00000000       0.00000000       0.18000000       0.00000000       0.00000000 2229375.25000000
2
Properties=species:S:1:pos:R:3:forces:R:3 energy=-25196.341830439414 pbc="F F F"
Cr       0.00000000       0.00000000       0.00000000       0.00000000       0.00000000 -956475.18750000
Cr       0.00000000       0.00000000       0.23878788       0.00000000       0.00000000  956475.18750000
2
Properties=species:S:1:pos:R:3:forces:R:3 energy=-49088.10745543625 pbc="F F F"
Cr       0.00000000       0.00000000       0.00000000       0.00000000       0.00000000  483991.50000000
Cr       0.00000000       0.00000000       0.29757576       0.00000000       0.00000000 -483991.50000000
2
Properties=species:S:1:pos:R:3:forces:R:3 energy=-21473.61722105808 pbc="F F F"
Cr       0.00000000       0.00000000       0.00000000       0.00000000       0.00000000  413255.46875000
Cr       0.00000000       0.00000000       0.35636364       0.00000000       0.00000000 -413255.46875000
2
Properties=species:S:1:pos:R:3:forces:R:3 energy=-6024.266635114243 pbc="F F F"
Cr       0.00000000       0.00000000       0.00000000       0.00000000       0.00000000  128652.65625000
Cr       0.00000000       0.00000000       0.41515152       0.00000000       0.00000000 -128652.65625000
2
Properties=species:S:1:pos:R:3:forces:R:3 energy=-1702.8259612671113 pbc="F F F"
Cr       0.00000000       0.00000000       0.00000000       0.00000000       0.00000000   45783.55078125
Cr       0.00000000       0.00000000       0.47393939       0.00000000       0.00000000  -45783.55078125
2
Properties=species:S:1:pos:R:3:forces:R:3 energy=-83.29829704769503 pbc="F F F"
Cr       0.00000000       0.00000000       0.00000000       0.00000000       0.00000000   20668.49804688
Cr       0.00000000       0.00000000       0.53272727       0.00000000       0.00000000  -20668.49804688
2
Properties=species:S:1:pos:R:3:forces:R:3 energy=206.9977540347164 pbc="F F F"
Cr       0.00000000       0.00000000       0.00000000       0.00000000       0.00000000     941.56127930
Cr       0.00000000       0.00000000       0.59151515       0.00000000       0.00000000    -941.56127930
2
Properties=species:S:1:pos:R:3:forces:R:3 energy=166.43082908092293 pbc="F F F"
Cr       0.00000000       0.00000000       0.00000000       0.00000000       0.00000000   -1804.69787598
Cr       0.00000000       0.00000000       0.65030303       0.00000000       0.00000000    1804.69787598
2
Properties=species:S:1:pos:R:3:forces:R:3 energy=90.70956153278308 pbc="F F F"
Cr       0.00000000       0.00000000       0.00000000       0.00000000       0.00000000    -751.83520508
Cr       0.00000000       0.00000000       0.70909091       0.00000000       0.00000000     751.83520508
2
Properties=species:S:1:pos:R:3:forces:R:3 energy=56.3833975152608 pbc="F F F"
Cr       0.00000000       0.00000000       0.00000000       0.00000000       0.00000000    -429.58993530
Cr       0.00000000       0.00000000       0.76787879       0.00000000       0.00000000     429.58993530
2
Properties=species:S:1:pos:R:3:forces:R:3 energy=38.52355745798355 pbc="F F F"
Cr       0.00000000       0.00000000       0.00000000       0.00000000       0.00000000    -191.13125610
Cr       0.00000000       0.00000000       0.82666667       0.00000000       0.00000000     191.13125610
2
Properties=species:S:1:pos:R:3:forces:R:3 energy=28.407280247958187 pbc="F F F"
Cr       0.00000000       0.00000000       0.00000000       0.00000000       0.00000000    -156.86987305
Cr       0.00000000       0.00000000       0.88545455       0.00000000       0.00000000     156.86987305
2
Properties=species:S:1:pos:R:3:forces:R:3 energy=19.007123000573152 pbc="F F F"
Cr       0.00000000       0.00000000       0.00000000       0.00000000       0.00000000    -169.78605652
Cr       0.00000000       0.00000000       0.94424242       0.00000000       0.00000000     169.78605652
2
Properties=species:S:1:pos:R:3:forces:R:3 energy=11.163701992709886 pbc="F F F"
Cr       0.00000000       0.00000000       0.00000000       0.00000000       0.00000000     -74.35115051
Cr       0.00000000       0.00000000       1.00303030       0.00000000       0.00000000      74.35115051
2
Properties=species:S:1:pos:R:3:forces:R:3 energy=9.215941714690747 pbc="F F F"
Cr       0.00000000       0.00000000       0.00000000       0.00000000       0.00000000     -21.28326797
Cr       0.00000000       0.00000000       1.06181818       0.00000000       0.00000000      21.28326797
2
Properties=species:S:1:pos:R:3:forces:R:3 energy=7.746764233858458 pbc="F F F"
Cr       0.00000000       0.00000000       0.00000000       0.00000000       0.00000000     -27.56885719
Cr       0.00000000       0.00000000       1.12060606       0.00000000       0.00000000      27.56885719
2
Properties=species:S:1:pos:R:3:forces:R:3 energy=5.723542545870437 pbc="F F F"
Cr       0.00000000       0.00000000       0.00000000       0.00000000       0.00000000     -45.43667984
Cr       0.00000000       0.00000000       1.17939394       0.00000000       0.00000000      45.43667984
2
Properties=species:S:1:pos:R:3:forces:R:3 energy=2.6140673810772657 pbc="F F F"
Cr       0.00000000       0.00000000       0.00000000       0.00000000       0.00000000     -55.65847397
Cr       0.00000000       0.00000000       1.23818182       0.00000000       0.00000000      55.65847397
2
Properties=species:S:1:pos:R:3:forces:R:3 energy=-0.38430966544840583 pbc="F F F"
Cr       0.00000000       0.00000000       0.00000000       0.00000000       0.00000000     -46.77237701
Cr       0.00000000       0.00000000       1.29696970       0.00000000       0.00000000      46.77237701
2
Properties=species:S:1:pos:R:3:forces:R:3 energy=-2.8829184423215253 pbc="F F F"
Cr       0.00000000       0.00000000       0.00000000       0.00000000       0.00000000     -37.72670364
Cr       0.00000000       0.00000000       1.35575758       0.00000000       0.00000000      37.72670364
2
Properties=species:S:1:pos:R:3:forces:R:3 energy=-4.9923983347841405 pbc="F F F"
Cr       0.00000000       0.00000000       0.00000000       0.00000000       0.00000000     -34.14646912
Cr       0.00000000       0.00000000       1.41454545       0.00000000       0.00000000      34.14646912
2
Properties=species:S:1:pos:R:3:forces:R:3 energy=-6.8283334818915336 pbc="F F F"
Cr       0.00000000       0.00000000       0.00000000       0.00000000       0.00000000     -27.93203735
Cr       0.00000000       0.00000000       1.47333333       0.00000000       0.00000000      27.93203735
2
Properties=species:S:1:pos:R:3:forces:R:3 energy=-8.27367157731344 pbc="F F F"
Cr       0.00000000       0.00000000       0.00000000       0.00000000       0.00000000     -21.29133224
Cr       0.00000000       0.00000000       1.53212121       0.00000000       0.00000000      21.29133224
2
Properties=species:S:1:pos:R:3:forces:R:3 energy=-9.337928104610613 pbc="F F F"
Cr       0.00000000       0.00000000       0.00000000       0.00000000       0.00000000     -15.07097435
Cr       0.00000000       0.00000000       1.59090909       0.00000000       0.00000000      15.07097435
2
Properties=species:S:1:pos:R:3:forces:R:3 energy=-10.078323313691165 pbc="F F F"
Cr       0.00000000       0.00000000       0.00000000       0.00000000       0.00000000     -10.69017696
Cr       0.00000000       0.00000000       1.64969697       0.00000000       0.00000000      10.69017696
2
Properties=species:S:1:pos:R:3:forces:R:3 energy=-10.64159322286174 pbc="F F F"
Cr       0.00000000       0.00000000       0.00000000       0.00000000       0.00000000      -8.60055161
Cr       0.00000000       0.00000000       1.70848485       0.00000000       0.00000000       8.60055161
2
Properties=species:S:1:pos:R:3:forces:R:3 energy=-11.087726947031415 pbc="F F F"
Cr       0.00000000       0.00000000       0.00000000       0.00000000       0.00000000      -6.62151957
Cr       0.00000000       0.00000000       1.76727273       0.00000000       0.00000000       6.62151957
2
Properties=species:S:1:pos:R:3:forces:R:3 energy=-11.426995362023066 pbc="F F F"
Cr       0.00000000       0.00000000       0.00000000       0.00000000       0.00000000      -4.83114624
Cr       0.00000000       0.00000000       1.82606061       0.00000000       0.00000000       4.83114624
2
Properties=species:S:1:pos:R:3:forces:R:3 energy=-11.65953762477163 pbc="F F F"
Cr       0.00000000       0.00000000       0.00000000       0.00000000       0.00000000      -3.19774795
Cr       0.00000000       0.00000000       1.88484848       0.00000000       0.00000000       3.19774795
2
Properties=species:S:1:pos:R:3:forces:R:3 energy=-11.814123237244205 pbc="F F F"
Cr       0.00000000       0.00000000       0.00000000       0.00000000       0.00000000      -2.13380718
Cr       0.00000000       0.00000000       1.94363636       0.00000000       0.00000000       2.13380718
2
Properties=species:S:1:pos:R:3:forces:R:3 energy=-11.915406203283245 pbc="F F F"
Cr       0.00000000       0.00000000       0.00000000       0.00000000       0.00000000      -1.34797907
Cr       0.00000000       0.00000000       2.00242424       0.00000000       0.00000000       1.34797907
2
Properties=species:S:1:pos:R:3:forces:R:3 energy=-11.980289013411024 pbc="F F F"
Cr       0.00000000       0.00000000       0.00000000       0.00000000       0.00000000      -0.93950659
Cr       0.00000000       0.00000000       2.06121212       0.00000000       0.00000000       0.93950659
2
Properties=species:S:1:pos:R:3:forces:R:3 energy=-12.033040758451435 pbc="F F F"
Cr       0.00000000       0.00000000       0.00000000       0.00000000       0.00000000      -0.89249480
Cr       0.00000000       0.00000000       2.12000000       0.00000000       0.00000000       0.89249480
2
Properties=species:S:1:pos:R:3:forces:R:3 energy=-12.087143785902633 pbc="F F F"
Cr       0.00000000       0.00000000       0.00000000       0.00000000       0.00000000      -0.94891673
Cr       0.00000000       0.00000000       2.17878788       0.00000000       0.00000000       0.94891673
2
Properties=species:S:1:pos:R:3:forces:R:3 energy=-12.144133799278624 pbc="F F F"
Cr       0.00000000       0.00000000       0.00000000       0.00000000       0.00000000      -0.98489219
Cr       0.00000000       0.00000000       2.23757576       0.00000000       0.00000000       0.98489219
2
Properties=species:S:1:pos:R:3:forces:R:3 energy=-12.20229277133577 pbc="F F F"
Cr       0.00000000       0.00000000       0.00000000       0.00000000       0.00000000      -0.99088007
Cr       0.00000000       0.00000000       2.29636364       0.00000000       0.00000000       0.99088007
2
Properties=species:S:1:pos:R:3:forces:R:3 energy=-12.261659285013684 pbc="F F F"
Cr       0.00000000       0.00000000       0.00000000       0.00000000       0.00000000      -1.04468310
Cr       0.00000000       0.00000000       2.35515152       0.00000000       0.00000000       1.04468310
2
Properties=species:S:1:pos:R:3:forces:R:3 energy=-12.325478292088478 pbc="F F F"
Cr       0.00000000       0.00000000       0.00000000       0.00000000       0.00000000      -1.11402094
Cr       0.00000000       0.00000000       2.41393939       0.00000000       0.00000000       1.11402094
2
Properties=species:S:1:pos:R:3:forces:R:3 energy=-12.391121312807417 pbc="F F F"
Cr       0.00000000       0.00000000       0.00000000       0.00000000       0.00000000      -1.11379588
Cr       0.00000000       0.00000000       2.47272727       0.00000000       0.00000000       1.11379588
2
Properties=species:S:1:pos:R:3:forces:R:3 energy=-12.456386793749278 pbc="F F F"
Cr       0.00000000       0.00000000       0.00000000       0.00000000       0.00000000      -1.10630167
Cr       0.00000000       0.00000000       2.53151515       0.00000000       0.00000000       1.10630167
2
Properties=species:S:1:pos:R:3:forces:R:3 energy=-12.521006597451553 pbc="F F F"
Cr       0.00000000       0.00000000       0.00000000       0.00000000       0.00000000      -1.08981466
Cr       0.00000000       0.00000000       2.59030303       0.00000000       0.00000000       1.08981466
2
Properties=species:S:1:pos:R:3:forces:R:3 energy=-12.584033929601272 pbc="F F F"
Cr       0.00000000       0.00000000       0.00000000       0.00000000       0.00000000      -1.04719198
Cr       0.00000000       0.00000000       2.64909091       0.00000000       0.00000000       1.04719198
2
Properties=species:S:1:pos:R:3:forces:R:3 energy=-12.643007368484323 pbc="F F F"
Cr       0.00000000       0.00000000       0.00000000       0.00000000       0.00000000      -0.94951296
Cr       0.00000000       0.00000000       2.70787879       0.00000000       0.00000000       0.94951296
2
Properties=species:S:1:pos:R:3:forces:R:3 energy=-12.694957746149516 pbc="F F F"
Cr       0.00000000       0.00000000       0.00000000       0.00000000       0.00000000      -0.81620950
Cr       0.00000000       0.00000000       2.76666667       0.00000000       0.00000000       0.81620950
2
Properties=species:S:1:pos:R:3:forces:R:3 energy=-12.73913065339225 pbc="F F F"
Cr       0.00000000       0.00000000       0.00000000       0.00000000       0.00000000      -0.68931508
Cr       0.00000000       0.00000000       2.82545455       0.00000000       0.00000000       0.68931508
2
Properties=species:S:1:pos:R:3:forces:R:3 energy=-12.776301099772384 pbc="F F F"
Cr       0.00000000       0.00000000       0.00000000       0.00000000       0.00000000      -0.57712030
Cr       0.00000000       0.00000000       2.88424242       0.00000000       0.00000000       0.57712030
2
Properties=species:S:1:pos:R:3:forces:R:3 energy=-12.807120096410623 pbc="F F F"
Cr       0.00000000       0.00000000       0.00000000       0.00000000       0.00000000      -0.47191173
Cr       0.00000000       0.00000000       2.94303030       0.00000000       0.00000000       0.47191173
2
Properties=species:S:1:pos:R:3:forces:R:3 energy=-12.831806651460006 pbc="F F F"
Cr       0.00000000       0.00000000       0.00000000       0.00000000       0.00000000      -0.36792079
Cr       0.00000000       0.00000000       3.00181818       0.00000000       0.00000000       0.36792079
2
Properties=species:S:1:pos:R:3:forces:R:3 energy=-12.850394375977874 pbc="F F F"
Cr       0.00000000       0.00000000       0.00000000       0.00000000       0.00000000      -0.26486981
Cr       0.00000000       0.00000000       3.06060606       0.00000000       0.00000000       0.26486981
2
Properties=species:S:1:pos:R:3:forces:R:3 energy=-12.863049094875635 pbc="F F F"
Cr       0.00000000       0.00000000       0.00000000       0.00000000       0.00000000      -0.16694677
Cr       0.00000000       0.00000000       3.11939394       0.00000000       0.00000000       0.16694677
2
Properties=species:S:1:pos:R:3:forces:R:3 energy=-12.870208742798662 pbc="F F F"
Cr       0.00000000       0.00000000       0.00000000       0.00000000       0.00000000      -0.07836287
Cr       0.00000000       0.00000000       3.17818182       0.00000000       0.00000000       0.07836287
2
Properties=species:S:1:pos:R:3:forces:R:3 energy=-12.87248566735711 pbc="F F F"
Cr       0.00000000       0.00000000       0.00000000       0.00000000       0.00000000      -0.00106623
Cr       0.00000000       0.00000000       3.23696970       0.00000000       0.00000000       0.00106623
2
Properties=species:S:1:pos:R:3:forces:R:3 energy=-12.870572809960048 pbc="F F F"
Cr       0.00000000       0.00000000       0.00000000       0.00000000       0.00000000       0.06398010
Cr       0.00000000       0.00000000       3.29575758       0.00000000       0.00000000      -0.06398010
2
Properties=species:S:1:pos:R:3:forces:R:3 energy=-12.865216150310898 pbc="F F F"
Cr       0.00000000       0.00000000       0.00000000       0.00000000       0.00000000       0.11607660
Cr       0.00000000       0.00000000       3.35454545       0.00000000       0.00000000      -0.11607660
2
Properties=species:S:1:pos:R:3:forces:R:3 energy=-12.857173238917758 pbc="F F F"
Cr       0.00000000       0.00000000       0.00000000       0.00000000       0.00000000       0.15558687
Cr       0.00000000       0.00000000       3.41333333       0.00000000       0.00000000      -0.15558687
2
Properties=species:S:1:pos:R:3:forces:R:3 energy=-12.847135458301501 pbc="F F F"
Cr       0.00000000       0.00000000       0.00000000       0.00000000       0.00000000       0.18428724
Cr       0.00000000       0.00000000       3.47212121       0.00000000       0.00000000      -0.18428724
2
Properties=species:S:1:pos:R:3:forces:R:3 energy=-12.835671673847727 pbc="F F F"
Cr       0.00000000       0.00000000       0.00000000       0.00000000       0.00000000       0.20453058
Cr       0.00000000       0.00000000       3.53090909       0.00000000       0.00000000      -0.20453058
2
Properties=species:S:1:pos:R:3:forces:R:3 energy=-12.823217163517983 pbc="F F F"
Cr       0.00000000       0.00000000       0.00000000       0.00000000       0.00000000       0.21815057
Cr       0.00000000       0.00000000       3.58969697       0.00000000       0.00000000      -0.21815057
2
Properties=species:S:1:pos:R:3:forces:R:3 energy=-12.810131684277103 pbc="F F F"
Cr       0.00000000       0.00000000       0.00000000       0.00000000       0.00000000       0.22611298
Cr       0.00000000       0.00000000       3.64848485       0.00000000       0.00000000      -0.22611298
2
Properties=species:S:1:pos:R:3:forces:R:3 energy=-12.796733110455701 pbc="F F F"
Cr       0.00000000       0.00000000       0.00000000       0.00000000       0.00000000       0.22891945
Cr       0.00000000       0.00000000       3.70727273       0.00000000       0.00000000      -0.22891945
2
Properties=species:S:1:pos:R:3:forces:R:3 energy=-12.783307854475574 pbc="F F F"
Cr       0.00000000       0.00000000       0.00000000       0.00000000       0.00000000       0.22713554
Cr       0.00000000       0.00000000       3.76606061       0.00000000       0.00000000      -0.22713554
2
Properties=species:S:1:pos:R:3:forces:R:3 energy=-12.77010052848767 pbc="F F F"
Cr       0.00000000       0.00000000       0.00000000       0.00000000       0.00000000       0.22160259
Cr       0.00000000       0.00000000       3.82484848       0.00000000       0.00000000      -0.22160259
2
Properties=species:S:1:pos:R:3:forces:R:3 energy=-12.75730534229632 pbc="F F F"
Cr       0.00000000       0.00000000       0.00000000       0.00000000       0.00000000       0.21332750
Cr       0.00000000       0.00000000       3.88363636       0.00000000       0.00000000      -0.21332750
2
Properties=species:S:1:pos:R:3:forces:R:3 energy=-12.745053699257467 pbc="F F F"
Cr       0.00000000       0.00000000       0.00000000       0.00000000       0.00000000       0.20325002
Cr       0.00000000       0.00000000       3.94242424       0.00000000       0.00000000      -0.20325002
2
Properties=species:S:1:pos:R:3:forces:R:3 energy=-12.733429404382587 pbc="F F F"
Cr       0.00000000       0.00000000       0.00000000       0.00000000       0.00000000       0.19209345
Cr       0.00000000       0.00000000       4.00121212       0.00000000       0.00000000      -0.19209345
2
Properties=species:S:1:pos:R:3:forces:R:3 energy=-12.722479104071013 pbc="F F F"
Cr       0.00000000       0.00000000       0.00000000       0.00000000       0.00000000       0.18037476
Cr       0.00000000       0.00000000       4.06000000       0.00000000       0.00000000      -0.18037476
2
Properties=species:S:1:pos:R:3:forces:R:3 energy=-12.712224538156217 pbc="F F F"
Cr       0.00000000       0.00000000       0.00000000       0.00000000       0.00000000       0.16849925
Cr       0.00000000       0.00000000       4.11878788       0.00000000       0.00000000      -0.16849925
2
Properties=species:S:1:pos:R:3:forces:R:3 energy=-12.702665318565403 pbc="F F F"
Cr       0.00000000       0.00000000       0.00000000       0.00000000       0.00000000       0.15681252
Cr       0.00000000       0.00000000       4.17757576       0.00000000       0.00000000      -0.15681252
2
Properties=species:S:1:pos:R:3:forces:R:3 energy=-12.693777728555045 pbc="F F F"
Cr       0.00000000       0.00000000       0.00000000       0.00000000       0.00000000       0.14558947
Cr       0.00000000       0.00000000       4.23636364       0.00000000       0.00000000      -0.14558947
2
Properties=species:S:1:pos:R:3:forces:R:3 energy=-12.685532753823889 pbc="F F F"
Cr       0.00000000       0.00000000       0.00000000       0.00000000       0.00000000       0.13499853
Cr       0.00000000       0.00000000       4.29515152       0.00000000       0.00000000      -0.13499853
2
Properties=species:S:1:pos:R:3:forces:R:3 energy=-12.677892974399876 pbc="F F F"
Cr       0.00000000       0.00000000       0.00000000       0.00000000       0.00000000       0.12509537
Cr       0.00000000       0.00000000       4.35393939       0.00000000       0.00000000      -0.12509537
2
Properties=species:S:1:pos:R:3:forces:R:3 energy=-12.67081325855304 pbc="F F F"
Cr       0.00000000       0.00000000       0.00000000       0.00000000       0.00000000       0.11584979
Cr       0.00000000       0.00000000       4.41272727       0.00000000       0.00000000      -0.11584979
2
Properties=species:S:1:pos:R:3:forces:R:3 energy=-12.664259772925385 pbc="F F F"
Cr       0.00000000       0.00000000       0.00000000       0.00000000       0.00000000       0.10719016
Cr       0.00000000       0.00000000       4.47151515       0.00000000       0.00000000      -0.10719016
2
Properties=species:S:1:pos:R:3:forces:R:3 energy=-12.658200125837702 pbc="F F F"
Cr       0.00000000       0.00000000       0.00000000       0.00000000       0.00000000       0.09904386
Cr       0.00000000       0.00000000       4.53030303       0.00000000       0.00000000      -0.09904386
2
Properties=species:S:1:pos:R:3:forces:R:3 energy=-12.65260518910699 pbc="F F F"
Cr       0.00000000       0.00000000       0.00000000       0.00000000       0.00000000       0.09135936
Cr       0.00000000       0.00000000       4.58909091       0.00000000       0.00000000      -0.09135936
2
Properties=species:S:1:pos:R:3:forces:R:3 energy=-12.64744900934744 pbc="F F F"
Cr       0.00000000       0.00000000       0.00000000       0.00000000       0.00000000       0.08411890
Cr       0.00000000       0.00000000       4.64787879       0.00000000       0.00000000      -0.08411890
2
Properties=species:S:1:pos:R:3:forces:R:3 energy=-12.642705684018246 pbc="F F F"
Cr       0.00000000       0.00000000       0.00000000       0.00000000       0.00000000       0.07733431
Cr       0.00000000       0.00000000       4.70666667       0.00000000       0.00000000      -0.07733431
2
Properties=species:S:1:pos:R:3:forces:R:3 energy=-12.638346570092743 pbc="F F F"
Cr       0.00000000       0.00000000       0.00000000       0.00000000       0.00000000       0.07104355
Cr       0.00000000       0.00000000       4.76545455       0.00000000       0.00000000      -0.07104355
2
Properties=species:S:1:pos:R:3:forces:R:3 energy=-12.63434209320456 pbc="F F F"
Cr       0.00000000       0.00000000       0.00000000       0.00000000       0.00000000       0.06530061
Cr       0.00000000       0.00000000       4.82424242       0.00000000       0.00000000      -0.06530061
2
Properties=species:S:1:pos:R:3:forces:R:3 energy=-12.630656979276031 pbc="F F F"
Cr       0.00000000       0.00000000       0.00000000       0.00000000       0.00000000       0.06016636
Cr       0.00000000       0.00000000       4.88303030       0.00000000       0.00000000      -0.06016636
2
Properties=species:S:1:pos:R:3:forces:R:3 energy=-12.627255925878933 pbc="F F F"
Cr       0.00000000       0.00000000       0.00000000       0.00000000       0.00000000       0.05569160
Cr       0.00000000       0.00000000       4.94181818       0.00000000       0.00000000      -0.05569160
2
Properties=species:S:1:pos:R:3:forces:R:3 energy=-12.62409607421028 pbc="F F F"
Cr       0.00000000       0.00000000       0.00000000       0.00000000       0.00000000       0.05190082
Cr       0.00000000       0.00000000       5.00060606       0.00000000       0.00000000      -0.05190082
2
Properties=species:S:1:pos:R:3:forces:R:3 energy=-12.621139470214867 pbc="F F F"
Cr       0.00000000       0.00000000       0.00000000       0.00000000       0.00000000       0.04876944
Cr       0.00000000       0.00000000       5.05939394       0.00000000       0.00000000      -0.04876944
2
Properties=species:S:1:pos:R:3:forces:R:3 energy=-12.618350187723214 pbc="F F F"
Cr       0.00000000       0.00000000       0.00000000       0.00000000       0.00000000       0.04620896
Cr       0.00000000       0.00000000       5.11818182       0.00000000       0.00000000      -0.04620896
2
Properties=species:S:1:pos:R:3:forces:R:3 energy=-12.615698257190425 pbc="F F F"
Cr       0.00000000       0.00000000       0.00000000       0.00000000       0.00000000       0.04406727
Cr       0.00000000       0.00000000       5.17696970       0.00000000       0.00000000      -0.04406727
2
Properties=species:S:1:pos:R:3:forces:R:3 energy=-12.613165523958449 pbc="F F F"
Cr       0.00000000       0.00000000       0.00000000       0.00000000       0.00000000       0.04214222
Cr       0.00000000       0.00000000       5.23575758       0.00000000       0.00000000      -0.04214222
2
Properties=species:S:1:pos:R:3:forces:R:3 energy=-12.610744659735703 pbc="F F F"
Cr       0.00000000       0.00000000       0.00000000       0.00000000       0.00000000       0.04021476
Cr       0.00000000       0.00000000       5.29454545       0.00000000       0.00000000      -0.04021476
2
Properties=species:S:1:pos:R:3:forces:R:3 energy=-12.608441263182877 pbc="F F F"
Cr       0.00000000       0.00000000       0.00000000       0.00000000       0.00000000       0.03808813
Cr       0.00000000       0.00000000       5.35333333       0.00000000       0.00000000      -0.03808813
2
Properties=species:S:1:pos:R:3:forces:R:3 energy=-12.60627292524553 pbc="F F F"
Cr       0.00000000       0.00000000       0.00000000       0.00000000       0.00000000       0.03563016
Cr       0.00000000       0.00000000       5.41212121       0.00000000       0.00000000      -0.03563016
2
Properties=species:S:1:pos:R:3:forces:R:3 energy=-12.604258795757422 pbc="F F F"
Cr       0.00000000       0.00000000       0.00000000       0.00000000       0.00000000       0.03279711
Cr       0.00000000       0.00000000       5.47090909       0.00000000       0.00000000      -0.03279711
2
Properties=species:S:1:pos:R:3:forces:R:3 energy=-12.602421598495098 pbc="F F F"
Cr       0.00000000       0.00000000       0.00000000       0.00000000       0.00000000       0.02964469
Cr       0.00000000       0.00000000       5.52969697       0.00000000       0.00000000      -0.02964469
2
Properties=species:S:1:pos:R:3:forces:R:3 energy=-12.60077720094902 pbc="F F F"
Cr       0.00000000       0.00000000       0.00000000       0.00000000       0.00000000       0.02631344
Cr       0.00000000       0.00000000       5.58848485       0.00000000       0.00000000      -0.02631344
2
Properties=species:S:1:pos:R:3:forces:R:3 energy=-12.59932795602638 pbc="F F F"
Cr       0.00000000       0.00000000       0.00000000       0.00000000       0.00000000       0.02300350
Cr       0.00000000       0.00000000       5.64727273       0.00000000       0.00000000      -0.02300350
2
Properties=species:S:1:pos:R:3:forces:R:3 energy=-12.59806753219522 pbc="F F F"
Cr       0.00000000       0.00000000       0.00000000       0.00000000       0.00000000       0.01992707
Cr       0.00000000       0.00000000       5.70606061       0.00000000       0.00000000      -0.01992707
2
Properties=species:S:1:pos:R:3:forces:R:3 energy=-12.596976216388835 pbc="F F F"
Cr       0.00000000       0.00000000       0.00000000       0.00000000       0.00000000       0.01727144
Cr       0.00000000       0.00000000       5.76484848       0.00000000       0.00000000      -0.01727144
2
Properties=species:S:1:pos:R:3:forces:R:3 energy=-12.596025683961278 pbc="F F F"
Cr       0.00000000       0.00000000       0.00000000       0.00000000       0.00000000       0.01515730
Cr       0.00000000       0.00000000       5.82363636       0.00000000       0.00000000      -0.01515730
2
Properties=species:S:1:pos:R:3:forces:R:3 energy=-12.595183787649777 pbc="F F F"
Cr       0.00000000       0.00000000       0.00000000       0.00000000       0.00000000       0.01360662
Cr       0.00000000       0.00000000       5.88242424       0.00000000       0.00000000      -0.01360662
2
Properties=species:S:1:pos:R:3:forces:R:3 energy=-12.594416529071772 pbc="F F F"
Cr       0.00000000       0.00000000       0.00000000       0.00000000       0.00000000       0.01253224
Cr       0.00000000       0.00000000       5.94121212       0.00000000       0.00000000      -0.01253224
2
Properties=species:S:1:pos:R:3:forces:R:3 energy=-12.593704249805494 pbc="F F F"
Cr       0.00000000       0.00000000       0.00000000       0.00000000       0.00000000       0.01175158
Cr       0.00000000       0.00000000       6.00000000       0.00000000       0.00000000      -0.01175158
