2
Properties=species:S:1:pos:R:3:forces:R:3 energy=489248.5798861071 pbc="F F F"
Ga       0.00000000       0.00000000       0.00000000       0.00000000       0.00000000 -4123565.00000000
Ga       0.00000000       0.00000000       0.18000000       0.00000000       0.00000000 4123565.00000000
2
Properties=species:S:1:pos:R:3:forces:R:3 energy=270856.4236361071 pbc="F F F"
Ga       0.00000000       0.00000000       0.00000000       0.00000000       0.00000000 -3187892.50000000
Ga       0.00000000       0.00000000       0.23878788       0.00000000       0.00000000 3187892.50000000
2
Properties=species:S:1:pos:R:3:forces:R:3 energy=121815.27519861345 pbc="F F F"
Ga       0.00000000       0.00000000       0.00000000       0.00000000       0.00000000 -1878648.62500000
Ga       0.00000000       0.00000000       0.29757576       0.00000000       0.00000000 1878648.62500000
2
Properties=species:S:1:pos:R:3:forces:R:3 energy=44403.57988611345 pbc="F F F"
Ga       0.00000000       0.00000000       0.00000000       0.00000000       0.00000000 -894391.81250000
Ga       0.00000000       0.00000000       0.35636364       0.00000000       0.00000000  894391.81250000
2
Properties=species:S:1:pos:R:3:forces:R:3 energy=12587.539847057287 pbc="F F F"
Ga       0.00000000       0.00000000       0.00000000       0.00000000       0.00000000 -285702.56250000
Ga       0.00000000       0.00000000       0.41515152       0.00000000       0.00000000  285702.56250000
2
Properties=species:S:1:pos:R:3:forces:R:3 energy=1582.4543978480403 pbc="F F F"
Ga       0.00000000       0.00000000       0.00000000       0.00000000       0.00000000  -87466.37500000
Ga       0.00000000       0.00000000       0.47393939       0.00000000       0.00000000   87466.37500000
2
Properties=species:S:1:pos:R:3:forces:R:3 energy=-959.4597867000973 pbc="F F F"
Ga       0.00000000       0.00000000       0.00000000       0.00000000       0.00000000  -17728.80664062
Ga       0.00000000       0.00000000       0.53272727       0.00000000       0.00000000   17728.80664062
2
Properties=species:S:1:pos:R:3:forces:R:3 energy=-914.2649624433335 pbc="F F F"
Ga       0.00000000       0.00000000       0.00000000       0.00000000       0.00000000   14897.21093750
Ga       0.00000000       0.00000000       0.59151515       0.00000000       0.00000000  -14897.21093750
2
Properties=species:S:1:pos:R:3:forces:R:3 energy=-303.00278586630515 pbc="F F F"
Ga       0.00000000       0.00000000       0.00000000       0.00000000       0.00000000    6017.84033203
Ga       0.00000000       0.00000000       0.65030303       0.00000000       0.00000000   -6017.84033203
2
Properties=species:S:1:pos:R:3:forces:R:3 energy=-147.12658032059892 pbc="F F F"
Ga       0.00000000       0.00000000       0.00000000       0.00000000       0.00000000     920.43017578
Ga       0.00000000       0.00000000       0.70909091       0.00000000       0.00000000    -920.43017578
2
Properties=species:S:1:pos:R:3:forces:R:3 energy=-96.58342831941033 pbc="F F F"
Ga       0.00000000       0.00000000       0.00000000       0.00000000       0.00000000    1018.90429688
Ga       0.00000000       0.00000000       0.76787879       0.00000000       0.00000000   -1018.90429688
2
Properties=species:S:1:pos:R:3:forces:R:3 energy=-45.76463384400668 pbc="F F F"
Ga       0.00000000       0.00000000       0.00000000       0.00000000       0.00000000     825.89233398
Ga       0.00000000       0.00000000       0.82666667       0.00000000       0.00000000    -825.89233398
2
Properties=species:S:1:pos:R:3:forces:R:3 energy=-0.01954495312178276 pbc="F F F"
Ga       0.00000000       0.00000000       0.00000000       0.00000000       0.00000000     699.01904297
Ga       0.00000000       0.00000000       0.88545455       0.00000000       0.00000000    -699.01904297
2
Properties=species:S:1:pos:R:3:forces:R:3 energy=32.5974617922532 pbc="F F F"
Ga       0.00000000       0.00000000       0.00000000       0.00000000       0.00000000     305.29873657
Ga       0.00000000       0.00000000       0.94424242       0.00000000       0.00000000    -305.29873657
2
Properties=species:S:1:pos:R:3:forces:R:3 energy=52.52916406696695 pbc="F F F"
Ga       0.00000000       0.00000000       0.00000000       0.00000000       0.00000000     243.31626892
Ga       0.00000000       0.00000000       1.00303030       0.00000000       0.00000000    -243.31626892
2
Properties=species:S:1:pos:R:3:forces:R:3 energy=54.71220169479992 pbc="F F F"
Ga       0.00000000       0.00000000       0.00000000       0.00000000       0.00000000     -99.79365540
Ga       0.00000000       0.00000000       1.06181818       0.00000000       0.00000000      99.79365540
2
Properties=species:S:1:pos:R:3:forces:R:3 energy=47.302160981784354 pbc="F F F"
Ga       0.00000000       0.00000000       0.00000000       0.00000000       0.00000000    -154.40240479
Ga       0.00000000       0.00000000       1.12060606       0.00000000       0.00000000     154.40240479
2
Properties=species:S:1:pos:R:3:forces:R:3 energy=38.55825829987044 pbc="F F F"
Ga       0.00000000       0.00000000       0.00000000       0.00000000       0.00000000    -145.82189941
Ga       0.00000000       0.00000000       1.17939394       0.00000000       0.00000000     145.82189941
2
Properties=species:S:1:pos:R:3:forces:R:3 energy=30.95562191475313 pbc="F F F"
Ga       0.00000000       0.00000000       0.00000000       0.00000000       0.00000000    -130.89587402
Ga       0.00000000       0.00000000       1.23818182       0.00000000       0.00000000     130.89587402
2
Properties=species:S:1:pos:R:3:forces:R:3 energy=23.688465775983317 pbc="F F F"
Ga       0.00000000       0.00000000       0.00000000       0.00000000       0.00000000    -116.77043915
Ga       0.00000000       0.00000000       1.29696970       0.00000000       0.00000000     116.77043915
2
Properties=species:S:1:pos:R:3:forces:R:3 energy=17.764915309114016 pbc="F F F"
Ga       0.00000000       0.00000000       0.00000000       0.00000000       0.00000000     -86.21205902
Ga       0.00000000       0.00000000       1.35575758       0.00000000       0.00000000      86.21205902
2
Properties=species:S:1:pos:R:3:forces:R:3 energy=13.27424790831417 pbc="F F F"
Ga       0.00000000       0.00000000       0.00000000       0.00000000       0.00000000     -67.00689697
Ga       0.00000000       0.00000000       1.41454545       0.00000000       0.00000000      67.00689697
2
Properties=species:S:1:pos:R:3:forces:R:3 energy=9.859148671666144 pbc="F F F"
Ga       0.00000000       0.00000000       0.00000000       0.00000000       0.00000000     -49.79402161
Ga       0.00000000       0.00000000       1.47333333       0.00000000       0.00000000      49.79402161
2
Properties=species:S:1:pos:R:3:forces:R:3 energy=7.342586723705041 pbc="F F F"
Ga       0.00000000       0.00000000       0.00000000       0.00000000       0.00000000     -36.70835876
Ga       0.00000000       0.00000000       1.53212121       0.00000000       0.00000000      36.70835876
2
Properties=species:S:1:pos:R:3:forces:R:3 energy=5.45534761486977 pbc="F F F"
Ga       0.00000000       0.00000000       0.00000000       0.00000000       0.00000000     -28.25773239
Ga       0.00000000       0.00000000       1.59090909       0.00000000       0.00000000      28.25773239
2
Properties=species:S:1:pos:R:3:forces:R:3 energy=3.9581475695458685 pbc="F F F"
Ga       0.00000000       0.00000000       0.00000000       0.00000000       0.00000000     -22.65522003
Ga       0.00000000       0.00000000       1.64969697       0.00000000       0.00000000      22.65522003
2
Properties=species:S:1:pos:R:3:forces:R:3 energy=2.74891028852781 pbc="F F F"
Ga       0.00000000       0.00000000       0.00000000       0.00000000       0.00000000     -18.84334564
Ga       0.00000000       0.00000000       1.70848485       0.00000000       0.00000000      18.84334564
2
Properties=species:S:1:pos:R:3:forces:R:3 energy=1.7251437086219807 pbc="F F F"
Ga       0.00000000       0.00000000       0.00000000       0.00000000       0.00000000     -16.26191330
Ga       0.00000000       0.00000000       1.76727273       0.00000000       0.00000000      16.26191330
2
Properties=species:S:1:pos:R:3:forces:R:3 energy=0.8046246995576183 pbc="F F F"
Ga       0.00000000       0.00000000       0.00000000       0.00000000       0.00000000     -14.94808388
Ga       0.00000000       0.00000000       1.82606061       0.00000000       0.00000000      14.94808388
2
Properties=species:S:1:pos:R:3:forces:R:3 energy=0.0005314561566832493 pbc="F F F"
Ga       0.00000000       0.00000000       0.00000000       0.00000000       0.00000000     -12.37947845
Ga       0.00000000       0.00000000       1.88484848       0.00000000       0.00000000      12.37947845
2
Properties=species:S:1:pos:R:3:forces:R:3 energy=-0.6560684031222885 pbc="F F F"
Ga       0.00000000       0.00000000       0.00000000       0.00000000       0.00000000      -9.99389744
Ga       0.00000000       0.00000000       1.94363636       0.00000000       0.00000000       9.99389744
2
Properties=species:S:1:pos:R:3:forces:R:3 energy=-1.1816241079782799 pbc="F F F"
Ga       0.00000000       0.00000000       0.00000000       0.00000000       0.00000000      -7.94589520
Ga       0.00000000       0.00000000       2.00242424       0.00000000       0.00000000       7.94589520
2
Properties=species:S:1:pos:R:3:forces:R:3 energy=-1.5935596889814598 pbc="F F F"
Ga       0.00000000       0.00000000       0.00000000       0.00000000       0.00000000      -6.09954405
Ga       0.00000000       0.00000000       2.06121212       0.00000000       0.00000000       6.09954405
2
Properties=species:S:1:pos:R:3:forces:R:3 energy=-1.905432703758923 pbc="F F F"
Ga       0.00000000       0.00000000       0.00000000       0.00000000       0.00000000      -4.55519152
Ga       0.00000000       0.00000000       2.12000000       0.00000000       0.00000000       4.55519152
2
Properties=species:S:1:pos:R:3:forces:R:3 energy=-2.1345352145336 pbc="F F F"
Ga       0.00000000       0.00000000       0.00000000       0.00000000       0.00000000      -3.30559587
Ga       0.00000000       0.00000000       2.17878788       0.00000000       0.00000000       3.30559587
2
Properties=species:S:1:pos:R:3:forces:R:3 energy=-2.30059879343724 pbc="F F F"
Ga       0.00000000       0.00000000       0.00000000       0.00000000       0.00000000      -2.38490081
Ga       0.00000000       0.00000000       2.23757576       0.00000000       0.00000000       2.38490081
2
Properties=species:S:1:pos:R:3:forces:R:3 energy=-2.4206095663145084 pbc="F F F"
Ga       0.00000000       0.00000000       0.00000000       0.00000000       0.00000000      -1.73916316
Ga       0.00000000       0.00000000       2.29636364       0.00000000       0.00000000       1.73916316
2
Properties=species:S:1:pos:R:3:forces:R:3 energy=-2.507600491907209 pbc="F F F"
Ga       0.00000000       0.00000000       0.00000000       0.00000000       0.00000000      -1.23481679
Ga       0.00000000       0.00000000       2.35515152       0.00000000       0.00000000       1.23481679
2
Properties=species:S:1:pos:R:3:forces:R:3 energy=-2.567773551402043 pbc="F F F"
Ga       0.00000000       0.00000000       0.00000000       0.00000000       0.00000000      -0.82515931
Ga       0.00000000       0.00000000       2.41393939       0.00000000       0.00000000       0.82515931
2
Properties=species:S:1:pos:R:3:forces:R:3 energy=-2.6057288699163648 pbc="F F F"
Ga       0.00000000       0.00000000       0.00000000       0.00000000       0.00000000      -0.47680715
Ga       0.00000000       0.00000000       2.47272727       0.00000000       0.00000000       0.47680715
2
Properties=species:S:1:pos:R:3:forces:R:3 energy=-2.625016746703574 pbc="F F F"
Ga       0.00000000       0.00000000       0.00000000       0.00000000       0.00000000      -0.18781774
Ga       0.00000000       0.00000000       2.53151515       0.00000000       0.00000000       0.18781774
2
Properties=species:S:1:pos:R:3:forces:R:3 energy=-2.629132936343365 pbc="F F F"
Ga       0.00000000       0.00000000       0.00000000       0.00000000       0.00000000       0.03336576
Ga       0.00000000       0.00000000       2.59030303       0.00000000       0.00000000      -0.03336576
2
Properties=species:S:1:pos:R:3:forces:R:3 energy=-2.6225878330361514 pbc="F F F"
Ga       0.00000000       0.00000000       0.00000000       0.00000000       0.00000000       0.18092853
Ga       0.00000000       0.00000000       2.64909091       0.00000000       0.00000000      -0.18092853
2
Properties=species:S:1:pos:R:3:forces:R:3 energy=-2.608313052206822 pbc="F F F"
Ga       0.00000000       0.00000000       0.00000000       0.00000000       0.00000000       0.30395585
Ga       0.00000000       0.00000000       2.70787879       0.00000000       0.00000000      -0.30395585
2
Properties=species:S:1:pos:R:3:forces:R:3 energy=-2.586873424496159 pbc="F F F"
Ga       0.00000000       0.00000000       0.00000000       0.00000000       0.00000000       0.42458650
Ga       0.00000000       0.00000000       2.76666667       0.00000000       0.00000000      -0.42458650
2
Properties=species:S:1:pos:R:3:forces:R:3 energy=-2.558663664076925 pbc="F F F"
Ga       0.00000000       0.00000000       0.00000000       0.00000000       0.00000000       0.53123480
Ga       0.00000000       0.00000000       2.82545455       0.00000000       0.00000000      -0.53123480
2
Properties=species:S:1:pos:R:3:forces:R:3 energy=-2.5250172128903077 pbc="F F F"
Ga       0.00000000       0.00000000       0.00000000       0.00000000       0.00000000       0.60750043
Ga       0.00000000       0.00000000       2.88424242       0.00000000       0.00000000      -0.60750043
2
Properties=species:S:1:pos:R:3:forces:R:3 energy=-2.487927536262338 pbc="F F F"
Ga       0.00000000       0.00000000       0.00000000       0.00000000       0.00000000       0.64915943
Ga       0.00000000       0.00000000       2.94303030       0.00000000       0.00000000      -0.64915943
2
Properties=species:S:1:pos:R:3:forces:R:3 energy=-2.4491225753758377 pbc="F F F"
Ga       0.00000000       0.00000000       0.00000000       0.00000000       0.00000000       0.66894484
Ga       0.00000000       0.00000000       3.00181818       0.00000000       0.00000000      -0.66894484
2
Properties=species:S:1:pos:R:3:forces:R:3 energy=-2.4093852074128734 pbc="F F F"
Ga       0.00000000       0.00000000       0.00000000       0.00000000       0.00000000       0.68259490
Ga       0.00000000       0.00000000       3.06060606       0.00000000       0.00000000      -0.68259490
2
Properties=species:S:1:pos:R:3:forces:R:3 energy=-2.3689223325760245 pbc="F F F"
Ga       0.00000000       0.00000000       0.00000000       0.00000000       0.00000000       0.69312871
Ga       0.00000000       0.00000000       3.11939394       0.00000000       0.00000000      -0.69312871
2
Properties=species:S:1:pos:R:3:forces:R:3 energy=-2.328038067053796 pbc="F F F"
Ga       0.00000000       0.00000000       0.00000000       0.00000000       0.00000000       0.69623244
Ga       0.00000000       0.00000000       3.17818182       0.00000000       0.00000000      -0.69623244
2
Properties=species:S:1:pos:R:3:forces:R:3 energy=-2.287254462170059 pbc="F F F"
Ga       0.00000000       0.00000000       0.00000000       0.00000000       0.00000000       0.68962258
Ga       0.00000000       0.00000000       3.23696970       0.00000000       0.00000000      -0.68962258
2
Properties=species:S:1:pos:R:3:forces:R:3 energy=-2.247143731930598 pbc="F F F"
Ga       0.00000000       0.00000000       0.00000000       0.00000000       0.00000000       0.67345053
Ga       0.00000000       0.00000000       3.29575758       0.00000000       0.00000000      -0.67345053
2
Properties=species:S:1:pos:R:3:forces:R:3 energy=-2.208233013452479 pbc="F F F"
Ga       0.00000000       0.00000000       0.00000000       0.00000000       0.00000000       0.64914817
Ga       0.00000000       0.00000000       3.35454545       0.00000000       0.00000000      -0.64914817
2
Properties=species:S:1:pos:R:3:forces:R:3 energy=-2.1709342325437957 pbc="F F F"
Ga       0.00000000       0.00000000       0.00000000       0.00000000       0.00000000       0.61901277
Ga       0.00000000       0.00000000       3.41333333       0.00000000       0.00000000      -0.61901277
2
Properties=species:S:1:pos:R:3:forces:R:3 energy=-2.135509016527504 pbc="F F F"
Ga       0.00000000       0.00000000       0.00000000       0.00000000       0.00000000       0.58595330
Ga       0.00000000       0.00000000       3.47212121       0.00000000       0.00000000      -0.58595330
2
Properties=species:S:1:pos:R:3:forces:R:3 energy=-2.102041483709772 pbc="F F F"
Ga       0.00000000       0.00000000       0.00000000       0.00000000       0.00000000       0.55279249
Ga       0.00000000       0.00000000       3.53090909       0.00000000       0.00000000      -0.55279249
2
Properties=species:S:1:pos:R:3:forces:R:3 energy=-2.070484177658725 pbc="F F F"
Ga       0.00000000       0.00000000       0.00000000       0.00000000       0.00000000       0.52110678
Ga       0.00000000       0.00000000       3.58969697       0.00000000       0.00000000      -0.52110678
2
Properties=species:S:1:pos:R:3:forces:R:3 energy=-2.040741698784951 pbc="F F F"
Ga       0.00000000       0.00000000       0.00000000       0.00000000       0.00000000       0.49092799
Ga       0.00000000       0.00000000       3.64848485       0.00000000       0.00000000      -0.49092799
2
Properties=species:S:1:pos:R:3:forces:R:3 energy=-2.0127457450135298 pbc="F F F"
Ga       0.00000000       0.00000000       0.00000000       0.00000000       0.00000000       0.46160504
Ga       0.00000000       0.00000000       3.70727273       0.00000000       0.00000000      -0.46160504
2
Properties=species:S:1:pos:R:3:forces:R:3 energy=-1.986458457483771 pbc="F F F"
Ga       0.00000000       0.00000000       0.00000000       0.00000000       0.00000000       0.43277624
Ga       0.00000000       0.00000000       3.76606061       0.00000000       0.00000000      -0.43277624
2
Properties=species:S:1:pos:R:3:forces:R:3 energy=-1.9618480875190203 pbc="F F F"
Ga       0.00000000       0.00000000       0.00000000       0.00000000       0.00000000       0.40465894
Ga       0.00000000       0.00000000       3.82484848       0.00000000       0.00000000      -0.40465894
2
Properties=species:S:1:pos:R:3:forces:R:3 energy=-1.9388571879212348 pbc="F F F"
Ga       0.00000000       0.00000000       0.00000000       0.00000000       0.00000000       0.37773779
Ga       0.00000000       0.00000000       3.88363636       0.00000000       0.00000000      -0.37773779
2
Properties=species:S:1:pos:R:3:forces:R:3 energy=-1.9174052569181905 pbc="F F F"
Ga       0.00000000       0.00000000       0.00000000       0.00000000       0.00000000       0.35234928
Ga       0.00000000       0.00000000       3.94242424       0.00000000       0.00000000      -0.35234928
2
Properties=species:S:1:pos:R:3:forces:R:3 energy=-1.8973987485759818 pbc="F F F"
Ga       0.00000000       0.00000000       0.00000000       0.00000000       0.00000000       0.32852200
Ga       0.00000000       0.00000000       4.00121212       0.00000000       0.00000000      -0.32852200
2
Properties=species:S:1:pos:R:3:forces:R:3 energy=-1.8787516940062439 pbc="F F F"
Ga       0.00000000       0.00000000       0.00000000       0.00000000       0.00000000       0.30611646
Ga       0.00000000       0.00000000       4.06000000       0.00000000       0.00000000      -0.30611646
2
Properties=species:S:1:pos:R:3:forces:R:3 energy=-1.8613814003282627 pbc="F F F"
Ga       0.00000000       0.00000000       0.00000000       0.00000000       0.00000000       0.28505599
Ga       0.00000000       0.00000000       4.11878788       0.00000000       0.00000000      -0.28505599
2
Properties=species:S:1:pos:R:3:forces:R:3 energy=-1.8452075571832796 pbc="F F F"
Ga       0.00000000       0.00000000       0.00000000       0.00000000       0.00000000       0.26543289
Ga       0.00000000       0.00000000       4.17757576       0.00000000       0.00000000      -0.26543289
2
Properties=species:S:1:pos:R:3:forces:R:3 energy=-1.8301397851154 pbc="F F F"
Ga       0.00000000       0.00000000       0.00000000       0.00000000       0.00000000       0.24745287
Ga       0.00000000       0.00000000       4.23636364       0.00000000       0.00000000      -0.24745287
2
Properties=species:S:1:pos:R:3:forces:R:3 energy=-1.8160771302240384 pbc="F F F"
Ga       0.00000000       0.00000000       0.00000000       0.00000000       0.00000000       0.23131163
Ga       0.00000000       0.00000000       4.29515152       0.00000000       0.00000000      -0.23131163
2
Properties=species:S:1:pos:R:3:forces:R:3 energy=-1.8029056546355475 pbc="F F F"
Ga       0.00000000       0.00000000       0.00000000       0.00000000       0.00000000       0.21709476
Ga       0.00000000       0.00000000       4.35393939       0.00000000       0.00000000      -0.21709476
2
Properties=species:S:1:pos:R:3:forces:R:3 energy=-1.7905159686042988 pbc="F F F"
Ga       0.00000000       0.00000000       0.00000000       0.00000000       0.00000000       0.20472649
Ga       0.00000000       0.00000000       4.41272727       0.00000000       0.00000000      -0.20472649
2
Properties=species:S:1:pos:R:3:forces:R:3 energy=-1.7788032336805033 pbc="F F F"
Ga       0.00000000       0.00000000       0.00000000       0.00000000       0.00000000       0.19397546
Ga       0.00000000       0.00000000       4.47151515       0.00000000       0.00000000      -0.19397546
2
Properties=species:S:1:pos:R:3:forces:R:3 energy=-1.767683680948353 pbc="F F F"
Ga       0.00000000       0.00000000       0.00000000       0.00000000       0.00000000       0.18449298
Ga       0.00000000       0.00000000       4.53030303       0.00000000       0.00000000      -0.18449298
2
Properties=species:S:1:pos:R:3:forces:R:3 energy=-1.757093622505661 pbc="F F F"
Ga       0.00000000       0.00000000       0.00000000       0.00000000       0.00000000       0.17587808
Ga       0.00000000       0.00000000       4.58909091       0.00000000       0.00000000      -0.17587808
2
Properties=species:S:1:pos:R:3:forces:R:3 energy=-1.7469946206448703 pbc="F F F"
Ga       0.00000000       0.00000000       0.00000000       0.00000000       0.00000000       0.16776416
Ga       0.00000000       0.00000000       4.64787879       0.00000000       0.00000000      -0.16776416
2
Properties=species:S:1:pos:R:3:forces:R:3 energy=-1.7373647780713202 pbc="F F F"
Ga       0.00000000       0.00000000       0.00000000       0.00000000       0.00000000       0.15989780
Ga       0.00000000       0.00000000       4.70666667       0.00000000       0.00000000      -0.15989780
2
Properties=species:S:1:pos:R:3:forces:R:3 energy=-1.7281920019944101 pbc="F F F"
Ga       0.00000000       0.00000000       0.00000000       0.00000000       0.00000000       0.15219629
Ga       0.00000000       0.00000000       4.76545455       0.00000000       0.00000000      -0.15219629
2
Properties=species:S:1:pos:R:3:forces:R:3 energy=-1.7194639271908347 pbc="F F F"
Ga       0.00000000       0.00000000       0.00000000       0.00000000       0.00000000       0.14475486
Ga       0.00000000       0.00000000       4.82424242       0.00000000       0.00000000      -0.14475486
2
Properties=species:S:1:pos:R:3:forces:R:3 energy=-1.7111631159547809 pbc="F F F"
Ga       0.00000000       0.00000000       0.00000000       0.00000000       0.00000000       0.13779329
Ga       0.00000000       0.00000000       4.88303030       0.00000000       0.00000000      -0.13779329
2
Properties=species:S:1:pos:R:3:forces:R:3 energy=-1.7032493042492982 pbc="F F F"
Ga       0.00000000       0.00000000       0.00000000       0.00000000       0.00000000       0.13155641
Ga       0.00000000       0.00000000       4.94181818       0.00000000       0.00000000      -0.13155641
2
Properties=species:S:1:pos:R:3:forces:R:3 energy=-1.695677996771558 pbc="F F F"
Ga       0.00000000       0.00000000       0.00000000       0.00000000       0.00000000       0.12619793
Ga       0.00000000       0.00000000       5.00060606       0.00000000       0.00000000      -0.12619793
2
Properties=species:S:1:pos:R:3:forces:R:3 energy=-1.6883942854928196 pbc="F F F"
Ga       0.00000000       0.00000000       0.00000000       0.00000000       0.00000000       0.12167521
Ga       0.00000000       0.00000000       5.05939394       0.00000000       0.00000000      -0.12167521
2
Properties=species:S:1:pos:R:3:forces:R:3 energy=-1.6813609291977856 pbc="F F F"
Ga       0.00000000       0.00000000       0.00000000       0.00000000       0.00000000       0.11770246
Ga       0.00000000       0.00000000       5.11818182       0.00000000       0.00000000      -0.11770246
2
Properties=species:S:1:pos:R:3:forces:R:3 energy=-1.6745545403712496 pbc="F F F"
Ga       0.00000000       0.00000000       0.00000000       0.00000000       0.00000000       0.11376950
Ga       0.00000000       0.00000000       5.17696970       0.00000000       0.00000000      -0.11376950
2
Properties=species:S:1:pos:R:3:forces:R:3 energy=-1.6679961613809298 pbc="F F F"
Ga       0.00000000       0.00000000       0.00000000       0.00000000       0.00000000       0.10924266
Ga       0.00000000       0.00000000       5.23575758       0.00000000       0.00000000      -0.10924266
2
Properties=species:S:1:pos:R:3:forces:R:3 energy=-1.6617345419147989 pbc="F F F"
Ga       0.00000000       0.00000000       0.00000000       0.00000000       0.00000000       0.10349502
Ga       0.00000000       0.00000000       5.29454545       0.00000000       0.00000000      -0.10349502
2
Properties=species:S:1:pos:R:3:forces:R:3 energy=-1.6558595680331574 pbc="F F F"
Ga       0.00000000       0.00000000       0.00000000       0.00000000       0.00000000       0.09606746
Ga       0.00000000       0.00000000       5.35333333       0.00000000       0.00000000      -0.09606746
2
Properties=species:S:1:pos:R:3:forces:R:3 energy=-1.6504769913831598 pbc="F F F"
Ga       0.00000000       0.00000000       0.00000000       0.00000000       0.00000000       0.08678927
Ga       0.00000000       0.00000000       5.41212121       0.00000000       0.00000000      -0.08678927
2
Properties=species:S:1:pos:R:3:forces:R:3 energy=-1.6456893810550628 pbc="F F F"
Ga       0.00000000       0.00000000       0.00000000       0.00000000       0.00000000       0.07583749
Ga       0.00000000       0.00000000       5.47090909       0.00000000       0.00000000      -0.07583749
2
Properties=species:S:1:pos:R:3:forces:R:3 energy=-1.6415823634128146 pbc="F F F"
Ga       0.00000000       0.00000000       0.00000000       0.00000000       0.00000000       0.06373656
Ga       0.00000000       0.00000000       5.52969697       0.00000000       0.00000000      -0.06373656
2
Properties=species:S:1:pos:R:3:forces:R:3 energy=-1.638202708175621 pbc="F F F"
Ga       0.00000000       0.00000000       0.00000000       0.00000000       0.00000000       0.05126355
Ga       0.00000000       0.00000000       5.58848485       0.00000000       0.00000000      -0.05126355
2
Properties=species:S:1:pos:R:3:forces:R:3 energy=-1.6355454799492062 pbc="F F F"
Ga       0.00000000       0.00000000       0.00000000       0.00000000       0.00000000       0.03933001
Ga       0.00000000       0.00000000       5.64727273       0.00000000       0.00000000      -0.03933001
2
Properties=species:S:1:pos:R:3:forces:R:3 energy=-1.6335521696830024 pbc="F F F"
Ga       0.00000000       0.00000000       0.00000000       0.00000000       0.00000000       0.02879487
Ga       0.00000000       0.00000000       5.70606061       0.00000000       0.00000000      -0.02879487
2
Properties=species:S:1:pos:R:3:forces:R:3 energy=-1.6321178884092102 pbc="F F F"
Ga       0.00000000       0.00000000       0.00000000       0.00000000       0.00000000       0.02032867
Ga       0.00000000       0.00000000       5.76484848       0.00000000       0.00000000      -0.02032867
2
Properties=species:S:1:pos:R:3:forces:R:3 energy=-1.6311123750042473 pbc="F F F"
Ga       0.00000000       0.00000000       0.00000000       0.00000000       0.00000000       0.01429003
Ga       0.00000000       0.00000000       5.82363636       0.00000000       0.00000000      -0.01429003
2
Properties=species:S:1:pos:R:3:forces:R:3 energy=-1.6303914402805464 pbc="F F F"
Ga       0.00000000       0.00000000       0.00000000       0.00000000       0.00000000       0.01062659
Ga       0.00000000       0.00000000       5.88242424       0.00000000       0.00000000      -0.01062659
2
Properties=species:S:1:pos:R:3:forces:R:3 energy=-1.629825634236845 pbc="F F F"
Ga       0.00000000       0.00000000       0.00000000       0.00000000       0.00000000       0.00886993
Ga       0.00000000       0.00000000       5.94121212       0.00000000       0.00000000      -0.00886993
2
Properties=species:S:1:pos:R:3:forces:R:3 energy=-1.629326473685798 pbc="F F F"
Ga       0.00000000       0.00000000       0.00000000       0.00000000       0.00000000       0.00820687
Ga       0.00000000       0.00000000       6.00000000       0.00000000       0.00000000      -0.00820687
