2
Properties=species:S:1:pos:R:3:forces:R:3 energy=383482.98156251 pbc="F F F"
Pd       0.00000000       0.00000000       0.00000000       0.00000000       0.00000000 -4063193.50000000
Pd       0.00000000       0.00000000       0.18000000       0.00000000       0.00000000 4063193.50000000
2
Properties=species:S:1:pos:R:3:forces:R:3 energy=182963.55968751005 pbc="F F F"
Pd       0.00000000       0.00000000       0.00000000       0.00000000       0.00000000 -2689027.75000000
Pd       0.00000000       0.00000000       0.23878788       0.00000000       0.00000000 2689027.75000000
2
Properties=species:S:1:pos:R:3:forces:R:3 energy=66670.87218751003 pbc="F F F"
Pd       0.00000000       0.00000000       0.00000000       0.00000000       0.00000000 -1329366.00000000
Pd       0.00000000       0.00000000       0.29757576       0.00000000       0.00000000 1329366.00000000
2
Properties=species:S:1:pos:R:3:forces:R:3 energy=16035.835078138205 pbc="F F F"
Pd       0.00000000       0.00000000       0.00000000       0.00000000       0.00000000 -499551.65625000
Pd       0.00000000       0.00000000       0.35636364       0.00000000       0.00000000  499551.65625000
2
Properties=species:S:1:pos:R:3:forces:R:3 energy=1951.1898144790007 pbc="F F F"
Pd       0.00000000       0.00000000       0.00000000       0.00000000       0.00000000 -101854.06250000
Pd       0.00000000       0.00000000       0.41515152       0.00000000       0.00000000  101854.06250000
2
Properties=species:S:1:pos:R:3:forces:R:3 energy=-859.6137133340236 pbc="F F F"
Pd       0.00000000       0.00000000       0.00000000       0.00000000       0.00000000   -4166.52880859
Pd       0.00000000       0.00000000       0.47393939       0.00000000       0.00000000    4166.52880859
2
Properties=species:S:1:pos:R:3:forces:R:3 energy=-226.71909049961104 pbc="F F F"
Pd       0.00000000       0.00000000       0.00000000       0.00000000       0.00000000   10204.46875000
Pd       0.00000000       0.00000000       0.53272727       0.00000000       0.00000000  -10204.46875000
2
Properties=species:S:1:pos:R:3:forces:R:3 energy=130.8677320703432 pbc="F F F"
Pd       0.00000000       0.00000000       0.00000000       0.00000000       0.00000000    -774.07012939
Pd       0.00000000       0.00000000       0.59151515       0.00000000       0.00000000     774.07012939
2
Properties=species:S:1:pos:R:3:forces:R:3 energy=107.27096855770586 pbc="F F F"
Pd       0.00000000       0.00000000       0.00000000       0.00000000       0.00000000    -326.90481567
Pd       0.00000000       0.00000000       0.65030303       0.00000000       0.00000000     326.90481567
2
Properties=species:S:1:pos:R:3:forces:R:3 energy=90.73621681767148 pbc="F F F"
Pd       0.00000000       0.00000000       0.00000000       0.00000000       0.00000000    -281.37011719
Pd       0.00000000       0.00000000       0.70909091       0.00000000       0.00000000     281.37011719
2
Properties=species:S:1:pos:R:3:forces:R:3 energy=72.8646960623322 pbc="F F F"
Pd       0.00000000       0.00000000       0.00000000       0.00000000       0.00000000    -218.31634521
Pd       0.00000000       0.00000000       0.76787879       0.00000000       0.00000000     218.31634521
2
Properties=species:S:1:pos:R:3:forces:R:3 energy=64.7687186244217 pbc="F F F"
Pd       0.00000000       0.00000000       0.00000000       0.00000000       0.00000000    -124.92829132
Pd       0.00000000       0.00000000       0.82666667       0.00000000       0.00000000     124.92829132
2
Properties=species:S:1:pos:R:3:forces:R:3 energy=62.69692651923071 pbc="F F F"
Pd       0.00000000       0.00000000       0.00000000       0.00000000       0.00000000     103.11103058
Pd       0.00000000       0.00000000       0.88545455       0.00000000       0.00000000    -103.11103058
2
Properties=species:S:1:pos:R:3:forces:R:3 energy=62.25389590511642 pbc="F F F"
Pd       0.00000000       0.00000000       0.00000000       0.00000000       0.00000000    -107.59384918
Pd       0.00000000       0.00000000       0.94424242       0.00000000       0.00000000     107.59384918
2
Properties=species:S:1:pos:R:3:forces:R:3 energy=53.391225969696855 pbc="F F F"
Pd       0.00000000       0.00000000       0.00000000       0.00000000       0.00000000    -186.17404175
Pd       0.00000000       0.00000000       1.00303030       0.00000000       0.00000000     186.17404175
2
Properties=species:S:1:pos:R:3:forces:R:3 energy=42.62815811250408 pbc="F F F"
Pd       0.00000000       0.00000000       0.00000000       0.00000000       0.00000000    -181.95155334
Pd       0.00000000       0.00000000       1.06181818       0.00000000       0.00000000     181.95155334
2
Properties=species:S:1:pos:R:3:forces:R:3 energy=33.04216892370197 pbc="F F F"
Pd       0.00000000       0.00000000       0.00000000       0.00000000       0.00000000    -153.01646423
Pd       0.00000000       0.00000000       1.12060606       0.00000000       0.00000000     153.01646423
2
Properties=species:S:1:pos:R:3:forces:R:3 energy=24.419950186149347 pbc="F F F"
Pd       0.00000000       0.00000000       0.00000000       0.00000000       0.00000000    -147.11141968
Pd       0.00000000       0.00000000       1.17939394       0.00000000       0.00000000     147.11141968
2
Properties=species:S:1:pos:R:3:forces:R:3 energy=17.315684069667938 pbc="F F F"
Pd       0.00000000       0.00000000       0.00000000       0.00000000       0.00000000    -105.52390289
Pd       0.00000000       0.00000000       1.23818182       0.00000000       0.00000000     105.52390289
2
Properties=species:S:1:pos:R:3:forces:R:3 energy=12.03749336753655 pbc="F F F"
Pd       0.00000000       0.00000000       0.00000000       0.00000000       0.00000000     -76.83098602
Pd       0.00000000       0.00000000       1.29696970       0.00000000       0.00000000      76.83098602
2
Properties=species:S:1:pos:R:3:forces:R:3 energy=8.101640308428758 pbc="F F F"
Pd       0.00000000       0.00000000       0.00000000       0.00000000       0.00000000     -58.09455109
Pd       0.00000000       0.00000000       1.35575758       0.00000000       0.00000000      58.09455109
2
Properties=species:S:1:pos:R:3:forces:R:3 energy=5.2002294220135 pbc="F F F"
Pd       0.00000000       0.00000000       0.00000000       0.00000000       0.00000000     -40.86397934
Pd       0.00000000       0.00000000       1.41454545       0.00000000       0.00000000      40.86397934
2
Properties=species:S:1:pos:R:3:forces:R:3 energy=3.181770743894088 pbc="F F F"
Pd       0.00000000       0.00000000       0.00000000       0.00000000       0.00000000     -28.16890526
Pd       0.00000000       0.00000000       1.47333333       0.00000000       0.00000000      28.16890526
2
Properties=species:S:1:pos:R:3:forces:R:3 energy=1.7745646157651405 pbc="F F F"
Pd       0.00000000       0.00000000       0.00000000       0.00000000       0.00000000     -20.49144363
Pd       0.00000000       0.00000000       1.53212121       0.00000000       0.00000000      20.49144363
2
Properties=species:S:1:pos:R:3:forces:R:3 energy=0.7685883013654209 pbc="F F F"
Pd       0.00000000       0.00000000       0.00000000       0.00000000       0.00000000     -14.19717312
Pd       0.00000000       0.00000000       1.59090909       0.00000000       0.00000000      14.19717312
2
Properties=species:S:1:pos:R:3:forces:R:3 energy=0.0206964612242177 pbc="F F F"
Pd       0.00000000       0.00000000       0.00000000       0.00000000       0.00000000     -11.52516460
Pd       0.00000000       0.00000000       1.64969697       0.00000000       0.00000000      11.52516460
2
Properties=species:S:1:pos:R:3:forces:R:3 energy=-0.5970969032926472 pbc="F F F"
Pd       0.00000000       0.00000000       0.00000000       0.00000000       0.00000000      -9.42821121
Pd       0.00000000       0.00000000       1.70848485       0.00000000       0.00000000       9.42821121
2
Properties=species:S:1:pos:R:3:forces:R:3 energy=-1.106157445740234 pbc="F F F"
Pd       0.00000000       0.00000000       0.00000000       0.00000000       0.00000000      -8.33997059
Pd       0.00000000       0.00000000       1.76727273       0.00000000       0.00000000       8.33997059
2
Properties=species:S:1:pos:R:3:forces:R:3 energy=-1.617429308669617 pbc="F F F"
Pd       0.00000000       0.00000000       0.00000000       0.00000000       0.00000000      -9.05474758
Pd       0.00000000       0.00000000       1.82606061       0.00000000       0.00000000       9.05474758
2
Properties=species:S:1:pos:R:3:forces:R:3 energy=-2.1534327089643273 pbc="F F F"
Pd       0.00000000       0.00000000       0.00000000       0.00000000       0.00000000      -9.12192631
Pd       0.00000000       0.00000000       1.88484848       0.00000000       0.00000000       9.12192631
2
Properties=species:S:1:pos:R:3:forces:R:3 energy=-2.6812627307906487 pbc="F F F"
Pd       0.00000000       0.00000000       0.00000000       0.00000000       0.00000000      -8.70998192
Pd       0.00000000       0.00000000       1.94363636       0.00000000       0.00000000       8.70998192
2
Properties=species:S:1:pos:R:3:forces:R:3 energy=-3.1708736459761124 pbc="F F F"
Pd       0.00000000       0.00000000       0.00000000       0.00000000       0.00000000      -7.92770672
Pd       0.00000000       0.00000000       2.00242424       0.00000000       0.00000000       7.92770672
2
Properties=species:S:1:pos:R:3:forces:R:3 energy=-3.608567084182959 pbc="F F F"
Pd       0.00000000       0.00000000       0.00000000       0.00000000       0.00000000      -6.91476870
Pd       0.00000000       0.00000000       2.06121212       0.00000000       0.00000000       6.91476870
2
Properties=species:S:1:pos:R:3:forces:R:3 energy=-3.978752407257577 pbc="F F F"
Pd       0.00000000       0.00000000       0.00000000       0.00000000       0.00000000      -5.63052511
Pd       0.00000000       0.00000000       2.12000000       0.00000000       0.00000000       5.63052511
2
Properties=species:S:1:pos:R:3:forces:R:3 energy=-4.269645217766993 pbc="F F F"
Pd       0.00000000       0.00000000       0.00000000       0.00000000       0.00000000      -4.30860996
Pd       0.00000000       0.00000000       2.17878788       0.00000000       0.00000000       4.30860996
2
Properties=species:S:1:pos:R:3:forces:R:3 energy=-4.488348211359417 pbc="F F F"
Pd       0.00000000       0.00000000       0.00000000       0.00000000       0.00000000      -3.13040066
Pd       0.00000000       0.00000000       2.23757576       0.00000000       0.00000000       3.13040066
2
Properties=species:S:1:pos:R:3:forces:R:3 energy=-4.639414968623694 pbc="F F F"
Pd       0.00000000       0.00000000       0.00000000       0.00000000       0.00000000      -2.03576207
Pd       0.00000000       0.00000000       2.29636364       0.00000000       0.00000000       2.03576207
2
Properties=species:S:1:pos:R:3:forces:R:3 energy=-4.730263864193525 pbc="F F F"
Pd       0.00000000       0.00000000       0.00000000       0.00000000       0.00000000      -1.07580721
Pd       0.00000000       0.00000000       2.35515152       0.00000000       0.00000000       1.07580721
2
Properties=species:S:1:pos:R:3:forces:R:3 energy=-4.769154956476204 pbc="F F F"
Pd       0.00000000       0.00000000       0.00000000       0.00000000       0.00000000      -0.28141522
Pd       0.00000000       0.00000000       2.41393939       0.00000000       0.00000000       0.28141522
2
Properties=species:S:1:pos:R:3:forces:R:3 energy=-4.768287215832358 pbc="F F F"
Pd       0.00000000       0.00000000       0.00000000       0.00000000       0.00000000       0.26519477
Pd       0.00000000       0.00000000       2.47272727       0.00000000       0.00000000      -0.26519477
2
Properties=species:S:1:pos:R:3:forces:R:3 energy=-4.741773821523774 pbc="F F F"
Pd       0.00000000       0.00000000       0.00000000       0.00000000       0.00000000       0.62125552
Pd       0.00000000       0.00000000       2.53151515       0.00000000       0.00000000      -0.62125552
2
Properties=species:S:1:pos:R:3:forces:R:3 energy=-4.696726447907075 pbc="F F F"
Pd       0.00000000       0.00000000       0.00000000       0.00000000       0.00000000       0.89469099
Pd       0.00000000       0.00000000       2.59030303       0.00000000       0.00000000      -0.89469099
2
Properties=species:S:1:pos:R:3:forces:R:3 energy=-4.638716760543755 pbc="F F F"
Pd       0.00000000       0.00000000       0.00000000       0.00000000       0.00000000       1.06246078
Pd       0.00000000       0.00000000       2.64909091       0.00000000       0.00000000      -1.06246078
2
Properties=species:S:1:pos:R:3:forces:R:3 energy=-4.573361666109037 pbc="F F F"
Pd       0.00000000       0.00000000       0.00000000       0.00000000       0.00000000       1.15011585
Pd       0.00000000       0.00000000       2.70787879       0.00000000       0.00000000      -1.15011585
2
Properties=species:S:1:pos:R:3:forces:R:3 energy=-4.50457120537407 pbc="F F F"
Pd       0.00000000       0.00000000       0.00000000       0.00000000       0.00000000       1.18281794
Pd       0.00000000       0.00000000       2.76666667       0.00000000       0.00000000      -1.18281794
2
Properties=species:S:1:pos:R:3:forces:R:3 energy=-4.4349318635435715 pbc="F F F"
Pd       0.00000000       0.00000000       0.00000000       0.00000000       0.00000000       1.18232834
Pd       0.00000000       0.00000000       2.82545455       0.00000000       0.00000000      -1.18232834
2
Properties=species:S:1:pos:R:3:forces:R:3 energy=-4.365998989522173 pbc="F F F"
Pd       0.00000000       0.00000000       0.00000000       0.00000000       0.00000000       1.15886867
Pd       0.00000000       0.00000000       2.88424242       0.00000000       0.00000000      -1.15886867
2
Properties=species:S:1:pos:R:3:forces:R:3 energy=-4.299156806361801 pbc="F F F"
Pd       0.00000000       0.00000000       0.00000000       0.00000000       0.00000000       1.11143899
Pd       0.00000000       0.00000000       2.94303030       0.00000000       0.00000000      -1.11143899
2
Properties=species:S:1:pos:R:3:forces:R:3 energy=-4.235607346508066 pbc="F F F"
Pd       0.00000000       0.00000000       0.00000000       0.00000000       0.00000000       1.04957366
Pd       0.00000000       0.00000000       3.00181818       0.00000000       0.00000000      -1.04957366
2
Properties=species:S:1:pos:R:3:forces:R:3 energy=-4.175733599733434 pbc="F F F"
Pd       0.00000000       0.00000000       0.00000000       0.00000000       0.00000000       0.98828942
Pd       0.00000000       0.00000000       3.06060606       0.00000000       0.00000000      -0.98828942
2
Properties=species:S:1:pos:R:3:forces:R:3 energy=-4.119293389142937 pbc="F F F"
Pd       0.00000000       0.00000000       0.00000000       0.00000000       0.00000000       0.93273652
Pd       0.00000000       0.00000000       3.11939394       0.00000000       0.00000000      -0.93273652
2
Properties=species:S:1:pos:R:3:forces:R:3 energy=-4.0659668190157285 pbc="F F F"
Pd       0.00000000       0.00000000       0.00000000       0.00000000       0.00000000       0.88228852
Pd       0.00000000       0.00000000       3.17818182       0.00000000       0.00000000      -0.88228852
2
Properties=species:S:1:pos:R:3:forces:R:3 energy=-4.015458456701712 pbc="F F F"
Pd       0.00000000       0.00000000       0.00000000       0.00000000       0.00000000       0.83675760
Pd       0.00000000       0.00000000       3.23696970       0.00000000       0.00000000      -0.83675760
2
Properties=species:S:1:pos:R:3:forces:R:3 energy=-3.9675160336489914 pbc="F F F"
Pd       0.00000000       0.00000000       0.00000000       0.00000000       0.00000000       0.79467249
Pd       0.00000000       0.00000000       3.29575758       0.00000000       0.00000000      -0.79467249
2
Properties=species:S:1:pos:R:3:forces:R:3 energy=-3.9220057776753903 pbc="F F F"
Pd       0.00000000       0.00000000       0.00000000       0.00000000       0.00000000       0.75355238
Pd       0.00000000       0.00000000       3.35454545       0.00000000       0.00000000      -0.75355238
2
Properties=species:S:1:pos:R:3:forces:R:3 energy=-3.8789363752036006 pbc="F F F"
Pd       0.00000000       0.00000000       0.00000000       0.00000000       0.00000000       0.71144044
Pd       0.00000000       0.00000000       3.41333333       0.00000000       0.00000000      -0.71144044
2
Properties=species:S:1:pos:R:3:forces:R:3 energy=-3.838391406104538 pbc="F F F"
Pd       0.00000000       0.00000000       0.00000000       0.00000000       0.00000000       0.66768199
Pd       0.00000000       0.00000000       3.47212121       0.00000000       0.00000000      -0.66768199
2
Properties=species:S:1:pos:R:3:forces:R:3 energy=-3.8004545499555906 pbc="F F F"
Pd       0.00000000       0.00000000       0.00000000       0.00000000       0.00000000       0.62282962
Pd       0.00000000       0.00000000       3.53090909       0.00000000       0.00000000      -0.62282962
2
Properties=species:S:1:pos:R:3:forces:R:3 energy=-3.7651668861082874 pbc="F F F"
Pd       0.00000000       0.00000000       0.00000000       0.00000000       0.00000000       0.57765800
Pd       0.00000000       0.00000000       3.58969697       0.00000000       0.00000000      -0.57765800
2
Properties=species:S:1:pos:R:3:forces:R:3 energy=-3.7325362847116423 pbc="F F F"
Pd       0.00000000       0.00000000       0.00000000       0.00000000       0.00000000       0.53251362
Pd       0.00000000       0.00000000       3.64848485       0.00000000       0.00000000      -0.53251362
2
Properties=species:S:1:pos:R:3:forces:R:3 energy=-3.7025530266329434 pbc="F F F"
Pd       0.00000000       0.00000000       0.00000000       0.00000000       0.00000000       0.48756140
Pd       0.00000000       0.00000000       3.70727273       0.00000000       0.00000000      -0.48756140
2
Properties=species:S:1:pos:R:3:forces:R:3 energy=-3.6751977576339776 pbc="F F F"
Pd       0.00000000       0.00000000       0.00000000       0.00000000       0.00000000       0.44323403
Pd       0.00000000       0.00000000       3.76606061       0.00000000       0.00000000      -0.44323403
2
Properties=species:S:1:pos:R:3:forces:R:3 energy=-3.6504139141792313 pbc="F F F"
Pd       0.00000000       0.00000000       0.00000000       0.00000000       0.00000000       0.40029287
Pd       0.00000000       0.00000000       3.82484848       0.00000000       0.00000000      -0.40029287
2
Properties=species:S:1:pos:R:3:forces:R:3 energy=-3.628090207173924 pbc="F F F"
Pd       0.00000000       0.00000000       0.00000000       0.00000000       0.00000000       0.35955742
Pd       0.00000000       0.00000000       3.88363636       0.00000000       0.00000000      -0.35955742
2
Properties=species:S:1:pos:R:3:forces:R:3 energy=-3.6080809675707006 pbc="F F F"
Pd       0.00000000       0.00000000       0.00000000       0.00000000       0.00000000       0.32163697
Pd       0.00000000       0.00000000       3.94242424       0.00000000       0.00000000      -0.32163697
2
Properties=species:S:1:pos:R:3:forces:R:3 energy=-3.590210456910991 pbc="F F F"
Pd       0.00000000       0.00000000       0.00000000       0.00000000       0.00000000       0.28683794
Pd       0.00000000       0.00000000       4.00121212       0.00000000       0.00000000      -0.28683794
2
Properties=species:S:1:pos:R:3:forces:R:3 energy=-3.574294833512509 pbc="F F F"
Pd       0.00000000       0.00000000       0.00000000       0.00000000       0.00000000       0.25525394
Pd       0.00000000       0.00000000       4.06000000       0.00000000       0.00000000      -0.25525394
2
Properties=species:S:1:pos:R:3:forces:R:3 energy=-3.560138491491282 pbc="F F F"
Pd       0.00000000       0.00000000       0.00000000       0.00000000       0.00000000       0.22689216
Pd       0.00000000       0.00000000       4.11878788       0.00000000       0.00000000      -0.22689216
2
Properties=species:S:1:pos:R:3:forces:R:3 energy=-3.547554170285677 pbc="F F F"
Pd       0.00000000       0.00000000       0.00000000       0.00000000       0.00000000       0.20171738
Pd       0.00000000       0.00000000       4.17757576       0.00000000       0.00000000      -0.20171738
2
Properties=species:S:1:pos:R:3:forces:R:3 energy=-3.5363603138770108 pbc="F F F"
Pd       0.00000000       0.00000000       0.00000000       0.00000000       0.00000000       0.17962760
Pd       0.00000000       0.00000000       4.23636364       0.00000000       0.00000000      -0.17962760
2
Properties=species:S:1:pos:R:3:forces:R:3 energy=-3.52637900188199 pbc="F F F"
Pd       0.00000000       0.00000000       0.00000000       0.00000000       0.00000000       0.16041943
Pd       0.00000000       0.00000000       4.29515152       0.00000000       0.00000000      -0.16041943
2
Properties=species:S:1:pos:R:3:forces:R:3 energy=-3.5174472732672664 pbc="F F F"
Pd       0.00000000       0.00000000       0.00000000       0.00000000       0.00000000       0.14379336
Pd       0.00000000       0.00000000       4.35393939       0.00000000       0.00000000      -0.14379336
2
Properties=species:S:1:pos:R:3:forces:R:3 energy=-3.5094278116679027 pbc="F F F"
Pd       0.00000000       0.00000000       0.00000000       0.00000000       0.00000000       0.12939313
Pd       0.00000000       0.00000000       4.41272727       0.00000000       0.00000000      -0.12939313
2
Properties=species:S:1:pos:R:3:forces:R:3 energy=-3.502197930615404 pbc="F F F"
Pd       0.00000000       0.00000000       0.00000000       0.00000000       0.00000000       0.11685683
Pd       0.00000000       0.00000000       4.47151515       0.00000000       0.00000000      -0.11685683
2
Properties=species:S:1:pos:R:3:forces:R:3 energy=-3.495658828344709 pbc="F F F"
Pd       0.00000000       0.00000000       0.00000000       0.00000000       0.00000000       0.10585424
Pd       0.00000000       0.00000000       4.53030303       0.00000000       0.00000000      -0.10585424
2
Properties=species:S:1:pos:R:3:forces:R:3 energy=-3.489727869700639 pbc="F F F"
Pd       0.00000000       0.00000000       0.00000000       0.00000000       0.00000000       0.09610637
Pd       0.00000000       0.00000000       4.58909091       0.00000000       0.00000000      -0.09610637
2
Properties=species:S:1:pos:R:3:forces:R:3 energy=-3.4843380522799405 pbc="F F F"
Pd       0.00000000       0.00000000       0.00000000       0.00000000       0.00000000       0.08739622
Pd       0.00000000       0.00000000       4.64787879       0.00000000       0.00000000      -0.08739622
2
Properties=species:S:1:pos:R:3:forces:R:3 energy=-3.4794334804780247 pbc="F F F"
Pd       0.00000000       0.00000000       0.00000000       0.00000000       0.00000000       0.07956472
Pd       0.00000000       0.00000000       4.70666667       0.00000000       0.00000000      -0.07956472
2
Properties=species:S:1:pos:R:3:forces:R:3 energy=-3.4749679951661103 pbc="F F F"
Pd       0.00000000       0.00000000       0.00000000       0.00000000       0.00000000       0.07250953
Pd       0.00000000       0.00000000       4.76545455       0.00000000       0.00000000      -0.07250953
2
Properties=species:S:1:pos:R:3:forces:R:3 energy=-3.4708960314218453 pbc="F F F"
Pd       0.00000000       0.00000000       0.00000000       0.00000000       0.00000000       0.06617187
Pd       0.00000000       0.00000000       4.82424242       0.00000000       0.00000000      -0.06617187
2
Properties=species:S:1:pos:R:3:forces:R:3 energy=-3.467174055376422 pbc="F F F"
Pd       0.00000000       0.00000000       0.00000000       0.00000000       0.00000000       0.06052698
Pd       0.00000000       0.00000000       4.88303030       0.00000000       0.00000000      -0.06052698
2
Properties=species:S:1:pos:R:3:forces:R:3 energy=-3.4637652882366536 pbc="F F F"
Pd       0.00000000       0.00000000       0.00000000       0.00000000       0.00000000       0.05555931
Pd       0.00000000       0.00000000       4.94181818       0.00000000       0.00000000      -0.05555931
2
Properties=species:S:1:pos:R:3:forces:R:3 energy=-3.4606283413887264 pbc="F F F"
Pd       0.00000000       0.00000000       0.00000000       0.00000000       0.00000000       0.05124627
Pd       0.00000000       0.00000000       5.00060606       0.00000000       0.00000000      -0.05124627
2
Properties=species:S:1:pos:R:3:forces:R:3 energy=-3.4577282660162174 pbc="F F F"
Pd       0.00000000       0.00000000       0.00000000       0.00000000       0.00000000       0.04753505
Pd       0.00000000       0.00000000       5.05939394       0.00000000       0.00000000      -0.04753505
2
Properties=species:S:1:pos:R:3:forces:R:3 energy=-3.4550298552051237 pbc="F F F"
Pd       0.00000000       0.00000000       0.00000000       0.00000000       0.00000000       0.04433158
Pd       0.00000000       0.00000000       5.11818182       0.00000000       0.00000000      -0.04433158
2
Properties=species:S:1:pos:R:3:forces:R:3 energy=-3.452508245235117 pbc="F F F"
Pd       0.00000000       0.00000000       0.00000000       0.00000000       0.00000000       0.04150389
Pd       0.00000000       0.00000000       5.17696970       0.00000000       0.00000000      -0.04150389
2
Properties=species:S:1:pos:R:3:forces:R:3 energy=-3.4501456759219256 pbc="F F F"
Pd       0.00000000       0.00000000       0.00000000       0.00000000       0.00000000       0.03889921
Pd       0.00000000       0.00000000       5.23575758       0.00000000       0.00000000      -0.03889921
2
Properties=species:S:1:pos:R:3:forces:R:3 energy=-3.4479338684674765 pbc="F F F"
Pd       0.00000000       0.00000000       0.00000000       0.00000000       0.00000000       0.03636645
Pd       0.00000000       0.00000000       5.29454545       0.00000000       0.00000000      -0.03636645
2
Properties=species:S:1:pos:R:3:forces:R:3 energy=-3.4458717996652166 pbc="F F F"
Pd       0.00000000       0.00000000       0.00000000       0.00000000       0.00000000       0.03378342
Pd       0.00000000       0.00000000       5.35333333       0.00000000       0.00000000      -0.03378342
2
Properties=species:S:1:pos:R:3:forces:R:3 energy=-3.443963347808629 pbc="F F F"
Pd       0.00000000       0.00000000       0.00000000       0.00000000       0.00000000       0.03107901
Pd       0.00000000       0.00000000       5.41212121       0.00000000       0.00000000      -0.03107901
2
Properties=species:S:1:pos:R:3:forces:R:3 energy=-3.4422197133069807 pbc="F F F"
Pd       0.00000000       0.00000000       0.00000000       0.00000000       0.00000000       0.02824171
Pd       0.00000000       0.00000000       5.47090909       0.00000000       0.00000000      -0.02824171
2
Properties=species:S:1:pos:R:3:forces:R:3 energy=-3.4406437780937638 pbc="F F F"
Pd       0.00000000       0.00000000       0.00000000       0.00000000       0.00000000       0.02531827
Pd       0.00000000       0.00000000       5.52969697       0.00000000       0.00000000      -0.02531827
2
Properties=species:S:1:pos:R:3:forces:R:3 energy=-3.4392425730848983 pbc="F F F"
Pd       0.00000000       0.00000000       0.00000000       0.00000000       0.00000000       0.02240250
Pd       0.00000000       0.00000000       5.58848485       0.00000000       0.00000000      -0.02240250
2
Properties=species:S:1:pos:R:3:forces:R:3 energy=-3.4380077294391573 pbc="F F F"
Pd       0.00000000       0.00000000       0.00000000       0.00000000       0.00000000       0.01961842
Pd       0.00000000       0.00000000       5.64727273       0.00000000       0.00000000      -0.01961842
2
Properties=species:S:1:pos:R:3:forces:R:3 energy=-3.4369303111952223 pbc="F F F"
Pd       0.00000000       0.00000000       0.00000000       0.00000000       0.00000000       0.01709393
Pd       0.00000000       0.00000000       5.70606061       0.00000000       0.00000000      -0.01709393
2
Properties=species:S:1:pos:R:3:forces:R:3 energy=-3.435990876135185 pbc="F F F"
Pd       0.00000000       0.00000000       0.00000000       0.00000000       0.00000000       0.01493871
Pd       0.00000000       0.00000000       5.76484848       0.00000000       0.00000000      -0.01493871
2
Properties=species:S:1:pos:R:3:forces:R:3 energy=-3.4351651899108893 pbc="F F F"
Pd       0.00000000       0.00000000       0.00000000       0.00000000       0.00000000       0.01322074
Pd       0.00000000       0.00000000       5.82363636       0.00000000       0.00000000      -0.01322074
2
Properties=species:S:1:pos:R:3:forces:R:3 energy=-3.4344285413370192 pbc="F F F"
Pd       0.00000000       0.00000000       0.00000000       0.00000000       0.00000000       0.01194265
Pd       0.00000000       0.00000000       5.88242424       0.00000000       0.00000000      -0.01194265
2
Properties=species:S:1:pos:R:3:forces:R:3 energy=-3.433752929677441 pbc="F F F"
Pd       0.00000000       0.00000000       0.00000000       0.00000000       0.00000000       0.01103182
Pd       0.00000000       0.00000000       5.94121212       0.00000000       0.00000000      -0.01103182
2
Properties=species:S:1:pos:R:3:forces:R:3 energy=-3.4331251741617894 pbc="F F F"
Pd       0.00000000       0.00000000       0.00000000       0.00000000       0.00000000       0.01034850
Pd       0.00000000       0.00000000       6.00000000       0.00000000       0.00000000      -0.01034850
