2
Properties=species:S:1:pos:R:3:forces:R:3 energy=-7170418.559967197 pbc="F F F"
Pu       0.00000000       0.00000000       0.00000000       0.00000000       0.00000000 70024896.00000000
Pu       0.00000000       0.00000000       0.18000000       0.00000000       0.00000000 -70024896.00000000
2
Properties=species:S:1:pos:R:3:forces:R:3 energy=-3636732.5599671965 pbc="F F F"
Pu       0.00000000       0.00000000       0.00000000       0.00000000       0.00000000 48732320.00000000
Pu       0.00000000       0.00000000       0.23878788       0.00000000       0.00000000 -48732320.00000000
2
Properties=species:S:1:pos:R:3:forces:R:3 energy=-1468762.6849671963 pbc="F F F"
Pu       0.00000000       0.00000000       0.00000000       0.00000000       0.00000000 25761042.00000000
Pu       0.00000000       0.00000000       0.29757576       0.00000000       0.00000000 -25761042.00000000
2
Properties=species:S:1:pos:R:3:forces:R:3 energy=-458205.5287171964 pbc="F F F"
Pu       0.00000000       0.00000000       0.00000000       0.00000000       0.00000000 10117370.00000000
Pu       0.00000000       0.00000000       0.35636364       0.00000000       0.00000000 -10117370.00000000
2
Properties=species:S:1:pos:R:3:forces:R:3 energy=-108204.41934219637 pbc="F F F"
Pu       0.00000000       0.00000000       0.00000000       0.00000000       0.00000000 2914108.00000000
Pu       0.00000000       0.00000000       0.41515152       0.00000000       0.00000000 -2914108.00000000
2
Properties=species:S:1:pos:R:3:forces:R:3 energy=-18857.98965469004 pbc="F F F"
Pu       0.00000000       0.00000000       0.00000000       0.00000000       0.00000000  628384.62500000
Pu       0.00000000       0.00000000       0.47393939       0.00000000       0.00000000 -628384.62500000
2
Properties=species:S:1:pos:R:3:forces:R:3 energy=-2134.309234761832 pbc="F F F"
Pu       0.00000000       0.00000000       0.00000000       0.00000000       0.00000000   86027.15625000
Pu       0.00000000       0.00000000       0.53272727       0.00000000       0.00000000  -86027.15625000
2
Properties=species:S:1:pos:R:3:forces:R:3 energy=-214.43693555482508 pbc="F F F"
Pu       0.00000000       0.00000000       0.00000000       0.00000000       0.00000000    7751.21728516
Pu       0.00000000       0.00000000       0.59151515       0.00000000       0.00000000   -7751.21728516
2
Properties=species:S:1:pos:R:3:forces:R:3 energy=-38.889316669851354 pbc="F F F"
Pu       0.00000000       0.00000000       0.00000000       0.00000000       0.00000000     732.08337402
Pu       0.00000000       0.00000000       0.65030303       0.00000000       0.00000000    -732.08337402
2
Properties=species:S:1:pos:R:3:forces:R:3 energy=-24.200817187489537 pbc="F F F"
Pu       0.00000000       0.00000000       0.00000000       0.00000000       0.00000000      52.95403290
Pu       0.00000000       0.00000000       0.70909091       0.00000000       0.00000000     -52.95403290
2
Properties=species:S:1:pos:R:3:forces:R:3 energy=-23.552974729577823 pbc="F F F"
Pu       0.00000000       0.00000000       0.00000000       0.00000000       0.00000000     -23.73066139
Pu       0.00000000       0.00000000       0.76787879       0.00000000       0.00000000      23.73066139
2
Properties=species:S:1:pos:R:3:forces:R:3 energy=-25.32611842819628 pbc="F F F"
Pu       0.00000000       0.00000000       0.00000000       0.00000000       0.00000000     -35.40881348
Pu       0.00000000       0.00000000       0.82666667       0.00000000       0.00000000      35.40881348
2
Properties=species:S:1:pos:R:3:forces:R:3 energy=-27.533616877241013 pbc="F F F"
Pu       0.00000000       0.00000000       0.00000000       0.00000000       0.00000000     -30.77653694
Pu       0.00000000       0.00000000       0.88545455       0.00000000       0.00000000      30.77653694
2
Properties=species:S:1:pos:R:3:forces:R:3 energy=-28.732503602859083 pbc="F F F"
Pu       0.00000000       0.00000000       0.00000000       0.00000000       0.00000000      -9.71983528
Pu       0.00000000       0.00000000       0.94424242       0.00000000       0.00000000       9.71983528
2
Properties=species:S:1:pos:R:3:forces:R:3 energy=-28.59060239021876 pbc="F F F"
Pu       0.00000000       0.00000000       0.00000000       0.00000000       0.00000000      11.57462311
Pu       0.00000000       0.00000000       1.00303030       0.00000000       0.00000000     -11.57462311
2
Properties=species:S:1:pos:R:3:forces:R:3 energy=-27.641577923682245 pbc="F F F"
Pu       0.00000000       0.00000000       0.00000000       0.00000000       0.00000000      19.29728127
Pu       0.00000000       0.00000000       1.06181818       0.00000000       0.00000000     -19.29728127
2
Properties=species:S:1:pos:R:3:forces:R:3 energy=-26.599192467567804 pbc="F F F"
Pu       0.00000000       0.00000000       0.00000000       0.00000000       0.00000000      11.25524426
Pu       0.00000000       0.00000000       1.12060606       0.00000000       0.00000000     -11.25524426
2
Properties=species:S:1:pos:R:3:forces:R:3 energy=-26.229547833691065 pbc="F F F"
Pu       0.00000000       0.00000000       0.00000000       0.00000000       0.00000000       3.28913236
Pu       0.00000000       0.00000000       1.17939394       0.00000000       0.00000000      -3.28913236
2
Properties=species:S:1:pos:R:3:forces:R:3 energy=-25.86606762388269 pbc="F F F"
Pu       0.00000000       0.00000000       0.00000000       0.00000000       0.00000000       5.86165905
Pu       0.00000000       0.00000000       1.23818182       0.00000000       0.00000000      -5.86165905
2
Properties=species:S:1:pos:R:3:forces:R:3 energy=-25.734969063690627 pbc="F F F"
Pu       0.00000000       0.00000000       0.00000000       0.00000000       0.00000000       1.10953736
Pu       0.00000000       0.00000000       1.29696970       0.00000000       0.00000000      -1.10953736
2
Properties=species:S:1:pos:R:3:forces:R:3 energy=-25.705520532459413 pbc="F F F"
Pu       0.00000000       0.00000000       0.00000000       0.00000000       0.00000000       0.04930660
Pu       0.00000000       0.00000000       1.35575758       0.00000000       0.00000000      -0.04930660
2
Properties=species:S:1:pos:R:3:forces:R:3 energy=-25.63085424643563 pbc="F F F"
Pu       0.00000000       0.00000000       0.00000000       0.00000000       0.00000000       2.99345899
Pu       0.00000000       0.00000000       1.41454545       0.00000000       0.00000000      -2.99345899
2
Properties=species:S:1:pos:R:3:forces:R:3 energy=-25.42516426198979 pbc="F F F"
Pu       0.00000000       0.00000000       0.00000000       0.00000000       0.00000000       3.06194592
Pu       0.00000000       0.00000000       1.47333333       0.00000000       0.00000000      -3.06194592
2
Properties=species:S:1:pos:R:3:forces:R:3 energy=-25.2697630768006 pbc="F F F"
Pu       0.00000000       0.00000000       0.00000000       0.00000000       0.00000000       3.00229669
Pu       0.00000000       0.00000000       1.53212121       0.00000000       0.00000000      -3.00229669
2
Properties=species:S:1:pos:R:3:forces:R:3 energy=-25.05110617607158 pbc="F F F"
Pu       0.00000000       0.00000000       0.00000000       0.00000000       0.00000000       4.48600817
Pu       0.00000000       0.00000000       1.59090909       0.00000000       0.00000000      -4.48600817
2
Properties=species:S:1:pos:R:3:forces:R:3 energy=-24.72674542094483 pbc="F F F"
Pu       0.00000000       0.00000000       0.00000000       0.00000000       0.00000000       6.29311466
Pu       0.00000000       0.00000000       1.64969697       0.00000000       0.00000000      -6.29311466
2
Properties=species:S:1:pos:R:3:forces:R:3 energy=-24.33698303101087 pbc="F F F"
Pu       0.00000000       0.00000000       0.00000000       0.00000000       0.00000000       6.72952747
Pu       0.00000000       0.00000000       1.70848485       0.00000000       0.00000000      -6.72952747
2
Properties=species:S:1:pos:R:3:forces:R:3 energy=-23.96761906946219 pbc="F F F"
Pu       0.00000000       0.00000000       0.00000000       0.00000000       0.00000000       5.64647818
Pu       0.00000000       0.00000000       1.76727273       0.00000000       0.00000000      -5.64647818
2
Properties=species:S:1:pos:R:3:forces:R:3 energy=-23.66461861695934 pbc="F F F"
Pu       0.00000000       0.00000000       0.00000000       0.00000000       0.00000000       4.81679535
Pu       0.00000000       0.00000000       1.82606061       0.00000000       0.00000000      -4.81679535
2
Properties=species:S:1:pos:R:3:forces:R:3 energy=-23.401484678589338 pbc="F F F"
Pu       0.00000000       0.00000000       0.00000000       0.00000000       0.00000000       4.16722679
Pu       0.00000000       0.00000000       1.88484848       0.00000000       0.00000000      -4.16722679
2
Properties=species:S:1:pos:R:3:forces:R:3 energy=-23.176326932472886 pbc="F F F"
Pu       0.00000000       0.00000000       0.00000000       0.00000000       0.00000000       3.52163935
Pu       0.00000000       0.00000000       1.94363636       0.00000000       0.00000000      -3.52163935
2
Properties=species:S:1:pos:R:3:forces:R:3 energy=-22.99563211925472 pbc="F F F"
Pu       0.00000000       0.00000000       0.00000000       0.00000000       0.00000000       2.43470740
Pu       0.00000000       0.00000000       2.00242424       0.00000000       0.00000000      -2.43470740
2
Properties=species:S:1:pos:R:3:forces:R:3 energy=-22.908964467458578 pbc="F F F"
Pu       0.00000000       0.00000000       0.00000000       0.00000000       0.00000000       0.52862906
Pu       0.00000000       0.00000000       2.06121212       0.00000000       0.00000000      -0.52862906
2
Properties=species:S:1:pos:R:3:forces:R:3 energy=-22.913283435280558 pbc="F F F"
Pu       0.00000000       0.00000000       0.00000000       0.00000000       0.00000000      -0.48677772
Pu       0.00000000       0.00000000       2.12000000       0.00000000       0.00000000       0.48677772
2
Properties=species:S:1:pos:R:3:forces:R:3 energy=-22.95808611257252 pbc="F F F"
Pu       0.00000000       0.00000000       0.00000000       0.00000000       0.00000000      -1.06164813
Pu       0.00000000       0.00000000       2.17878788       0.00000000       0.00000000       1.06164813
2
Properties=species:S:1:pos:R:3:forces:R:3 energy=-23.037142895959086 pbc="F F F"
Pu       0.00000000       0.00000000       0.00000000       0.00000000       0.00000000      -1.56910503
Pu       0.00000000       0.00000000       2.23757576       0.00000000       0.00000000       1.56910503
2
Properties=species:S:1:pos:R:3:forces:R:3 energy=-23.136316327304517 pbc="F F F"
Pu       0.00000000       0.00000000       0.00000000       0.00000000       0.00000000      -1.75763428
Pu       0.00000000       0.00000000       2.29636364       0.00000000       0.00000000       1.75763428
2
Properties=species:S:1:pos:R:3:forces:R:3 energy=-23.23773828225325 pbc="F F F"
Pu       0.00000000       0.00000000       0.00000000       0.00000000       0.00000000      -1.65743482
Pu       0.00000000       0.00000000       2.35515152       0.00000000       0.00000000       1.65743482
2
Properties=species:S:1:pos:R:3:forces:R:3 energy=-23.33079235694474 pbc="F F F"
Pu       0.00000000       0.00000000       0.00000000       0.00000000       0.00000000      -1.52275503
Pu       0.00000000       0.00000000       2.41393939       0.00000000       0.00000000       1.52275503
2
Properties=species:S:1:pos:R:3:forces:R:3 energy=-23.418908192303984 pbc="F F F"
Pu       0.00000000       0.00000000       0.00000000       0.00000000       0.00000000      -1.49058127
Pu       0.00000000       0.00000000       2.47272727       0.00000000       0.00000000       1.49058127
2
Properties=species:S:1:pos:R:3:forces:R:3 energy=-23.50596745821066 pbc="F F F"
Pu       0.00000000       0.00000000       0.00000000       0.00000000       0.00000000      -1.45796835
Pu       0.00000000       0.00000000       2.53151515       0.00000000       0.00000000       1.45796835
2
Properties=species:S:1:pos:R:3:forces:R:3 energy=-23.589691880415995 pbc="F F F"
Pu       0.00000000       0.00000000       0.00000000       0.00000000       0.00000000      -1.39776003
Pu       0.00000000       0.00000000       2.59030303       0.00000000       0.00000000       1.39776003
2
Properties=species:S:1:pos:R:3:forces:R:3 energy=-23.67177851737453 pbc="F F F"
Pu       0.00000000       0.00000000       0.00000000       0.00000000       0.00000000      -1.40531385
Pu       0.00000000       0.00000000       2.64909091       0.00000000       0.00000000       1.40531385
2
Properties=species:S:1:pos:R:3:forces:R:3 energy=-23.754919258580603 pbc="F F F"
Pu       0.00000000       0.00000000       0.00000000       0.00000000       0.00000000      -1.41081595
Pu       0.00000000       0.00000000       2.70787879       0.00000000       0.00000000       1.41081595
2
Properties=species:S:1:pos:R:3:forces:R:3 energy=-23.835477055649108 pbc="F F F"
Pu       0.00000000       0.00000000       0.00000000       0.00000000       0.00000000      -1.31203556
Pu       0.00000000       0.00000000       2.76666667       0.00000000       0.00000000       1.31203556
2
Properties=species:S:1:pos:R:3:forces:R:3 energy=-23.907913315651683 pbc="F F F"
Pu       0.00000000       0.00000000       0.00000000       0.00000000       0.00000000      -1.14886546
Pu       0.00000000       0.00000000       2.82545455       0.00000000       0.00000000       1.14886546
2
Properties=species:S:1:pos:R:3:forces:R:3 energy=-23.970652231229987 pbc="F F F"
Pu       0.00000000       0.00000000       0.00000000       0.00000000       0.00000000      -0.98833990
Pu       0.00000000       0.00000000       2.88424242       0.00000000       0.00000000       0.98833990
2
Properties=species:S:1:pos:R:3:forces:R:3 energy=-24.024429992368873 pbc="F F F"
Pu       0.00000000       0.00000000       0.00000000       0.00000000       0.00000000      -0.84283555
Pu       0.00000000       0.00000000       2.94303030       0.00000000       0.00000000       0.84283555
2
Properties=species:S:1:pos:R:3:forces:R:3 energy=-24.069803465644398 pbc="F F F"
Pu       0.00000000       0.00000000       0.00000000       0.00000000       0.00000000      -0.70032674
Pu       0.00000000       0.00000000       3.00181818       0.00000000       0.00000000       0.70032674
2
Properties=species:S:1:pos:R:3:forces:R:3 energy=-24.10668112552461 pbc="F F F"
Pu       0.00000000       0.00000000       0.00000000       0.00000000       0.00000000      -0.55389667
Pu       0.00000000       0.00000000       3.06060606       0.00000000       0.00000000       0.55389667
2
Properties=species:S:1:pos:R:3:forces:R:3 energy=-24.135012398861836 pbc="F F F"
Pu       0.00000000       0.00000000       0.00000000       0.00000000       0.00000000      -0.41181090
Pu       0.00000000       0.00000000       3.11939394       0.00000000       0.00000000       0.41181090
2
Properties=species:S:1:pos:R:3:forces:R:3 energy=-24.155409117782796 pbc="F F F"
Pu       0.00000000       0.00000000       0.00000000       0.00000000       0.00000000      -0.28525287
Pu       0.00000000       0.00000000       3.17818182       0.00000000       0.00000000       0.28525287
2
Properties=species:S:1:pos:R:3:forces:R:3 energy=-24.16895577888206 pbc="F F F"
Pu       0.00000000       0.00000000       0.00000000       0.00000000       0.00000000      -0.17924012
Pu       0.00000000       0.00000000       3.23696970       0.00000000       0.00000000       0.17924012
2
Properties=species:S:1:pos:R:3:forces:R:3 energy=-24.17693075258037 pbc="F F F"
Pu       0.00000000       0.00000000       0.00000000       0.00000000       0.00000000      -0.09600994
Pu       0.00000000       0.00000000       3.29575758       0.00000000       0.00000000       0.09600994
2
Properties=species:S:1:pos:R:3:forces:R:3 energy=-24.18072652198336 pbc="F F F"
Pu       0.00000000       0.00000000       0.00000000       0.00000000       0.00000000      -0.03728985
Pu       0.00000000       0.00000000       3.35454545       0.00000000       0.00000000       0.03728985
2
Properties=species:S:1:pos:R:3:forces:R:3 energy=-24.181796485876433 pbc="F F F"
Pu       0.00000000       0.00000000       0.00000000       0.00000000       0.00000000      -0.00289832
Pu       0.00000000       0.00000000       3.41333333       0.00000000       0.00000000       0.00289832
2
Properties=species:S:1:pos:R:3:forces:R:3 energy=-24.181446812232142 pbc="F F F"
Pu       0.00000000       0.00000000       0.00000000       0.00000000       0.00000000       0.01229759
Pu       0.00000000       0.00000000       3.47212121       0.00000000       0.00000000      -0.01229759
2
Properties=species:S:1:pos:R:3:forces:R:3 energy=-24.180531098399943 pbc="F F F"
Pu       0.00000000       0.00000000       0.00000000       0.00000000       0.00000000       0.01814886
Pu       0.00000000       0.00000000       3.53090909       0.00000000       0.00000000      -0.01814886
2
Properties=species:S:1:pos:R:3:forces:R:3 energy=-24.17928932146908 pbc="F F F"
Pu       0.00000000       0.00000000       0.00000000       0.00000000       0.00000000       0.02500228
Pu       0.00000000       0.00000000       3.58969697       0.00000000       0.00000000      -0.02500228
2
Properties=species:S:1:pos:R:3:forces:R:3 energy=-24.177415857776165 pbc="F F F"
Pu       0.00000000       0.00000000       0.00000000       0.00000000       0.00000000       0.04077442
Pu       0.00000000       0.00000000       3.64848485       0.00000000       0.00000000      -0.04077442
2
Properties=species:S:1:pos:R:3:forces:R:3 energy=-24.174232291208785 pbc="F F F"
Pu       0.00000000       0.00000000       0.00000000       0.00000000       0.00000000       0.06984743
Pu       0.00000000       0.00000000       3.70727273       0.00000000       0.00000000      -0.06984743
2
Properties=species:S:1:pos:R:3:forces:R:3 energy=-24.168968719184296 pbc="F F F"
Pu       0.00000000       0.00000000       0.00000000       0.00000000       0.00000000       0.11056530
Pu       0.00000000       0.00000000       3.76606061       0.00000000       0.00000000      -0.11056530
2
Properties=species:S:1:pos:R:3:forces:R:3 energy=-24.161166128721312 pbc="F F F"
Pu       0.00000000       0.00000000       0.00000000       0.00000000       0.00000000       0.15460855
Pu       0.00000000       0.00000000       3.82484848       0.00000000       0.00000000      -0.15460855
2
Properties=species:S:1:pos:R:3:forces:R:3 energy=-24.150907716334135 pbc="F F F"
Pu       0.00000000       0.00000000       0.00000000       0.00000000       0.00000000       0.19291908
Pu       0.00000000       0.00000000       3.88363636       0.00000000       0.00000000      -0.19291908
2
Properties=species:S:1:pos:R:3:forces:R:3 energy=-24.13867013050468 pbc="F F F"
Pu       0.00000000       0.00000000       0.00000000       0.00000000       0.00000000       0.22188880
Pu       0.00000000       0.00000000       3.94242424       0.00000000       0.00000000      -0.22188880
2
Properties=species:S:1:pos:R:3:forces:R:3 energy=-24.12497763894009 pbc="F F F"
Pu       0.00000000       0.00000000       0.00000000       0.00000000       0.00000000       0.24294521
Pu       0.00000000       0.00000000       4.00121212       0.00000000       0.00000000      -0.24294521
2
Properties=species:S:1:pos:R:3:forces:R:3 energy=-24.110207103549573 pbc="F F F"
Pu       0.00000000       0.00000000       0.00000000       0.00000000       0.00000000       0.25880545
Pu       0.00000000       0.00000000       4.06000000       0.00000000       0.00000000      -0.25880545
2
Properties=species:S:1:pos:R:3:forces:R:3 energy=-24.094613245512047 pbc="F F F"
Pu       0.00000000       0.00000000       0.00000000       0.00000000       0.00000000       0.27120799
Pu       0.00000000       0.00000000       4.11878788       0.00000000       0.00000000      -0.27120799
2
Properties=species:S:1:pos:R:3:forces:R:3 energy=-24.078377956554803 pbc="F F F"
Pu       0.00000000       0.00000000       0.00000000       0.00000000       0.00000000       0.28063142
Pu       0.00000000       0.00000000       4.17757576       0.00000000       0.00000000      -0.28063142
2
Properties=species:S:1:pos:R:3:forces:R:3 energy=-24.061679240615785 pbc="F F F"
Pu       0.00000000       0.00000000       0.00000000       0.00000000       0.00000000       0.28680900
Pu       0.00000000       0.00000000       4.23636364       0.00000000       0.00000000      -0.28680900
2
Properties=species:S:1:pos:R:3:forces:R:3 energy=-24.044729089603983 pbc="F F F"
Pu       0.00000000       0.00000000       0.00000000       0.00000000       0.00000000       0.28928417
Pu       0.00000000       0.00000000       4.29515152       0.00000000       0.00000000      -0.28928417
2
Properties=species:S:1:pos:R:3:forces:R:3 energy=-24.027746283780736 pbc="F F F"
Pu       0.00000000       0.00000000       0.00000000       0.00000000       0.00000000       0.28785491
Pu       0.00000000       0.00000000       4.35393939       0.00000000       0.00000000      -0.28785491
2
Properties=species:S:1:pos:R:3:forces:R:3 energy=-24.010955174037203 pbc="F F F"
Pu       0.00000000       0.00000000       0.00000000       0.00000000       0.00000000       0.28279167
Pu       0.00000000       0.00000000       4.41272727       0.00000000       0.00000000      -0.28279167
2
Properties=species:S:1:pos:R:3:forces:R:3 energy=-23.99455006917945 pbc="F F F"
Pu       0.00000000       0.00000000       0.00000000       0.00000000       0.00000000       0.27484244
Pu       0.00000000       0.00000000       4.47151515       0.00000000       0.00000000      -0.27484244
2
Properties=species:S:1:pos:R:3:forces:R:3 energy=-23.97867545253025 pbc="F F F"
Pu       0.00000000       0.00000000       0.00000000       0.00000000       0.00000000       0.26505771
Pu       0.00000000       0.00000000       4.53030303       0.00000000       0.00000000      -0.26505771
2
Properties=species:S:1:pos:R:3:forces:R:3 energy=-23.963401408144406 pbc="F F F"
Pu       0.00000000       0.00000000       0.00000000       0.00000000       0.00000000       0.25453961
Pu       0.00000000       0.00000000       4.58909091       0.00000000       0.00000000      -0.25453961
2
Properties=species:S:1:pos:R:3:forces:R:3 energy=-23.948743036419874 pbc="F F F"
Pu       0.00000000       0.00000000       0.00000000       0.00000000       0.00000000       0.24423608
Pu       0.00000000       0.00000000       4.64787879       0.00000000       0.00000000      -0.24423608
2
Properties=species:S:1:pos:R:3:forces:R:3 energy=-23.934666163472368 pbc="F F F"
Pu       0.00000000       0.00000000       0.00000000       0.00000000       0.00000000       0.23481382
Pu       0.00000000       0.00000000       4.70666667       0.00000000       0.00000000      -0.23481382
2
Properties=species:S:1:pos:R:3:forces:R:3 energy=-23.921112257044832 pbc="F F F"
Pu       0.00000000       0.00000000       0.00000000       0.00000000       0.00000000       0.22663867
Pu       0.00000000       0.00000000       4.76545455       0.00000000       0.00000000      -0.22663867
2
Properties=species:S:1:pos:R:3:forces:R:3 energy=-23.90799276148235 pbc="F F F"
Pu       0.00000000       0.00000000       0.00000000       0.00000000       0.00000000       0.21979983
Pu       0.00000000       0.00000000       4.82424242       0.00000000       0.00000000      -0.21979983
2
Properties=species:S:1:pos:R:3:forces:R:3 energy=-23.895246305519823 pbc="F F F"
Pu       0.00000000       0.00000000       0.00000000       0.00000000       0.00000000       0.21417379
Pu       0.00000000       0.00000000       4.88303030       0.00000000       0.00000000      -0.21417379
2
Properties=species:S:1:pos:R:3:forces:R:3 energy=-23.882794807920845 pbc="F F F"
Pu       0.00000000       0.00000000       0.00000000       0.00000000       0.00000000       0.20945978
Pu       0.00000000       0.00000000       4.94181818       0.00000000       0.00000000      -0.20945978
2
Properties=species:S:1:pos:R:3:forces:R:3 energy=-23.870608397023307 pbc="F F F"
Pu       0.00000000       0.00000000       0.00000000       0.00000000       0.00000000       0.20521526
Pu       0.00000000       0.00000000       5.00060606       0.00000000       0.00000000      -0.20521526
2
Properties=species:S:1:pos:R:3:forces:R:3 energy=-23.85866730811626 pbc="F F F"
Pu       0.00000000       0.00000000       0.00000000       0.00000000       0.00000000       0.20088132
Pu       0.00000000       0.00000000       5.05939394       0.00000000       0.00000000      -0.20088132
2
Properties=species:S:1:pos:R:3:forces:R:3 energy=-23.847003680383065 pbc="F F F"
Pu       0.00000000       0.00000000       0.00000000       0.00000000       0.00000000       0.19581597
Pu       0.00000000       0.00000000       5.11818182       0.00000000       0.00000000      -0.19581597
2
Properties=species:S:1:pos:R:3:forces:R:3 energy=-23.835671159700524 pbc="F F F"
Pu       0.00000000       0.00000000       0.00000000       0.00000000       0.00000000       0.18936917
Pu       0.00000000       0.00000000       5.17696970       0.00000000       0.00000000      -0.18936917
2
Properties=species:S:1:pos:R:3:forces:R:3 energy=-23.82477724120226 pbc="F F F"
Pu       0.00000000       0.00000000       0.00000000       0.00000000       0.00000000       0.18097156
Pu       0.00000000       0.00000000       5.23575758       0.00000000       0.00000000      -0.18097156
2
Properties=species:S:1:pos:R:3:forces:R:3 energy=-23.81444120623848 pbc="F F F"
Pu       0.00000000       0.00000000       0.00000000       0.00000000       0.00000000       0.17023550
Pu       0.00000000       0.00000000       5.29454545       0.00000000       0.00000000      -0.17023550
2
Properties=species:S:1:pos:R:3:forces:R:3 energy=-23.804809438185853 pbc="F F F"
Pu       0.00000000       0.00000000       0.00000000       0.00000000       0.00000000       0.15705390
Pu       0.00000000       0.00000000       5.35333333       0.00000000       0.00000000      -0.15705390
2
Properties=species:S:1:pos:R:3:forces:R:3 energy=-23.796019068781863 pbc="F F F"
Pu       0.00000000       0.00000000       0.00000000       0.00000000       0.00000000       0.14164531
Pu       0.00000000       0.00000000       5.41212121       0.00000000       0.00000000      -0.14164531
2
Properties=species:S:1:pos:R:3:forces:R:3 energy=-23.788186388313218 pbc="F F F"
Pu       0.00000000       0.00000000       0.00000000       0.00000000       0.00000000       0.12457272
Pu       0.00000000       0.00000000       5.47090909       0.00000000       0.00000000      -0.12457272
2
Properties=species:S:1:pos:R:3:forces:R:3 energy=-23.7813878291503 pbc="F F F"
Pu       0.00000000       0.00000000       0.00000000       0.00000000       0.00000000       0.10668315
Pu       0.00000000       0.00000000       5.52969697       0.00000000       0.00000000      -0.10668315
2
Properties=species:S:1:pos:R:3:forces:R:3 energy=-23.775638927891425 pbc="F F F"
Pu       0.00000000       0.00000000       0.00000000       0.00000000       0.00000000       0.08901083
Pu       0.00000000       0.00000000       5.58848485       0.00000000       0.00000000      -0.08901083
2
Properties=species:S:1:pos:R:3:forces:R:3 energy=-23.770897905641256 pbc="F F F"
Pu       0.00000000       0.00000000       0.00000000       0.00000000       0.00000000       0.07265006
Pu       0.00000000       0.00000000       5.64727273       0.00000000       0.00000000      -0.07265006
2
Properties=species:S:1:pos:R:3:forces:R:3 energy=-23.76705425559723 pbc="F F F"
Pu       0.00000000       0.00000000       0.00000000       0.00000000       0.00000000       0.05856511
Pu       0.00000000       0.00000000       5.70606061       0.00000000       0.00000000      -0.05856511
2
Properties=species:S:1:pos:R:3:forces:R:3 energy=-23.763949704877597 pbc="F F F"
Pu       0.00000000       0.00000000       0.00000000       0.00000000       0.00000000       0.04747371
Pu       0.00000000       0.00000000       5.76484848       0.00000000       0.00000000      -0.04747371
2
Properties=species:S:1:pos:R:3:forces:R:3 energy=-23.76140284532687 pbc="F F F"
Pu       0.00000000       0.00000000       0.00000000       0.00000000       0.00000000       0.03970288
Pu       0.00000000       0.00000000       5.82363636       0.00000000       0.00000000      -0.03970288
2
Properties=species:S:1:pos:R:3:forces:R:3 energy=-23.75922056176854 pbc="F F F"
Pu       0.00000000       0.00000000       0.00000000       0.00000000       0.00000000       0.03508040
Pu       0.00000000       0.00000000       5.88242424       0.00000000       0.00000000      -0.03508040
2
Properties=species:S:1:pos:R:3:forces:R:3 energy=-23.757232329434405 pbc="F F F"
Pu       0.00000000       0.00000000       0.00000000       0.00000000       0.00000000       0.03293219
Pu       0.00000000       0.00000000       5.94121212       0.00000000       0.00000000      -0.03293219
2
Properties=species:S:1:pos:R:3:forces:R:3 energy=-23.755322562863604 pbc="F F F"
Pu       0.00000000       0.00000000       0.00000000       0.00000000       0.00000000       0.03215090
Pu       0.00000000       0.00000000       6.00000000       0.00000000       0.00000000      -0.03215090
