2
Properties=species:S:1:pos:R:3:forces:R:3 energy=625518335.8834116 pbc="F F F"
Th       0.00000000       0.00000000       0.00000000       0.00000000       0.00000000 -6760357888.00000000
Th       0.00000000       0.00000000       0.18000000       0.00000000       0.00000000 6760357888.00000000
2
Properties=species:S:1:pos:R:3:forces:R:3 energy=290687903.88341165 pbc="F F F"
Th       0.00000000       0.00000000       0.00000000       0.00000000       0.00000000 -4485338624.00000000
Th       0.00000000       0.00000000       0.23878788       0.00000000       0.00000000 4485338624.00000000
2
Properties=species:S:1:pos:R:3:forces:R:3 energy=99473399.88341166 pbc="F F F"
Th       0.00000000       0.00000000       0.00000000       0.00000000       0.00000000 -2118936064.00000000
Th       0.00000000       0.00000000       0.29757576       0.00000000       0.00000000 2118936064.00000000
2
Properties=species:S:1:pos:R:3:forces:R:3 energy=22942897.883411665 pbc="F F F"
Th       0.00000000       0.00000000       0.00000000       0.00000000       0.00000000 -662192448.00000000
Th       0.00000000       0.00000000       0.35636364       0.00000000       0.00000000 662192448.00000000
2
Properties=species:S:1:pos:R:3:forces:R:3 energy=3127434.8834116766 pbc="F F F"
Th       0.00000000       0.00000000       0.00000000       0.00000000       0.00000000 -125021152.00000000
Th       0.00000000       0.00000000       0.41515152       0.00000000       0.00000000 125021152.00000000
2
Properties=species:S:1:pos:R:3:forces:R:3 energy=164261.63341167642 pbc="F F F"
Th       0.00000000       0.00000000       0.00000000       0.00000000       0.00000000 -11587612.00000000
Th       0.00000000       0.00000000       0.47393939       0.00000000       0.00000000 11587612.00000000
2
Properties=species:S:1:pos:R:3:forces:R:3 energy=-3354.7489125296715 pbc="F F F"
Th       0.00000000       0.00000000       0.00000000       0.00000000       0.00000000  310822.59375000
Th       0.00000000       0.00000000       0.53272727       0.00000000       0.00000000 -310822.59375000
2
Properties=species:S:1:pos:R:3:forces:R:3 energy=-51.67906921209243 pbc="F F F"
Th       0.00000000       0.00000000       0.00000000       0.00000000       0.00000000    1255.32629395
Th       0.00000000       0.00000000       0.59151515       0.00000000       0.00000000   -1255.32629395
2
Properties=species:S:1:pos:R:3:forces:R:3 energy=-11.164057373992723 pbc="F F F"
Th       0.00000000       0.00000000       0.00000000       0.00000000       0.00000000     894.04089355
Th       0.00000000       0.00000000       0.65030303       0.00000000       0.00000000    -894.04089355
2
Properties=species:S:1:pos:R:3:forces:R:3 energy=161.43275875229097 pbc="F F F"
Th       0.00000000       0.00000000       0.00000000       0.00000000       0.00000000    2132.08666992
Th       0.00000000       0.00000000       0.70909091       0.00000000       0.00000000   -2132.08666992
2
Properties=species:S:1:pos:R:3:forces:R:3 energy=308.56752447866126 pbc="F F F"
Th       0.00000000       0.00000000       0.00000000       0.00000000       0.00000000    2432.53222656
Th       0.00000000       0.00000000       0.76787879       0.00000000       0.00000000   -2432.53222656
2
Properties=species:S:1:pos:R:3:forces:R:3 energy=420.57393332212297 pbc="F F F"
Th       0.00000000       0.00000000       0.00000000       0.00000000       0.00000000     369.13320923
Th       0.00000000       0.00000000       0.82666667       0.00000000       0.00000000    -369.13320923
2
Properties=species:S:1:pos:R:3:forces:R:3 energy=338.18547529825304 pbc="F F F"
Th       0.00000000       0.00000000       0.00000000       0.00000000       0.00000000   -2615.93627930
Th       0.00000000       0.00000000       0.88545455       0.00000000       0.00000000    2615.93627930
2
Properties=species:S:1:pos:R:3:forces:R:3 energy=190.64188124201243 pbc="F F F"
Th       0.00000000       0.00000000       0.00000000       0.00000000       0.00000000   -2210.67041016
Th       0.00000000       0.00000000       0.94424242       0.00000000       0.00000000    2210.67041016
2
Properties=species:S:1:pos:R:3:forces:R:3 energy=90.03505487793838 pbc="F F F"
Th       0.00000000       0.00000000       0.00000000       0.00000000       0.00000000   -1268.23889160
Th       0.00000000       0.00000000       1.00303030       0.00000000       0.00000000    1268.23889160
2
Properties=species:S:1:pos:R:3:forces:R:3 energy=39.20199803191063 pbc="F F F"
Th       0.00000000       0.00000000       0.00000000       0.00000000       0.00000000    -584.88714600
Th       0.00000000       0.00000000       1.06181818       0.00000000       0.00000000     584.88714600
2
Properties=species:S:1:pos:R:3:forces:R:3 energy=16.795321533422904 pbc="F F F"
Th       0.00000000       0.00000000       0.00000000       0.00000000       0.00000000    -209.26118469
Th       0.00000000       0.00000000       1.12060606       0.00000000       0.00000000     209.26118469
2
Properties=species:S:1:pos:R:3:forces:R:3 energy=8.093855007745328 pbc="F F F"
Th       0.00000000       0.00000000       0.00000000       0.00000000       0.00000000    -116.11304474
Th       0.00000000       0.00000000       1.17939394       0.00000000       0.00000000     116.11304474
2
Properties=species:S:1:pos:R:3:forces:R:3 energy=2.4489740727257496 pbc="F F F"
Th       0.00000000       0.00000000       0.00000000       0.00000000       0.00000000     -70.44864655
Th       0.00000000       0.00000000       1.23818182       0.00000000       0.00000000      70.44864655
2
Properties=species:S:1:pos:R:3:forces:R:3 energy=-0.7672222728786074 pbc="F F F"
Th       0.00000000       0.00000000       0.00000000       0.00000000       0.00000000     -42.20555115
Th       0.00000000       0.00000000       1.29696970       0.00000000       0.00000000      42.20555115
2
Properties=species:S:1:pos:R:3:forces:R:3 energy=-2.7781321743294645 pbc="F F F"
Th       0.00000000       0.00000000       0.00000000       0.00000000       0.00000000     -25.07104111
Th       0.00000000       0.00000000       1.35575758       0.00000000       0.00000000      25.07104111
2
Properties=species:S:1:pos:R:3:forces:R:3 energy=-3.890340816803584 pbc="F F F"
Th       0.00000000       0.00000000       0.00000000       0.00000000       0.00000000     -15.31105232
Th       0.00000000       0.00000000       1.41454545       0.00000000       0.00000000      15.31105232
2
Properties=species:S:1:pos:R:3:forces:R:3 energy=-4.657707860309171 pbc="F F F"
Th       0.00000000       0.00000000       0.00000000       0.00000000       0.00000000      -8.96922016
Th       0.00000000       0.00000000       1.47333333       0.00000000       0.00000000       8.96922016
2
Properties=species:S:1:pos:R:3:forces:R:3 energy=-4.720411833210684 pbc="F F F"
Th       0.00000000       0.00000000       0.00000000       0.00000000       0.00000000       4.98034716
Th       0.00000000       0.00000000       1.53212121       0.00000000       0.00000000      -4.98034716
2
Properties=species:S:1:pos:R:3:forces:R:3 energy=-4.427617571563792 pbc="F F F"
Th       0.00000000       0.00000000       0.00000000       0.00000000       0.00000000       3.93870878
Th       0.00000000       0.00000000       1.59090909       0.00000000       0.00000000      -3.93870878
2
Properties=species:S:1:pos:R:3:forces:R:3 energy=-4.173797032834126 pbc="F F F"
Th       0.00000000       0.00000000       0.00000000       0.00000000       0.00000000       5.57584143
Th       0.00000000       0.00000000       1.64969697       0.00000000       0.00000000      -5.57584143
2
Properties=species:S:1:pos:R:3:forces:R:3 energy=-3.8320903873779426 pbc="F F F"
Th       0.00000000       0.00000000       0.00000000       0.00000000       0.00000000       5.06413889
Th       0.00000000       0.00000000       1.70848485       0.00000000       0.00000000      -5.06413889
2
Properties=species:S:1:pos:R:3:forces:R:3 energy=-3.568507348080014 pbc="F F F"
Th       0.00000000       0.00000000       0.00000000       0.00000000       0.00000000       4.31126118
Th       0.00000000       0.00000000       1.76727273       0.00000000       0.00000000      -4.31126118
2
Properties=species:S:1:pos:R:3:forces:R:3 energy=-3.371403298111248 pbc="F F F"
Th       0.00000000       0.00000000       0.00000000       0.00000000       0.00000000       2.28339505
Th       0.00000000       0.00000000       1.82606061       0.00000000       0.00000000      -2.28339505
2
Properties=species:S:1:pos:R:3:forces:R:3 energy=-3.251298944447044 pbc="F F F"
Th       0.00000000       0.00000000       0.00000000       0.00000000       0.00000000       1.81831682
Th       0.00000000       0.00000000       1.88484848       0.00000000       0.00000000      -1.81831682
2
Properties=species:S:1:pos:R:3:forces:R:3 energy=-3.184947243182334 pbc="F F F"
Th       0.00000000       0.00000000       0.00000000       0.00000000       0.00000000       0.28668100
Th       0.00000000       0.00000000       1.94363636       0.00000000       0.00000000      -0.28668100
2
Properties=species:S:1:pos:R:3:forces:R:3 energy=-3.2350805360542405 pbc="F F F"
Th       0.00000000       0.00000000       0.00000000       0.00000000       0.00000000      -2.16472387
Th       0.00000000       0.00000000       2.00242424       0.00000000       0.00000000       2.16472387
2
Properties=species:S:1:pos:R:3:forces:R:3 energy=-3.4669317242000806 pbc="F F F"
Th       0.00000000       0.00000000       0.00000000       0.00000000       0.00000000      -5.63913250
Th       0.00000000       0.00000000       2.06121212       0.00000000       0.00000000       5.63913250
2
Properties=species:S:1:pos:R:3:forces:R:3 energy=-3.8259998476472123 pbc="F F F"
Th       0.00000000       0.00000000       0.00000000       0.00000000       0.00000000      -5.92062044
Th       0.00000000       0.00000000       2.12000000       0.00000000       0.00000000       5.92062044
2
Properties=species:S:1:pos:R:3:forces:R:3 energy=-4.135070781406004 pbc="F F F"
Th       0.00000000       0.00000000       0.00000000       0.00000000       0.00000000      -4.64167833
Th       0.00000000       0.00000000       2.17878788       0.00000000       0.00000000       4.64167833
2
Properties=species:S:1:pos:R:3:forces:R:3 energy=-4.37319755395323 pbc="F F F"
Th       0.00000000       0.00000000       0.00000000       0.00000000       0.00000000      -3.43976307
Th       0.00000000       0.00000000       2.23757576       0.00000000       0.00000000       3.43976307
2
Properties=species:S:1:pos:R:3:forces:R:3 energy=-4.547761072303755 pbc="F F F"
Th       0.00000000       0.00000000       0.00000000       0.00000000       0.00000000      -2.59935474
Th       0.00000000       0.00000000       2.29636364       0.00000000       0.00000000       2.59935474
2
Properties=species:S:1:pos:R:3:forces:R:3 energy=-4.6827590140763515 pbc="F F F"
Th       0.00000000       0.00000000       0.00000000       0.00000000       0.00000000      -1.97944713
Th       0.00000000       0.00000000       2.35515152       0.00000000       0.00000000       1.97944713
2
Properties=species:S:1:pos:R:3:forces:R:3 energy=-4.780305982669089 pbc="F F F"
Th       0.00000000       0.00000000       0.00000000       0.00000000       0.00000000      -1.36027420
Th       0.00000000       0.00000000       2.41393939       0.00000000       0.00000000       1.36027420
2
Properties=species:S:1:pos:R:3:forces:R:3 energy=-4.84808788348004 pbc="F F F"
Th       0.00000000       0.00000000       0.00000000       0.00000000       0.00000000      -1.01173687
Th       0.00000000       0.00000000       2.47272727       0.00000000       0.00000000       1.01173687
2
Properties=species:S:1:pos:R:3:forces:R:3 energy=-4.905074458405132 pbc="F F F"
Th       0.00000000       0.00000000       0.00000000       0.00000000       0.00000000      -0.94314438
Th       0.00000000       0.00000000       2.53151515       0.00000000       0.00000000       0.94314438
2
Properties=species:S:1:pos:R:3:forces:R:3 energy=-4.959334863204747 pbc="F F F"
Th       0.00000000       0.00000000       0.00000000       0.00000000       0.00000000      -0.91078681
Th       0.00000000       0.00000000       2.59030303       0.00000000       0.00000000       0.91078681
2
Properties=species:S:1:pos:R:3:forces:R:3 energy=-5.013717751732241 pbc="F F F"
Th       0.00000000       0.00000000       0.00000000       0.00000000       0.00000000      -0.94880289
Th       0.00000000       0.00000000       2.64909091       0.00000000       0.00000000       0.94880289
2
Properties=species:S:1:pos:R:3:forces:R:3 energy=-5.070732219099171 pbc="F F F"
Th       0.00000000       0.00000000       0.00000000       0.00000000       0.00000000      -0.98014170
Th       0.00000000       0.00000000       2.70787879       0.00000000       0.00000000       0.98014170
2
Properties=species:S:1:pos:R:3:forces:R:3 energy=-5.127272024671791 pbc="F F F"
Th       0.00000000       0.00000000       0.00000000       0.00000000       0.00000000      -0.92940569
Th       0.00000000       0.00000000       2.76666667       0.00000000       0.00000000       0.92940569
2
Properties=species:S:1:pos:R:3:forces:R:3 energy=-5.178804167682563 pbc="F F F"
Th       0.00000000       0.00000000       0.00000000       0.00000000       0.00000000      -0.81751692
Th       0.00000000       0.00000000       2.82545455       0.00000000       0.00000000       0.81751692
2
Properties=species:S:1:pos:R:3:forces:R:3 energy=-5.223025261887979 pbc="F F F"
Th       0.00000000       0.00000000       0.00000000       0.00000000       0.00000000      -0.68617600
Th       0.00000000       0.00000000       2.88424242       0.00000000       0.00000000       0.68617600
2
Properties=species:S:1:pos:R:3:forces:R:3 energy=-5.259485711860159 pbc="F F F"
Th       0.00000000       0.00000000       0.00000000       0.00000000       0.00000000      -0.55415130
Th       0.00000000       0.00000000       2.94303030       0.00000000       0.00000000       0.55415130
2
Properties=species:S:1:pos:R:3:forces:R:3 energy=-5.288063922779625 pbc="F F F"
Th       0.00000000       0.00000000       0.00000000       0.00000000       0.00000000      -0.41619772
Th       0.00000000       0.00000000       3.00181818       0.00000000       0.00000000       0.41619772
2
Properties=species:S:1:pos:R:3:forces:R:3 energy=-5.308254846723973 pbc="F F F"
Th       0.00000000       0.00000000       0.00000000       0.00000000       0.00000000      -0.27097929
Th       0.00000000       0.00000000       3.06060606       0.00000000       0.00000000       0.27097929
2
Properties=species:S:1:pos:R:3:forces:R:3 energy=-5.3202552386973645 pbc="F F F"
Th       0.00000000       0.00000000       0.00000000       0.00000000       0.00000000      -0.14221050
Th       0.00000000       0.00000000       3.11939394       0.00000000       0.00000000       0.14221050
2
Properties=species:S:1:pos:R:3:forces:R:3 energy=-5.325644529407286 pbc="F F F"
Th       0.00000000       0.00000000       0.00000000       0.00000000       0.00000000      -0.04650940
Th       0.00000000       0.00000000       3.17818182       0.00000000       0.00000000       0.04650940
2
Properties=species:S:1:pos:R:3:forces:R:3 energy=-5.326192833739351 pbc="F F F"
Th       0.00000000       0.00000000       0.00000000       0.00000000       0.00000000       0.02507329
Th       0.00000000       0.00000000       3.23696970       0.00000000       0.00000000      -0.02507329
2
Properties=species:S:1:pos:R:3:forces:R:3 energy=-5.322912897116485 pbc="F F F"
Th       0.00000000       0.00000000       0.00000000       0.00000000       0.00000000       0.08522502
Th       0.00000000       0.00000000       3.29575758       0.00000000       0.00000000      -0.08522502
2
Properties=species:S:1:pos:R:3:forces:R:3 energy=-5.316321528974504 pbc="F F F"
Th       0.00000000       0.00000000       0.00000000       0.00000000       0.00000000       0.13772072
Th       0.00000000       0.00000000       3.35454545       0.00000000       0.00000000      -0.13772072
2
Properties=species:S:1:pos:R:3:forces:R:3 energy=-5.306899045699429 pbc="F F F"
Th       0.00000000       0.00000000       0.00000000       0.00000000       0.00000000       0.18119580
Th       0.00000000       0.00000000       3.41333333       0.00000000       0.00000000      -0.18119580
2
Properties=species:S:1:pos:R:3:forces:R:3 energy=-5.295156357283137 pbc="F F F"
Th       0.00000000       0.00000000       0.00000000       0.00000000       0.00000000       0.21770661
Th       0.00000000       0.00000000       3.47212121       0.00000000       0.00000000      -0.21770661
2
Properties=species:S:1:pos:R:3:forces:R:3 energy=-5.28128746240482 pbc="F F F"
Th       0.00000000       0.00000000       0.00000000       0.00000000       0.00000000       0.25506175
Th       0.00000000       0.00000000       3.53090909       0.00000000       0.00000000      -0.25506175
2
Properties=species:S:1:pos:R:3:forces:R:3 energy=-5.265007691264569 pbc="F F F"
Th       0.00000000       0.00000000       0.00000000       0.00000000       0.00000000       0.30041450
Th       0.00000000       0.00000000       3.58969697       0.00000000       0.00000000      -0.30041450
2
Properties=species:S:1:pos:R:3:forces:R:3 energy=-5.245784203328298 pbc="F F F"
Th       0.00000000       0.00000000       0.00000000       0.00000000       0.00000000       0.35484084
Th       0.00000000       0.00000000       3.64848485       0.00000000       0.00000000      -0.35484084
2
Properties=species:S:1:pos:R:3:forces:R:3 energy=-5.22318528555333 pbc="F F F"
Th       0.00000000       0.00000000       0.00000000       0.00000000       0.00000000       0.41438764
Th       0.00000000       0.00000000       3.70727273       0.00000000       0.00000000      -0.41438764
2
Properties=species:S:1:pos:R:3:forces:R:3 energy=-5.19705951644699 pbc="F F F"
Th       0.00000000       0.00000000       0.00000000       0.00000000       0.00000000       0.47403997
Th       0.00000000       0.00000000       3.76606061       0.00000000       0.00000000      -0.47403997
2
Properties=species:S:1:pos:R:3:forces:R:3 energy=-5.167520608647854 pbc="F F F"
Th       0.00000000       0.00000000       0.00000000       0.00000000       0.00000000       0.53024602
Th       0.00000000       0.00000000       3.82484848       0.00000000       0.00000000      -0.53024602
2
Properties=species:S:1:pos:R:3:forces:R:3 energy=-5.1348195278683235 pbc="F F F"
Th       0.00000000       0.00000000       0.00000000       0.00000000       0.00000000       0.58121920
Th       0.00000000       0.00000000       3.88363636       0.00000000       0.00000000      -0.58121920
2
Properties=species:S:1:pos:R:3:forces:R:3 energy=-5.099296986576858 pbc="F F F"
Th       0.00000000       0.00000000       0.00000000       0.00000000       0.00000000       0.62623107
Th       0.00000000       0.00000000       3.94242424       0.00000000       0.00000000      -0.62623107
2
Properties=species:S:1:pos:R:3:forces:R:3 energy=-5.0613127200430865 pbc="F F F"
Th       0.00000000       0.00000000       0.00000000       0.00000000       0.00000000       0.66497427
Th       0.00000000       0.00000000       4.00121212       0.00000000       0.00000000      -0.66497427
2
Properties=species:S:1:pos:R:3:forces:R:3 energy=-5.021241811024722 pbc="F F F"
Th       0.00000000       0.00000000       0.00000000       0.00000000       0.00000000       0.69733173
Th       0.00000000       0.00000000       4.06000000       0.00000000       0.00000000      -0.69733173
2
Properties=species:S:1:pos:R:3:forces:R:3 energy=-4.979447974215411 pbc="F F F"
Th       0.00000000       0.00000000       0.00000000       0.00000000       0.00000000       0.72333455
Th       0.00000000       0.00000000       4.11878788       0.00000000       0.00000000      -0.72333455
2
Properties=species:S:1:pos:R:3:forces:R:3 energy=-4.936316000178428 pbc="F F F"
Th       0.00000000       0.00000000       0.00000000       0.00000000       0.00000000       0.74304438
Th       0.00000000       0.00000000       4.17757576       0.00000000       0.00000000      -0.74304438
2
Properties=species:S:1:pos:R:3:forces:R:3 energy=-4.8922061120280125 pbc="F F F"
Th       0.00000000       0.00000000       0.00000000       0.00000000       0.00000000       0.75639880
Th       0.00000000       0.00000000       4.23636364       0.00000000       0.00000000      -0.75639880
2
Properties=species:S:1:pos:R:3:forces:R:3 energy=-4.847511090853694 pbc="F F F"
Th       0.00000000       0.00000000       0.00000000       0.00000000       0.00000000       0.76316476
Th       0.00000000       0.00000000       4.29515152       0.00000000       0.00000000      -0.76316476
2
Properties=species:S:1:pos:R:3:forces:R:3 energy=-4.802614510455341 pbc="F F F"
Th       0.00000000       0.00000000       0.00000000       0.00000000       0.00000000       0.76305073
Th       0.00000000       0.00000000       4.35393939       0.00000000       0.00000000      -0.76305073
2
Properties=species:S:1:pos:R:3:forces:R:3 energy=-4.75793447964883 pbc="F F F"
Th       0.00000000       0.00000000       0.00000000       0.00000000       0.00000000       0.75590724
Th       0.00000000       0.00000000       4.41272727       0.00000000       0.00000000      -0.75590724
2
Properties=species:S:1:pos:R:3:forces:R:3 energy=-4.713872346593575 pbc="F F F"
Th       0.00000000       0.00000000       0.00000000       0.00000000       0.00000000       0.74192399
Th       0.00000000       0.00000000       4.47151515       0.00000000       0.00000000      -0.74192399
2
Properties=species:S:1:pos:R:3:forces:R:3 energy=-4.670818363817633 pbc="F F F"
Th       0.00000000       0.00000000       0.00000000       0.00000000       0.00000000       0.72168171
Th       0.00000000       0.00000000       4.53030303       0.00000000       0.00000000      -0.72168171
2
Properties=species:S:1:pos:R:3:forces:R:3 energy=-4.629125042357638 pbc="F F F"
Th       0.00000000       0.00000000       0.00000000       0.00000000       0.00000000       0.69611037
Th       0.00000000       0.00000000       4.58909091       0.00000000       0.00000000      -0.69611037
2
Properties=species:S:1:pos:R:3:forces:R:3 energy=-4.589059582084579 pbc="F F F"
Th       0.00000000       0.00000000       0.00000000       0.00000000       0.00000000       0.66643125
Th       0.00000000       0.00000000       4.64787879       0.00000000       0.00000000      -0.66643125
2
Properties=species:S:1:pos:R:3:forces:R:3 energy=-4.5508228691624 pbc="F F F"
Th       0.00000000       0.00000000       0.00000000       0.00000000       0.00000000       0.63404042
Th       0.00000000       0.00000000       4.70666667       0.00000000       0.00000000      -0.63404042
2
Properties=species:S:1:pos:R:3:forces:R:3 energy=-4.514538145997793 pbc="F F F"
Th       0.00000000       0.00000000       0.00000000       0.00000000       0.00000000       0.60046196
Th       0.00000000       0.00000000       4.76545455       0.00000000       0.00000000      -0.60046196
2
Properties=species:S:1:pos:R:3:forces:R:3 energy=-4.480216666293527 pbc="F F F"
Th       0.00000000       0.00000000       0.00000000       0.00000000       0.00000000       0.56720406
Th       0.00000000       0.00000000       4.82424242       0.00000000       0.00000000      -0.56720406
2
Properties=species:S:1:pos:R:3:forces:R:3 energy=-4.447813065179596 pbc="F F F"
Th       0.00000000       0.00000000       0.00000000       0.00000000       0.00000000       0.53565443
Th       0.00000000       0.00000000       4.88303030       0.00000000       0.00000000      -0.53565443
2
Properties=species:S:1:pos:R:3:forces:R:3 energy=-4.417185241535481 pbc="F F F"
Th       0.00000000       0.00000000       0.00000000       0.00000000       0.00000000       0.50682223
Th       0.00000000       0.00000000       4.94181818       0.00000000       0.00000000      -0.50682223
2
Properties=species:S:1:pos:R:3:forces:R:3 energy=-4.388155418488987 pbc="F F F"
Th       0.00000000       0.00000000       0.00000000       0.00000000       0.00000000       0.48116419
Th       0.00000000       0.00000000       5.00060606       0.00000000       0.00000000      -0.48116419
2
Properties=species:S:1:pos:R:3:forces:R:3 energy=-4.360550229415744 pbc="F F F"
Th       0.00000000       0.00000000       0.00000000       0.00000000       0.00000000       0.45839876
Th       0.00000000       0.00000000       5.05939394       0.00000000       0.00000000      -0.45839876
2
Properties=species:S:1:pos:R:3:forces:R:3 energy=-4.334221610075156 pbc="F F F"
Th       0.00000000       0.00000000       0.00000000       0.00000000       0.00000000       0.43749791
Th       0.00000000       0.00000000       5.11818182       0.00000000       0.00000000      -0.43749791
2
Properties=species:S:1:pos:R:3:forces:R:3 energy=-4.309107821095355 pbc="F F F"
Th       0.00000000       0.00000000       0.00000000       0.00000000       0.00000000       0.41682747
Th       0.00000000       0.00000000       5.17696970       0.00000000       0.00000000      -0.41682747
2
Properties=species:S:1:pos:R:3:forces:R:3 energy=-4.285250569761393 pbc="F F F"
Th       0.00000000       0.00000000       0.00000000       0.00000000       0.00000000       0.39446828
Th       0.00000000       0.00000000       5.23575758       0.00000000       0.00000000      -0.39446828
2
Properties=species:S:1:pos:R:3:forces:R:3 energy=-4.262798704335262 pbc="F F F"
Th       0.00000000       0.00000000       0.00000000       0.00000000       0.00000000       0.36861914
Th       0.00000000       0.00000000       5.29454545       0.00000000       0.00000000      -0.36861914
2
Properties=species:S:1:pos:R:3:forces:R:3 energy=-4.242000622675229 pbc="F F F"
Th       0.00000000       0.00000000       0.00000000       0.00000000       0.00000000       0.33801472
Th       0.00000000       0.00000000       5.35333333       0.00000000       0.00000000      -0.33801472
2
Properties=species:S:1:pos:R:3:forces:R:3 energy=-4.223156493485351 pbc="F F F"
Th       0.00000000       0.00000000       0.00000000       0.00000000       0.00000000       0.30229029
Th       0.00000000       0.00000000       5.41212121       0.00000000       0.00000000      -0.30229029
2
Properties=species:S:1:pos:R:3:forces:R:3 energy=-4.2065474753398 pbc="F F F"
Th       0.00000000       0.00000000       0.00000000       0.00000000       0.00000000       0.26211640
Th       0.00000000       0.00000000       5.47090909       0.00000000       0.00000000      -0.26211640
2
Properties=species:S:1:pos:R:3:forces:R:3 energy=-4.19239379302681 pbc="F F F"
Th       0.00000000       0.00000000       0.00000000       0.00000000       0.00000000       0.21918848
Th       0.00000000       0.00000000       5.52969697       0.00000000       0.00000000      -0.21918848
2
Properties=species:S:1:pos:R:3:forces:R:3 energy=-4.180780281259901 pbc="F F F"
Th       0.00000000       0.00000000       0.00000000       0.00000000       0.00000000       0.17595251
Th       0.00000000       0.00000000       5.58848485       0.00000000       0.00000000      -0.17595251
2
Properties=species:S:1:pos:R:3:forces:R:3 energy=-4.171656238958072 pbc="F F F"
Th       0.00000000       0.00000000       0.00000000       0.00000000       0.00000000       0.13527295
Th       0.00000000       0.00000000       5.64727273       0.00000000       0.00000000      -0.13527295
2
Properties=species:S:1:pos:R:3:forces:R:3 energy=-4.164778101080852 pbc="F F F"
Th       0.00000000       0.00000000       0.00000000       0.00000000       0.00000000       0.09982304
Th       0.00000000       0.00000000       5.70606061       0.00000000       0.00000000      -0.09982304
2
Properties=species:S:1:pos:R:3:forces:R:3 energy=-4.15977051813407 pbc="F F F"
Th       0.00000000       0.00000000       0.00000000       0.00000000       0.00000000       0.07171687
Th       0.00000000       0.00000000       5.76484848       0.00000000       0.00000000      -0.07171687
2
Properties=species:S:1:pos:R:3:forces:R:3 energy=-4.156173900501495 pbc="F F F"
Th       0.00000000       0.00000000       0.00000000       0.00000000       0.00000000       0.05203379
Th       0.00000000       0.00000000       5.82363636       0.00000000       0.00000000      -0.05203379
2
Properties=species:S:1:pos:R:3:forces:R:3 energy=-4.153495821823257 pbc="F F F"
Th       0.00000000       0.00000000       0.00000000       0.00000000       0.00000000       0.04052052
Th       0.00000000       0.00000000       5.88242424       0.00000000       0.00000000      -0.04052052
2
Properties=species:S:1:pos:R:3:forces:R:3 energy=-4.151283567935987 pbc="F F F"
Th       0.00000000       0.00000000       0.00000000       0.00000000       0.00000000       0.03551875
Th       0.00000000       0.00000000       5.94121212       0.00000000       0.00000000      -0.03551875
2
Properties=species:S:1:pos:R:3:forces:R:3 energy=-4.149246061465491 pbc="F F F"
Th       0.00000000       0.00000000       0.00000000       0.00000000       0.00000000       0.03418691
Th       0.00000000       0.00000000       6.00000000       0.00000000       0.00000000      -0.03418691
