2
Properties=species:S:1:pos:R:3:forces:R:3 energy=390.7925752343587 pbc="F F F"
Be       0.00000000       0.00000000       0.00000000       0.00000000       0.00000000   -2406.32641602
Be       0.00000000       0.00000000       0.18000000       0.00000000       0.00000000    2406.32641602
2
Properties=species:S:1:pos:R:3:forces:R:3 energy=294.3800996484212 pbc="F F F"
Be       0.00000000       0.00000000       0.00000000       0.00000000       0.00000000   -1113.90185547
Be       0.00000000       0.00000000       0.23878788       0.00000000       0.00000000    1113.90185547
2
Properties=species:S:1:pos:R:3:forces:R:3 energy=243.3630708429953 pbc="F F F"
Be       0.00000000       0.00000000       0.00000000       0.00000000       0.00000000    -702.83929443
Be       0.00000000       0.00000000       0.29757576       0.00000000       0.00000000     702.83929443
2
Properties=species:S:1:pos:R:3:forces:R:3 energy=205.6519197294519 pbc="F F F"
Be       0.00000000       0.00000000       0.00000000       0.00000000       0.00000000    -611.81237793
Be       0.00000000       0.00000000       0.35636364       0.00000000       0.00000000     611.81237793
2
Properties=species:S:1:pos:R:3:forces:R:3 energy=169.1363710487398 pbc="F F F"
Be       0.00000000       0.00000000       0.00000000       0.00000000       0.00000000    -642.14569092
Be       0.00000000       0.00000000       0.41515152       0.00000000       0.00000000     642.14569092
2
Properties=species:S:1:pos:R:3:forces:R:3 energy=129.32385583430022 pbc="F F F"
Be       0.00000000       0.00000000       0.00000000       0.00000000       0.00000000    -708.23748779
Be       0.00000000       0.00000000       0.47393939       0.00000000       0.00000000     708.23748779
2
Properties=species:S:1:pos:R:3:forces:R:3 energy=88.32984499453846 pbc="F F F"
Be       0.00000000       0.00000000       0.00000000       0.00000000       0.00000000    -641.78991699
Be       0.00000000       0.00000000       0.53272727       0.00000000       0.00000000     641.78991699
2
Properties=species:S:1:pos:R:3:forces:R:3 energy=58.21367616759602 pbc="F F F"
Be       0.00000000       0.00000000       0.00000000       0.00000000       0.00000000    -377.91394043
Be       0.00000000       0.00000000       0.59151515       0.00000000       0.00000000     377.91394043
2
Properties=species:S:1:pos:R:3:forces:R:3 energy=40.46606440883878 pbc="F F F"
Be       0.00000000       0.00000000       0.00000000       0.00000000       0.00000000    -244.27557373
Be       0.00000000       0.00000000       0.65030303       0.00000000       0.00000000     244.27557373
2
Properties=species:S:1:pos:R:3:forces:R:3 energy=28.8011020267584 pbc="F F F"
Be       0.00000000       0.00000000       0.00000000       0.00000000       0.00000000    -155.67111206
Be       0.00000000       0.00000000       0.70909091       0.00000000       0.00000000     155.67111206
2
Properties=species:S:1:pos:R:3:forces:R:3 energy=21.629025430682596 pbc="F F F"
Be       0.00000000       0.00000000       0.00000000       0.00000000       0.00000000     -93.04218292
Be       0.00000000       0.00000000       0.76787879       0.00000000       0.00000000      93.04218292
2
Properties=species:S:1:pos:R:3:forces:R:3 energy=17.40010059054199 pbc="F F F"
Be       0.00000000       0.00000000       0.00000000       0.00000000       0.00000000     -54.41091919
Be       0.00000000       0.00000000       0.82666667       0.00000000       0.00000000      54.41091919
2
Properties=species:S:1:pos:R:3:forces:R:3 energy=14.813694164554638 pbc="F F F"
Be       0.00000000       0.00000000       0.00000000       0.00000000       0.00000000     -36.49206924
Be       0.00000000       0.00000000       0.88545455       0.00000000       0.00000000      36.49206924
2
Properties=species:S:1:pos:R:3:forces:R:3 energy=12.903572072280111 pbc="F F F"
Be       0.00000000       0.00000000       0.00000000       0.00000000       0.00000000     -29.57258415
Be       0.00000000       0.00000000       0.94424242       0.00000000       0.00000000      29.57258415
2
Properties=species:S:1:pos:R:3:forces:R:3 energy=11.234887581386468 pbc="F F F"
Be       0.00000000       0.00000000       0.00000000       0.00000000       0.00000000     -27.79783249
Be       0.00000000       0.00000000       1.00303030       0.00000000       0.00000000      27.79783249
2
Properties=species:S:1:pos:R:3:forces:R:3 energy=9.601869432547188 pbc="F F F"
Be       0.00000000       0.00000000       0.00000000       0.00000000       0.00000000     -27.77441788
Be       0.00000000       0.00000000       1.06181818       0.00000000       0.00000000      27.77441788
2
Properties=species:S:1:pos:R:3:forces:R:3 energy=7.98555594424454 pbc="F F F"
Be       0.00000000       0.00000000       0.00000000       0.00000000       0.00000000     -26.98763657
Be       0.00000000       0.00000000       1.12060606       0.00000000       0.00000000      26.98763657
2
Properties=species:S:1:pos:R:3:forces:R:3 energy=6.457837250391452 pbc="F F F"
Be       0.00000000       0.00000000       0.00000000       0.00000000       0.00000000     -24.75209045
Be       0.00000000       0.00000000       1.17939394       0.00000000       0.00000000      24.75209045
2
Properties=species:S:1:pos:R:3:forces:R:3 energy=5.095431994985619 pbc="F F F"
Be       0.00000000       0.00000000       0.00000000       0.00000000       0.00000000     -21.50817299
Be       0.00000000       0.00000000       1.23818182       0.00000000       0.00000000      21.50817299
2
Properties=species:S:1:pos:R:3:forces:R:3 energy=3.9307249379259512 pbc="F F F"
Be       0.00000000       0.00000000       0.00000000       0.00000000       0.00000000     -18.15902901
Be       0.00000000       0.00000000       1.29696970       0.00000000       0.00000000      18.15902901
2
Properties=species:S:1:pos:R:3:forces:R:3 energy=2.95174622843531 pbc="F F F"
Be       0.00000000       0.00000000       0.00000000       0.00000000       0.00000000     -15.23319530
Be       0.00000000       0.00000000       1.35575758       0.00000000       0.00000000      15.23319530
2
Properties=species:S:1:pos:R:3:forces:R:3 energy=2.1300274975800595 pbc="F F F"
Be       0.00000000       0.00000000       0.00000000       0.00000000       0.00000000     -12.79301643
Be       0.00000000       0.00000000       1.41454545       0.00000000       0.00000000      12.79301643
2
Properties=species:S:1:pos:R:3:forces:R:3 energy=1.4408494527300886 pbc="F F F"
Be       0.00000000       0.00000000       0.00000000       0.00000000       0.00000000     -10.69894409
Be       0.00000000       0.00000000       1.47333333       0.00000000       0.00000000      10.69894409
2
Properties=species:S:1:pos:R:3:forces:R:3 energy=0.8675576203879102 pbc="F F F"
Be       0.00000000       0.00000000       0.00000000       0.00000000       0.00000000      -8.83932686
Be       0.00000000       0.00000000       1.53212121       0.00000000       0.00000000       8.83932686
2
Properties=species:S:1:pos:R:3:forces:R:3 energy=0.397592568432718 pbc="F F F"
Be       0.00000000       0.00000000       0.00000000       0.00000000       0.00000000      -7.18314409
Be       0.00000000       0.00000000       1.59090909       0.00000000       0.00000000       7.18314409
2
Properties=species:S:1:pos:R:3:forces:R:3 energy=0.018916645423458875 pbc="F F F"
Be       0.00000000       0.00000000       0.00000000       0.00000000       0.00000000      -5.73453999
Be       0.00000000       0.00000000       1.64969697       0.00000000       0.00000000       5.73453999
2
Properties=species:S:1:pos:R:3:forces:R:3 energy=-0.28065825239780784 pbc="F F F"
Be       0.00000000       0.00000000       0.00000000       0.00000000       0.00000000      -4.49005890
Be       0.00000000       0.00000000       1.70848485       0.00000000       0.00000000       4.49005890
2
Properties=species:S:1:pos:R:3:forces:R:3 energy=-0.5126732139454467 pbc="F F F"
Be       0.00000000       0.00000000       0.00000000       0.00000000       0.00000000      -3.43262935
Be       0.00000000       0.00000000       1.76727273       0.00000000       0.00000000       3.43262935
2
Properties=species:S:1:pos:R:3:forces:R:3 energy=-0.6875141324594827 pbc="F F F"
Be       0.00000000       0.00000000       0.00000000       0.00000000       0.00000000      -2.54174399
Be       0.00000000       0.00000000       1.82606061       0.00000000       0.00000000       2.54174399
2
Properties=species:S:1:pos:R:3:forces:R:3 energy=-0.8144367971757802 pbc="F F F"
Be       0.00000000       0.00000000       0.00000000       0.00000000       0.00000000      -1.79975152
Be       0.00000000       0.00000000       1.88484848       0.00000000       0.00000000       1.79975152
2
Properties=species:S:1:pos:R:3:forces:R:3 energy=-0.9017382911094572 pbc="F F F"
Be       0.00000000       0.00000000       0.00000000       0.00000000       0.00000000      -1.19117475
Be       0.00000000       0.00000000       1.94363636       0.00000000       0.00000000       1.19117475
2
Properties=species:S:1:pos:R:3:forces:R:3 energy=-0.956781032909716 pbc="F F F"
Be       0.00000000       0.00000000       0.00000000       0.00000000       0.00000000      -0.69965667
Be       0.00000000       0.00000000       2.00242424       0.00000000       0.00000000       0.69965667
2
Properties=species:S:1:pos:R:3:forces:R:3 energy=-0.9859915563087612 pbc="F F F"
Be       0.00000000       0.00000000       0.00000000       0.00000000       0.00000000      -0.30975300
Be       0.00000000       0.00000000       2.06121212       0.00000000       0.00000000       0.30975300
2
Properties=species:S:1:pos:R:3:forces:R:3 energy=-0.9948919589678797 pbc="F F F"
Be       0.00000000       0.00000000       0.00000000       0.00000000       0.00000000      -0.00619286
Be       0.00000000       0.00000000       2.12000000       0.00000000       0.00000000       0.00619286
2
Properties=species:S:1:pos:R:3:forces:R:3 energy=-0.9881255349476922 pbc="F F F"
Be       0.00000000       0.00000000       0.00000000       0.00000000       0.00000000       0.22555625
Be       0.00000000       0.00000000       2.17878788       0.00000000       0.00000000      -0.22555625
2
Properties=species:S:1:pos:R:3:forces:R:3 energy=-0.9695292216974963 pbc="F F F"
Be       0.00000000       0.00000000       0.00000000       0.00000000       0.00000000       0.39814931
Be       0.00000000       0.00000000       2.23757576       0.00000000       0.00000000      -0.39814931
2
Properties=species:S:1:pos:R:3:forces:R:3 energy=-0.942283009149526 pbc="F F F"
Be       0.00000000       0.00000000       0.00000000       0.00000000       0.00000000       0.52110380
Be       0.00000000       0.00000000       2.29636364       0.00000000       0.00000000      -0.52110380
2
Properties=species:S:1:pos:R:3:forces:R:3 energy=-0.9091238397734657 pbc="F F F"
Be       0.00000000       0.00000000       0.00000000       0.00000000       0.00000000       0.59993839
Be       0.00000000       0.00000000       2.35515152       0.00000000       0.00000000      -0.59993839
2
Properties=species:S:1:pos:R:3:forces:R:3 energy=-0.8725261531404239 pbc="F F F"
Be       0.00000000       0.00000000       0.00000000       0.00000000       0.00000000       0.63926160
Be       0.00000000       0.00000000       2.41393939       0.00000000       0.00000000      -0.63926160
2
Properties=species:S:1:pos:R:3:forces:R:3 energy=-0.8344390516266001 pbc="F F F"
Be       0.00000000       0.00000000       0.00000000       0.00000000       0.00000000       0.65496105
Be       0.00000000       0.00000000       2.47272727       0.00000000       0.00000000      -0.65496105
2
Properties=species:S:1:pos:R:3:forces:R:3 energy=-0.7953837196060072 pbc="F F F"
Be       0.00000000       0.00000000       0.00000000       0.00000000       0.00000000       0.67663652
Be       0.00000000       0.00000000       2.53151515       0.00000000       0.00000000      -0.67663652
2
Properties=species:S:1:pos:R:3:forces:R:3 energy=-0.7546020826354684 pbc="F F F"
Be       0.00000000       0.00000000       0.00000000       0.00000000       0.00000000       0.71143073
Be       0.00000000       0.00000000       2.59030303       0.00000000       0.00000000      -0.71143073
2
Properties=species:S:1:pos:R:3:forces:R:3 energy=-0.711905748796045 pbc="F F F"
Be       0.00000000       0.00000000       0.00000000       0.00000000       0.00000000       0.73813570
Be       0.00000000       0.00000000       2.64909091       0.00000000       0.00000000      -0.73813570
2
Properties=species:S:1:pos:R:3:forces:R:3 energy=-0.6682251255123253 pbc="F F F"
Be       0.00000000       0.00000000       0.00000000       0.00000000       0.00000000       0.74443054
Be       0.00000000       0.00000000       2.70787879       0.00000000       0.00000000      -0.74443054
2
Properties=species:S:1:pos:R:3:forces:R:3 energy=-0.6247360345176378 pbc="F F F"
Be       0.00000000       0.00000000       0.00000000       0.00000000       0.00000000       0.73258162
Be       0.00000000       0.00000000       2.76666667       0.00000000       0.00000000      -0.73258162
2
Properties=species:S:1:pos:R:3:forces:R:3 energy=-0.5823287662401583 pbc="F F F"
Be       0.00000000       0.00000000       0.00000000       0.00000000       0.00000000       0.70856333
Be       0.00000000       0.00000000       2.82545455       0.00000000       0.00000000      -0.70856333
2
Properties=species:S:1:pos:R:3:forces:R:3 energy=-0.5415676075047156 pbc="F F F"
Be       0.00000000       0.00000000       0.00000000       0.00000000       0.00000000       0.67726701
Be       0.00000000       0.00000000       2.88424242       0.00000000       0.00000000      -0.67726701
2
Properties=species:S:1:pos:R:3:forces:R:3 energy=-0.5027760731283247 pbc="F F F"
Be       0.00000000       0.00000000       0.00000000       0.00000000       0.00000000       0.64198828
Be       0.00000000       0.00000000       2.94303030       0.00000000       0.00000000      -0.64198828
2
Properties=species:S:1:pos:R:3:forces:R:3 energy=-0.4661205089059788 pbc="F F F"
Be       0.00000000       0.00000000       0.00000000       0.00000000       0.00000000       0.60489255
Be       0.00000000       0.00000000       3.00181818       0.00000000       0.00000000      -0.60489255
2
Properties=species:S:1:pos:R:3:forces:R:3 energy=-0.4316620859203217 pbc="F F F"
Be       0.00000000       0.00000000       0.00000000       0.00000000       0.00000000       0.56743944
Be       0.00000000       0.00000000       3.06060606       0.00000000       0.00000000      -0.56743944
2
Properties=species:S:1:pos:R:3:forces:R:3 energy=-0.3993906611379427 pbc="F F F"
Be       0.00000000       0.00000000       0.00000000       0.00000000       0.00000000       0.53064334
Be       0.00000000       0.00000000       3.11939394       0.00000000       0.00000000      -0.53064334
2
Properties=species:S:1:pos:R:3:forces:R:3 energy=-0.3692444414156708 pbc="F F F"
Be       0.00000000       0.00000000       0.00000000       0.00000000       0.00000000       0.49519786
Be       0.00000000       0.00000000       3.17818182       0.00000000       0.00000000      -0.49519786
2
Properties=species:S:1:pos:R:3:forces:R:3 energy=-0.3411321205710753 pbc="F F F"
Be       0.00000000       0.00000000       0.00000000       0.00000000       0.00000000       0.46152407
Be       0.00000000       0.00000000       3.23696970       0.00000000       0.00000000      -0.46152407
2
Properties=species:S:1:pos:R:3:forces:R:3 energy=-0.3149422512912412 pbc="F F F"
Be       0.00000000       0.00000000       0.00000000       0.00000000       0.00000000       0.42979658
Be       0.00000000       0.00000000       3.29575758       0.00000000       0.00000000      -0.42979658
2
Properties=species:S:1:pos:R:3:forces:R:3 energy=-0.2905607903113233 pbc="F F F"
Be       0.00000000       0.00000000       0.00000000       0.00000000       0.00000000       0.39997852
Be       0.00000000       0.00000000       3.35454545       0.00000000       0.00000000      -0.39997852
2
Properties=species:S:1:pos:R:3:forces:R:3 energy=-0.26788075610098816 pbc="F F F"
Be       0.00000000       0.00000000       0.00000000       0.00000000       0.00000000       0.37187827
Be       0.00000000       0.00000000       3.41333333       0.00000000       0.00000000      -0.37187827
2
Properties=species:S:1:pos:R:3:forces:R:3 energy=-0.24680862496642247 pbc="F F F"
Be       0.00000000       0.00000000       0.00000000       0.00000000       0.00000000       0.34522125
Be       0.00000000       0.00000000       3.47212121       0.00000000       0.00000000      -0.34522125
2
Properties=species:S:1:pos:R:3:forces:R:3 energy=-0.22726845831801049 pbc="F F F"
Be       0.00000000       0.00000000       0.00000000       0.00000000       0.00000000       0.31972700
Be       0.00000000       0.00000000       3.53090909       0.00000000       0.00000000      -0.31972700
2
Properties=species:S:1:pos:R:3:forces:R:3 energy=-0.20919838670423901 pbc="F F F"
Be       0.00000000       0.00000000       0.00000000       0.00000000       0.00000000       0.29516357
Be       0.00000000       0.00000000       3.58969697       0.00000000       0.00000000      -0.29516357
2
Properties=species:S:1:pos:R:3:forces:R:3 energy=-0.19254869014574966 pbc="F F F"
Be       0.00000000       0.00000000       0.00000000       0.00000000       0.00000000       0.27139857
Be       0.00000000       0.00000000       3.64848485       0.00000000       0.00000000      -0.27139857
2
Properties=species:S:1:pos:R:3:forces:R:3 energy=-0.17727362879514844 pbc="F F F"
Be       0.00000000       0.00000000       0.00000000       0.00000000       0.00000000       0.24839807
Be       0.00000000       0.00000000       3.70727273       0.00000000       0.00000000      -0.24839807
2
Properties=species:S:1:pos:R:3:forces:R:3 energy=-0.16332680563202318 pbc="F F F"
Be       0.00000000       0.00000000       0.00000000       0.00000000       0.00000000       0.22622177
Be       0.00000000       0.00000000       3.76606061       0.00000000       0.00000000      -0.22622177
2
Properties=species:S:1:pos:R:3:forces:R:3 energy=-0.15065679656488412 pbc="F F F"
Be       0.00000000       0.00000000       0.00000000       0.00000000       0.00000000       0.20499440
Be       0.00000000       0.00000000       3.82484848       0.00000000       0.00000000      -0.20499440
2
Properties=species:S:1:pos:R:3:forces:R:3 energy=-0.139202977416022 pbc="F F F"
Be       0.00000000       0.00000000       0.00000000       0.00000000       0.00000000       0.18486352
Be       0.00000000       0.00000000       3.88363636       0.00000000       0.00000000      -0.18486352
2
Properties=species:S:1:pos:R:3:forces:R:3 energy=-0.12889701140076554 pbc="F F F"
Be       0.00000000       0.00000000       0.00000000       0.00000000       0.00000000       0.16597399
Be       0.00000000       0.00000000       3.94242424       0.00000000       0.00000000      -0.16597399
2
Properties=species:S:1:pos:R:3:forces:R:3 energy=-0.11966209628280718 pbc="F F F"
Be       0.00000000       0.00000000       0.00000000       0.00000000       0.00000000       0.14843725
Be       0.00000000       0.00000000       4.00121212       0.00000000       0.00000000      -0.14843725
2
Properties=species:S:1:pos:R:3:forces:R:3 energy=-0.1114165738000208 pbc="F F F"
Be       0.00000000       0.00000000       0.00000000       0.00000000       0.00000000       0.13232155
Be       0.00000000       0.00000000       4.06000000       0.00000000       0.00000000      -0.13232155
2
Properties=species:S:1:pos:R:3:forces:R:3 energy=-0.10407593364063983 pbc="F F F"
Be       0.00000000       0.00000000       0.00000000       0.00000000       0.00000000       0.11765214
Be       0.00000000       0.00000000       4.11878788       0.00000000       0.00000000      -0.11765214
2
Properties=species:S:1:pos:R:3:forces:R:3 energy=-0.0975552734267772 pbc="F F F"
Be       0.00000000       0.00000000       0.00000000       0.00000000       0.00000000       0.10441785
Be       0.00000000       0.00000000       4.17757576       0.00000000       0.00000000      -0.10441785
2
Properties=species:S:1:pos:R:3:forces:R:3 energy=-0.09177149346787941 pbc="F F F"
Be       0.00000000       0.00000000       0.00000000       0.00000000       0.00000000       0.09257939
Be       0.00000000       0.00000000       4.23636364       0.00000000       0.00000000      -0.09257939
2
Properties=species:S:1:pos:R:3:forces:R:3 energy=-0.08664394889002333 pbc="F F F"
Be       0.00000000       0.00000000       0.00000000       0.00000000       0.00000000       0.08207528
Be       0.00000000       0.00000000       4.29515152       0.00000000       0.00000000      -0.08207528
2
Properties=species:S:1:pos:R:3:forces:R:3 energy=-0.08209685105877251 pbc="F F F"
Be       0.00000000       0.00000000       0.00000000       0.00000000       0.00000000       0.07282654
Be       0.00000000       0.00000000       4.35393939       0.00000000       0.00000000      -0.07282654
2
Properties=species:S:1:pos:R:3:forces:R:3 energy=-0.07805884172813121 pbc="F F F"
Be       0.00000000       0.00000000       0.00000000       0.00000000       0.00000000       0.06473165
Be       0.00000000       0.00000000       4.41272727       0.00000000       0.00000000      -0.06473165
2
Properties=species:S:1:pos:R:3:forces:R:3 energy=-0.07446560624747947 pbc="F F F"
Be       0.00000000       0.00000000       0.00000000       0.00000000       0.00000000       0.05767258
Be       0.00000000       0.00000000       4.47151515       0.00000000       0.00000000      -0.05767258
2
Properties=species:S:1:pos:R:3:forces:R:3 energy=-0.07126014371138956 pbc="F F F"
Be       0.00000000       0.00000000       0.00000000       0.00000000       0.00000000       0.05152046
Be       0.00000000       0.00000000       4.53030303       0.00000000       0.00000000      -0.05152046
2
Properties=species:S:1:pos:R:3:forces:R:3 energy=-0.06839273633435528 pbc="F F F"
Be       0.00000000       0.00000000       0.00000000       0.00000000       0.00000000       0.04615233
Be       0.00000000       0.00000000       4.58909091       0.00000000       0.00000000      -0.04615233
2
Properties=species:S:1:pos:R:3:forces:R:3 energy=-0.06582044362528994 pbc="F F F"
Be       0.00000000       0.00000000       0.00000000       0.00000000       0.00000000       0.04146493
Be       0.00000000       0.00000000       4.64787879       0.00000000       0.00000000      -0.04146493
2
Properties=species:S:1:pos:R:3:forces:R:3 energy=-0.06350553995999594 pbc="F F F"
Be       0.00000000       0.00000000       0.00000000       0.00000000       0.00000000       0.03738391
Be       0.00000000       0.00000000       4.70666667       0.00000000       0.00000000      -0.03738391
2
Properties=species:S:1:pos:R:3:forces:R:3 energy=-0.06141403986168936 pbc="F F F"
Be       0.00000000       0.00000000       0.00000000       0.00000000       0.00000000       0.03386219
Be       0.00000000       0.00000000       4.76545455       0.00000000       0.00000000      -0.03386219
2
Properties=species:S:1:pos:R:3:forces:R:3 energy=-0.05951388680196776 pbc="F F F"
Be       0.00000000       0.00000000       0.00000000       0.00000000       0.00000000       0.03086378
Be       0.00000000       0.00000000       4.82424242       0.00000000       0.00000000      -0.03086378
2
Properties=species:S:1:pos:R:3:forces:R:3 energy=-0.05777577821538643 pbc="F F F"
Be       0.00000000       0.00000000       0.00000000       0.00000000       0.00000000       0.02834729
Be       0.00000000       0.00000000       4.88303030       0.00000000       0.00000000      -0.02834729
2
Properties=species:S:1:pos:R:3:forces:R:3 energy=-0.05617270086461401 pbc="F F F"
Be       0.00000000       0.00000000       0.00000000       0.00000000       0.00000000       0.02625220
Be       0.00000000       0.00000000       4.94181818       0.00000000       0.00000000      -0.02625220
2
Properties=species:S:1:pos:R:3:forces:R:3 energy=-0.054682289356180656 pbc="F F F"
Be       0.00000000       0.00000000       0.00000000       0.00000000       0.00000000       0.02450276
Be       0.00000000       0.00000000       5.00060606       0.00000000       0.00000000      -0.02450276
2
Properties=species:S:1:pos:R:3:forces:R:3 energy=-0.05328632791603551 pbc="F F F"
Be       0.00000000       0.00000000       0.00000000       0.00000000       0.00000000       0.02303188
Be       0.00000000       0.00000000       5.05939394       0.00000000       0.00000000      -0.02303188
2
Properties=species:S:1:pos:R:3:forces:R:3 energy=-0.05196938077463992 pbc="F F F"
Be       0.00000000       0.00000000       0.00000000       0.00000000       0.00000000       0.02181371
Be       0.00000000       0.00000000       5.11818182       0.00000000       0.00000000      -0.02181371
2
Properties=species:S:1:pos:R:3:forces:R:3 energy=-0.05071610807756856 pbc="F F F"
Be       0.00000000       0.00000000       0.00000000       0.00000000       0.00000000       0.02087656
Be       0.00000000       0.00000000       5.17696970       0.00000000       0.00000000      -0.02087656
2
Properties=species:S:1:pos:R:3:forces:R:3 energy=-0.04950858795925305 pbc="F F F"
Be       0.00000000       0.00000000       0.00000000       0.00000000       0.00000000       0.02025789
Be       0.00000000       0.00000000       5.23575758       0.00000000       0.00000000      -0.02025789
2
Properties=species:S:1:pos:R:3:forces:R:3 energy=-0.048329162076309023 pbc="F F F"
Be       0.00000000       0.00000000       0.00000000       0.00000000       0.00000000       0.01989533
Be       0.00000000       0.00000000       5.29454545       0.00000000       0.00000000      -0.01989533
2
Properties=species:S:1:pos:R:3:forces:R:3 energy=-0.04716930892604634 pbc="F F F"
Be       0.00000000       0.00000000       0.00000000       0.00000000       0.00000000       0.01952959
Be       0.00000000       0.00000000       5.35333333       0.00000000       0.00000000      -0.01952959
2
Properties=species:S:1:pos:R:3:forces:R:3 energy=-0.046040373974451675 pbc="F F F"
Be       0.00000000       0.00000000       0.00000000       0.00000000       0.00000000       0.01878865
Be       0.00000000       0.00000000       5.41212121       0.00000000       0.00000000      -0.01878865
2
Properties=species:S:1:pos:R:3:forces:R:3 energy=-0.04496969206696988 pbc="F F F"
Be       0.00000000       0.00000000       0.00000000       0.00000000       0.00000000       0.01758311
Be       0.00000000       0.00000000       5.47090909       0.00000000       0.00000000      -0.01758311
2
Properties=species:S:1:pos:R:3:forces:R:3 energy=-0.04397535328096449 pbc="F F F"
Be       0.00000000       0.00000000       0.00000000       0.00000000       0.00000000       0.01624073
Be       0.00000000       0.00000000       5.52969697       0.00000000       0.00000000      -0.01624073
2
Properties=species:S:1:pos:R:3:forces:R:3 energy=-0.04306430144375441 pbc="F F F"
Be       0.00000000       0.00000000       0.00000000       0.00000000       0.00000000       0.01467484
Be       0.00000000       0.00000000       5.58848485       0.00000000       0.00000000      -0.01467484
2
Properties=species:S:1:pos:R:3:forces:R:3 energy=-0.042260929841426334 pbc="F F F"
Be       0.00000000       0.00000000       0.00000000       0.00000000       0.00000000       0.01259699
Be       0.00000000       0.00000000       5.64727273       0.00000000       0.00000000      -0.01259699
2
Properties=species:S:1:pos:R:3:forces:R:3 energy=-0.04158102775741332 pbc="F F F"
Be       0.00000000       0.00000000       0.00000000       0.00000000       0.00000000       0.01062861
Be       0.00000000       0.00000000       5.70606061       0.00000000       0.00000000      -0.01062861
2
Properties=species:S:1:pos:R:3:forces:R:3 energy=-0.0409991546875453 pbc="F F F"
Be       0.00000000       0.00000000       0.00000000       0.00000000       0.00000000       0.00920607
Be       0.00000000       0.00000000       5.76484848       0.00000000       0.00000000      -0.00920607
2
Properties=species:S:1:pos:R:3:forces:R:3 energy=-0.04050034846883161 pbc="F F F"
Be       0.00000000       0.00000000       0.00000000       0.00000000       0.00000000       0.00771038
Be       0.00000000       0.00000000       5.82363636       0.00000000       0.00000000      -0.00771038
2
Properties=species:S:1:pos:R:3:forces:R:3 energy=-0.04009817783275272 pbc="F F F"
Be       0.00000000       0.00000000       0.00000000       0.00000000       0.00000000       0.00599100
Be       0.00000000       0.00000000       5.88242424       0.00000000       0.00000000      -0.00599100
2
Properties=species:S:1:pos:R:3:forces:R:3 energy=-0.039788716824104134 pbc="F F F"
Be       0.00000000       0.00000000       0.00000000       0.00000000       0.00000000       0.00462633
Be       0.00000000       0.00000000       5.94121212       0.00000000       0.00000000      -0.00462633
2
Properties=species:S:1:pos:R:3:forces:R:3 energy=-0.039540343299251116 pbc="F F F"
Be       0.00000000       0.00000000       0.00000000       0.00000000       0.00000000       0.00395838
Be       0.00000000       0.00000000       6.00000000       0.00000000       0.00000000      -0.00395838
