2
Properties=species:S:1:pos:R:3:forces:R:3 energy=4257.4214816161475 pbc="F F F"
Mn       0.00000000       0.00000000       0.00000000       0.00000000       0.00000000  -49510.00390625
Mn       0.00000000       0.00000000       0.18000000       0.00000000       0.00000000   49510.00390625
2
Properties=species:S:1:pos:R:3:forces:R:3 energy=2448.4036593505225 pbc="F F F"
Mn       0.00000000       0.00000000       0.00000000       0.00000000       0.00000000  -18230.13085938
Mn       0.00000000       0.00000000       0.23878788       0.00000000       0.00000000   18230.13085938
2
Properties=species:S:1:pos:R:3:forces:R:3 energy=1726.2928195067725 pbc="F F F"
Mn       0.00000000       0.00000000       0.00000000       0.00000000       0.00000000   -8036.92675781
Mn       0.00000000       0.00000000       0.29757576       0.00000000       0.00000000    8036.92675781
2
Properties=species:S:1:pos:R:3:forces:R:3 energy=1384.8881564240028 pbc="F F F"
Mn       0.00000000       0.00000000       0.00000000       0.00000000       0.00000000   -4166.20849609
Mn       0.00000000       0.00000000       0.35636364       0.00000000       0.00000000    4166.20849609
2
Properties=species:S:1:pos:R:3:forces:R:3 energy=1191.7199435365455 pbc="F F F"
Mn       0.00000000       0.00000000       0.00000000       0.00000000       0.00000000   -2650.23876953
Mn       0.00000000       0.00000000       0.41515152       0.00000000       0.00000000    2650.23876953
2
Properties=species:S:1:pos:R:3:forces:R:3 energy=1053.2283664007794 pbc="F F F"
Mn       0.00000000       0.00000000       0.00000000       0.00000000       0.00000000   -2180.11157227
Mn       0.00000000       0.00000000       0.47393939       0.00000000       0.00000000    2180.11157227
2
Properties=species:S:1:pos:R:3:forces:R:3 energy=925.2156711072863 pbc="F F F"
Mn       0.00000000       0.00000000       0.00000000       0.00000000       0.00000000   -2236.39160156
Mn       0.00000000       0.00000000       0.53272727       0.00000000       0.00000000    2236.39160156
2
Properties=species:S:1:pos:R:3:forces:R:3 energy=785.4458957546752 pbc="F F F"
Mn       0.00000000       0.00000000       0.00000000       0.00000000       0.00000000   -2538.59765625
Mn       0.00000000       0.00000000       0.59151515       0.00000000       0.00000000    2538.59765625
2
Properties=species:S:1:pos:R:3:forces:R:3 energy=624.2262302811845 pbc="F F F"
Mn       0.00000000       0.00000000       0.00000000       0.00000000       0.00000000   -2954.75024414
Mn       0.00000000       0.00000000       0.65030303       0.00000000       0.00000000    2954.75024414
2
Properties=species:S:1:pos:R:3:forces:R:3 energy=449.2478978471844 pbc="F F F"
Mn       0.00000000       0.00000000       0.00000000       0.00000000       0.00000000   -2942.83251953
Mn       0.00000000       0.00000000       0.70909091       0.00000000       0.00000000    2942.83251953
2
Properties=species:S:1:pos:R:3:forces:R:3 energy=289.2992895849633 pbc="F F F"
Mn       0.00000000       0.00000000       0.00000000       0.00000000       0.00000000   -2331.52758789
Mn       0.00000000       0.00000000       0.76787879       0.00000000       0.00000000    2331.52758789
2
Properties=species:S:1:pos:R:3:forces:R:3 energy=179.52447899352043 pbc="F F F"
Mn       0.00000000       0.00000000       0.00000000       0.00000000       0.00000000   -1474.38037109
Mn       0.00000000       0.00000000       0.82666667       0.00000000       0.00000000    1474.38037109
2
Properties=species:S:1:pos:R:3:forces:R:3 energy=119.12749898981207 pbc="F F F"
Mn       0.00000000       0.00000000       0.00000000       0.00000000       0.00000000    -747.62768555
Mn       0.00000000       0.00000000       0.88545455       0.00000000       0.00000000     747.62768555
2
Properties=species:S:1:pos:R:3:forces:R:3 energy=80.85276489505516 pbc="F F F"
Mn       0.00000000       0.00000000       0.00000000       0.00000000       0.00000000    -569.07116699
Mn       0.00000000       0.00000000       0.94424242       0.00000000       0.00000000     569.07116699
2
Properties=species:S:1:pos:R:3:forces:R:3 energy=52.48920953171745 pbc="F F F"
Mn       0.00000000       0.00000000       0.00000000       0.00000000       0.00000000    -400.03601074
Mn       0.00000000       0.00000000       1.00303030       0.00000000       0.00000000     400.03601074
2
Properties=species:S:1:pos:R:3:forces:R:3 energy=32.95403876419877 pbc="F F F"
Mn       0.00000000       0.00000000       0.00000000       0.00000000       0.00000000    -273.49618530
Mn       0.00000000       0.00000000       1.06181818       0.00000000       0.00000000     273.49618530
2
Properties=species:S:1:pos:R:3:forces:R:3 energy=19.46543615430469 pbc="F F F"
Mn       0.00000000       0.00000000       0.00000000       0.00000000       0.00000000    -190.78002930
Mn       0.00000000       0.00000000       1.12060606       0.00000000       0.00000000     190.78002930
2
Properties=species:S:1:pos:R:3:forces:R:3 energy=10.061628849858304 pbc="F F F"
Mn       0.00000000       0.00000000       0.00000000       0.00000000       0.00000000    -132.05096436
Mn       0.00000000       0.00000000       1.17939394       0.00000000       0.00000000     132.05096436
2
Properties=species:S:1:pos:R:3:forces:R:3 energy=3.6381790893199115 pbc="F F F"
Mn       0.00000000       0.00000000       0.00000000       0.00000000       0.00000000     -89.14505768
Mn       0.00000000       0.00000000       1.23818182       0.00000000       0.00000000      89.14505768
2
Properties=species:S:1:pos:R:3:forces:R:3 energy=-0.7531151686223553 pbc="F F F"
Mn       0.00000000       0.00000000       0.00000000       0.00000000       0.00000000     -62.70041656
Mn       0.00000000       0.00000000       1.29696970       0.00000000       0.00000000      62.70041656
2
Properties=species:S:1:pos:R:3:forces:R:3 energy=-3.878078620535297 pbc="F F F"
Mn       0.00000000       0.00000000       0.00000000       0.00000000       0.00000000     -43.73097229
Mn       0.00000000       0.00000000       1.35575758       0.00000000       0.00000000      43.73097229
2
Properties=species:S:1:pos:R:3:forces:R:3 energy=-5.915180813443088 pbc="F F F"
Mn       0.00000000       0.00000000       0.00000000       0.00000000       0.00000000     -26.44753075
Mn       0.00000000       0.00000000       1.41454545       0.00000000       0.00000000      26.44753075
2
Properties=species:S:1:pos:R:3:forces:R:3 energy=-7.1506154587856265 pbc="F F F"
Mn       0.00000000       0.00000000       0.00000000       0.00000000       0.00000000     -16.92729187
Mn       0.00000000       0.00000000       1.47333333       0.00000000       0.00000000      16.92729187
2
Properties=species:S:1:pos:R:3:forces:R:3 energy=-8.002543806222828 pbc="F F F"
Mn       0.00000000       0.00000000       0.00000000       0.00000000       0.00000000     -12.39095783
Mn       0.00000000       0.00000000       1.53212121       0.00000000       0.00000000      12.39095783
2
Properties=species:S:1:pos:R:3:forces:R:3 energy=-8.620052210749767 pbc="F F F"
Mn       0.00000000       0.00000000       0.00000000       0.00000000       0.00000000      -8.66320896
Mn       0.00000000       0.00000000       1.59090909       0.00000000       0.00000000       8.66320896
2
Properties=species:S:1:pos:R:3:forces:R:3 energy=-9.034364799614838 pbc="F F F"
Mn       0.00000000       0.00000000       0.00000000       0.00000000       0.00000000      -5.62338161
Mn       0.00000000       0.00000000       1.64969697       0.00000000       0.00000000       5.62338161
2
Properties=species:S:1:pos:R:3:forces:R:3 energy=-9.308680650938008 pbc="F F F"
Mn       0.00000000       0.00000000       0.00000000       0.00000000       0.00000000      -3.94474721
Mn       0.00000000       0.00000000       1.70848485       0.00000000       0.00000000       3.94474721
2
Properties=species:S:1:pos:R:3:forces:R:3 energy=-9.520056861728985 pbc="F F F"
Mn       0.00000000       0.00000000       0.00000000       0.00000000       0.00000000      -3.36548710
Mn       0.00000000       0.00000000       1.76727273       0.00000000       0.00000000       3.36548710
2
Properties=species:S:1:pos:R:3:forces:R:3 energy=-9.71124930021128 pbc="F F F"
Mn       0.00000000       0.00000000       0.00000000       0.00000000       0.00000000      -3.15575385
Mn       0.00000000       0.00000000       1.82606061       0.00000000       0.00000000       3.15575385
2
Properties=species:S:1:pos:R:3:forces:R:3 energy=-9.89155978222956 pbc="F F F"
Mn       0.00000000       0.00000000       0.00000000       0.00000000       0.00000000      -2.98192239
Mn       0.00000000       0.00000000       1.88484848       0.00000000       0.00000000       2.98192239
2
Properties=species:S:1:pos:R:3:forces:R:3 energy=-10.063008471442593 pbc="F F F"
Mn       0.00000000       0.00000000       0.00000000       0.00000000       0.00000000      -2.86678219
Mn       0.00000000       0.00000000       1.94363636       0.00000000       0.00000000       2.86678219
2
Properties=species:S:1:pos:R:3:forces:R:3 energy=-10.230829153714474 pbc="F F F"
Mn       0.00000000       0.00000000       0.00000000       0.00000000       0.00000000      -2.86126590
Mn       0.00000000       0.00000000       2.00242424       0.00000000       0.00000000       2.86126590
2
Properties=species:S:1:pos:R:3:forces:R:3 energy=-10.401061060258352 pbc="F F F"
Mn       0.00000000       0.00000000       0.00000000       0.00000000       0.00000000      -2.93638325
Mn       0.00000000       0.00000000       2.06121212       0.00000000       0.00000000       2.93638325
2
Properties=species:S:1:pos:R:3:forces:R:3 energy=-10.575620059709967 pbc="F F F"
Mn       0.00000000       0.00000000       0.00000000       0.00000000       0.00000000      -2.98840928
Mn       0.00000000       0.00000000       2.12000000       0.00000000       0.00000000       2.98840928
2
Properties=species:S:1:pos:R:3:forces:R:3 energy=-10.749953562680899 pbc="F F F"
Mn       0.00000000       0.00000000       0.00000000       0.00000000       0.00000000      -2.91716003
Mn       0.00000000       0.00000000       2.17878788       0.00000000       0.00000000       2.91716003
2
Properties=species:S:1:pos:R:3:forces:R:3 energy=-10.915591402711314 pbc="F F F"
Mn       0.00000000       0.00000000       0.00000000       0.00000000       0.00000000      -2.69371247
Mn       0.00000000       0.00000000       2.23757576       0.00000000       0.00000000       2.69371247
2
Properties=species:S:1:pos:R:3:forces:R:3 energy=-11.064132474131286 pbc="F F F"
Mn       0.00000000       0.00000000       0.00000000       0.00000000       0.00000000      -2.34127069
Mn       0.00000000       0.00000000       2.29636364       0.00000000       0.00000000       2.34127069
2
Properties=species:S:1:pos:R:3:forces:R:3 energy=-11.189106035642576 pbc="F F F"
Mn       0.00000000       0.00000000       0.00000000       0.00000000       0.00000000      -1.89930844
Mn       0.00000000       0.00000000       2.35515152       0.00000000       0.00000000       1.89930844
2
Properties=species:S:1:pos:R:3:forces:R:3 energy=-11.286662551185065 pbc="F F F"
Mn       0.00000000       0.00000000       0.00000000       0.00000000       0.00000000      -1.41774845
Mn       0.00000000       0.00000000       2.41393939       0.00000000       0.00000000       1.41774845
2
Properties=species:S:1:pos:R:3:forces:R:3 energy=-11.356184361695453 pbc="F F F"
Mn       0.00000000       0.00000000       0.00000000       0.00000000       0.00000000      -0.95578742
Mn       0.00000000       0.00000000       2.47272727       0.00000000       0.00000000       0.95578742
2
Properties=species:S:1:pos:R:3:forces:R:3 energy=-11.4005470778211 pbc="F F F"
Mn       0.00000000       0.00000000       0.00000000       0.00000000       0.00000000      -0.57002175
Mn       0.00000000       0.00000000       2.53151515       0.00000000       0.00000000       0.57002175
2
Properties=species:S:1:pos:R:3:forces:R:3 energy=-11.425325402063997 pbc="F F F"
Mn       0.00000000       0.00000000       0.00000000       0.00000000       0.00000000      -0.28981513
Mn       0.00000000       0.00000000       2.59030303       0.00000000       0.00000000       0.28981513
2
Properties=species:S:1:pos:R:3:forces:R:3 energy=-11.435847402433222 pbc="F F F"
Mn       0.00000000       0.00000000       0.00000000       0.00000000       0.00000000      -0.06938931
Mn       0.00000000       0.00000000       2.64909091       0.00000000       0.00000000       0.06938931
2
Properties=species:S:1:pos:R:3:forces:R:3 energy=-11.43282330578758 pbc="F F F"
Mn       0.00000000       0.00000000       0.00000000       0.00000000       0.00000000       0.17836465
Mn       0.00000000       0.00000000       2.70787879       0.00000000       0.00000000      -0.17836465
2
Properties=species:S:1:pos:R:3:forces:R:3 energy=-11.415130022233354 pbc="F F F"
Mn       0.00000000       0.00000000       0.00000000       0.00000000       0.00000000       0.41244769
Mn       0.00000000       0.00000000       2.76666667       0.00000000       0.00000000      -0.41244769
2
Properties=species:S:1:pos:R:3:forces:R:3 energy=-11.386123045371546 pbc="F F F"
Mn       0.00000000       0.00000000       0.00000000       0.00000000       0.00000000       0.55875975
Mn       0.00000000       0.00000000       2.82545455       0.00000000       0.00000000      -0.55875975
2
Properties=species:S:1:pos:R:3:forces:R:3 energy=-11.350967288993784 pbc="F F F"
Mn       0.00000000       0.00000000       0.00000000       0.00000000       0.00000000       0.62709105
Mn       0.00000000       0.00000000       2.88424242       0.00000000       0.00000000      -0.62709105
2
Properties=species:S:1:pos:R:3:forces:R:3 energy=-11.313301486175687 pbc="F F F"
Mn       0.00000000       0.00000000       0.00000000       0.00000000       0.00000000       0.64855808
Mn       0.00000000       0.00000000       2.94303030       0.00000000       0.00000000      -0.64855808
2
Properties=species:S:1:pos:R:3:forces:R:3 energy=-11.275231695547182 pbc="F F F"
Mn       0.00000000       0.00000000       0.00000000       0.00000000       0.00000000       0.64330399
Mn       0.00000000       0.00000000       3.00181818       0.00000000       0.00000000      -0.64330399
2
Properties=species:S:1:pos:R:3:forces:R:3 energy=-11.237953000586506 pbc="F F F"
Mn       0.00000000       0.00000000       0.00000000       0.00000000       0.00000000       0.62322330
Mn       0.00000000       0.00000000       3.06060606       0.00000000       0.00000000      -0.62322330
2
Properties=species:S:1:pos:R:3:forces:R:3 energy=-11.20209064597935 pbc="F F F"
Mn       0.00000000       0.00000000       0.00000000       0.00000000       0.00000000       0.59616154
Mn       0.00000000       0.00000000       3.11939394       0.00000000       0.00000000      -0.59616154
2
Properties=species:S:1:pos:R:3:forces:R:3 energy=-11.167894161746108 pbc="F F F"
Mn       0.00000000       0.00000000       0.00000000       0.00000000       0.00000000       0.56718546
Mn       0.00000000       0.00000000       3.17818182       0.00000000       0.00000000      -0.56718546
2
Properties=species:S:1:pos:R:3:forces:R:3 energy=-11.135388608876674 pbc="F F F"
Mn       0.00000000       0.00000000       0.00000000       0.00000000       0.00000000       0.53888363
Mn       0.00000000       0.00000000       3.23696970       0.00000000       0.00000000      -0.53888363
2
Properties=species:S:1:pos:R:3:forces:R:3 energy=-11.104508465939231 pbc="F F F"
Mn       0.00000000       0.00000000       0.00000000       0.00000000       0.00000000       0.51187474
Mn       0.00000000       0.00000000       3.29575758       0.00000000       0.00000000      -0.51187474
2
Properties=species:S:1:pos:R:3:forces:R:3 energy=-11.075188604631618 pbc="F F F"
Mn       0.00000000       0.00000000       0.00000000       0.00000000       0.00000000       0.48565620
Mn       0.00000000       0.00000000       3.35454545       0.00000000       0.00000000      -0.48565620
2
Properties=species:S:1:pos:R:3:forces:R:3 energy=-11.047407322175122 pbc="F F F"
Mn       0.00000000       0.00000000       0.00000000       0.00000000       0.00000000       0.45945901
Mn       0.00000000       0.00000000       3.41333333       0.00000000       0.00000000      -0.45945901
2
Properties=species:S:1:pos:R:3:forces:R:3 energy=-11.021176440111926 pbc="F F F"
Mn       0.00000000       0.00000000       0.00000000       0.00000000       0.00000000       0.43280837
Mn       0.00000000       0.00000000       3.47212121       0.00000000       0.00000000      -0.43280837
2
Properties=species:S:1:pos:R:3:forces:R:3 energy=-10.996528187283515 pbc="F F F"
Mn       0.00000000       0.00000000       0.00000000       0.00000000       0.00000000       0.40570423
Mn       0.00000000       0.00000000       3.53090909       0.00000000       0.00000000      -0.40570423
2
Properties=species:S:1:pos:R:3:forces:R:3 energy=-10.973477249262992 pbc="F F F"
Mn       0.00000000       0.00000000       0.00000000       0.00000000       0.00000000       0.37853608
Mn       0.00000000       0.00000000       3.58969697       0.00000000       0.00000000      -0.37853608
2
Properties=species:S:1:pos:R:3:forces:R:3 energy=-10.952011263290135 pbc="F F F"
Mn       0.00000000       0.00000000       0.00000000       0.00000000       0.00000000       0.35188711
Mn       0.00000000       0.00000000       3.64848485       0.00000000       0.00000000      -0.35188711
2
Properties=species:S:1:pos:R:3:forces:R:3 energy=-10.932082456950106 pbc="F F F"
Mn       0.00000000       0.00000000       0.00000000       0.00000000       0.00000000       0.32634881
Mn       0.00000000       0.00000000       3.70727273       0.00000000       0.00000000      -0.32634881
2
Properties=species:S:1:pos:R:3:forces:R:3 energy=-10.91360966322803 pbc="F F F"
Mn       0.00000000       0.00000000       0.00000000       0.00000000       0.00000000       0.30239868
Mn       0.00000000       0.00000000       3.76606061       0.00000000       0.00000000      -0.30239868
2
Properties=species:S:1:pos:R:3:forces:R:3 energy=-10.89648968857306 pbc="F F F"
Mn       0.00000000       0.00000000       0.00000000       0.00000000       0.00000000       0.28034249
Mn       0.00000000       0.00000000       3.82484848       0.00000000       0.00000000      -0.28034249
2
Properties=species:S:1:pos:R:3:forces:R:3 energy=-10.880608018727772 pbc="F F F"
Mn       0.00000000       0.00000000       0.00000000       0.00000000       0.00000000       0.26030183
Mn       0.00000000       0.00000000       3.88363636       0.00000000       0.00000000      -0.26030183
2
Properties=species:S:1:pos:R:3:forces:R:3 energy=-10.865846435451394 pbc="F F F"
Mn       0.00000000       0.00000000       0.00000000       0.00000000       0.00000000       0.24223810
Mn       0.00000000       0.00000000       3.94242424       0.00000000       0.00000000      -0.24223810
2
Properties=species:S:1:pos:R:3:forces:R:3 energy=-10.852091548903513 pbc="F F F"
Mn       0.00000000       0.00000000       0.00000000       0.00000000       0.00000000       0.22599170
Mn       0.00000000       0.00000000       4.00121212       0.00000000       0.00000000      -0.22599170
2
Properties=species:S:1:pos:R:3:forces:R:3 energy=-10.839244372401096 pbc="F F F"
Mn       0.00000000       0.00000000       0.00000000       0.00000000       0.00000000       0.21133348
Mn       0.00000000       0.00000000       4.06000000       0.00000000       0.00000000      -0.21133348
2
Properties=species:S:1:pos:R:3:forces:R:3 energy=-10.827217423381677 pbc="F F F"
Mn       0.00000000       0.00000000       0.00000000       0.00000000       0.00000000       0.19801635
Mn       0.00000000       0.00000000       4.11878788       0.00000000       0.00000000      -0.19801635
2
Properties=species:S:1:pos:R:3:forces:R:3 energy=-10.815940299729442 pbc="F F F"
Mn       0.00000000       0.00000000       0.00000000       0.00000000       0.00000000       0.18581411
Mn       0.00000000       0.00000000       4.17757576       0.00000000       0.00000000      -0.18581411
2
Properties=species:S:1:pos:R:3:forces:R:3 energy=-10.80535194901038 pbc="F F F"
Mn       0.00000000       0.00000000       0.00000000       0.00000000       0.00000000       0.17455180
Mn       0.00000000       0.00000000       4.23636364       0.00000000       0.00000000      -0.17455180
2
Properties=species:S:1:pos:R:3:forces:R:3 energy=-10.79540053542376 pbc="F F F"
Mn       0.00000000       0.00000000       0.00000000       0.00000000       0.00000000       0.16410810
Mn       0.00000000       0.00000000       4.29515152       0.00000000       0.00000000      -0.16410810
2
Properties=species:S:1:pos:R:3:forces:R:3 energy=-10.786042435442653 pbc="F F F"
Mn       0.00000000       0.00000000       0.00000000       0.00000000       0.00000000       0.15441415
Mn       0.00000000       0.00000000       4.35393939       0.00000000       0.00000000      -0.15441415
2
Properties=species:S:1:pos:R:3:forces:R:3 energy=-10.777232276582609 pbc="F F F"
Mn       0.00000000       0.00000000       0.00000000       0.00000000       0.00000000       0.14542651
Mn       0.00000000       0.00000000       4.41272727       0.00000000       0.00000000      -0.14542651
2
Properties=species:S:1:pos:R:3:forces:R:3 energy=-10.768930528782318 pbc="F F F"
Mn       0.00000000       0.00000000       0.00000000       0.00000000       0.00000000       0.13710682
Mn       0.00000000       0.00000000       4.47151515       0.00000000       0.00000000      -0.13710682
2
Properties=species:S:1:pos:R:3:forces:R:3 energy=-10.761099556657813 pbc="F F F"
Mn       0.00000000       0.00000000       0.00000000       0.00000000       0.00000000       0.12939484
Mn       0.00000000       0.00000000       4.53030303       0.00000000       0.00000000      -0.12939484
2
Properties=species:S:1:pos:R:3:forces:R:3 energy=-10.753707111081875 pbc="F F F"
Mn       0.00000000       0.00000000       0.00000000       0.00000000       0.00000000       0.12218805
Mn       0.00000000       0.00000000       4.58909091       0.00000000       0.00000000      -0.12218805
2
Properties=species:S:1:pos:R:3:forces:R:3 energy=-10.746726227813733 pbc="F F F"
Mn       0.00000000       0.00000000       0.00000000       0.00000000       0.00000000       0.11533841
Mn       0.00000000       0.00000000       4.64787879       0.00000000       0.00000000      -0.11533841
2
Properties=species:S:1:pos:R:3:forces:R:3 energy=-10.740141814520248 pbc="F F F"
Mn       0.00000000       0.00000000       0.00000000       0.00000000       0.00000000       0.10866350
Mn       0.00000000       0.00000000       4.70666667       0.00000000       0.00000000      -0.10866350
2
Properties=species:S:1:pos:R:3:forces:R:3 energy=-10.733950391014504 pbc="F F F"
Mn       0.00000000       0.00000000       0.00000000       0.00000000       0.00000000       0.10198490
Mn       0.00000000       0.00000000       4.76545455       0.00000000       0.00000000      -0.10198490
2
Properties=species:S:1:pos:R:3:forces:R:3 energy=-10.728153470556387 pbc="F F F"
Mn       0.00000000       0.00000000       0.00000000       0.00000000       0.00000000       0.09517747
Mn       0.00000000       0.00000000       4.82424242       0.00000000       0.00000000      -0.09517747
2
Properties=species:S:1:pos:R:3:forces:R:3 energy=-10.722762169833066 pbc="F F F"
Mn       0.00000000       0.00000000       0.00000000       0.00000000       0.00000000       0.08823440
Mn       0.00000000       0.00000000       4.88303030       0.00000000       0.00000000      -0.08823440
2
Properties=species:S:1:pos:R:3:forces:R:3 energy=-10.717779044797462 pbc="F F F"
Mn       0.00000000       0.00000000       0.00000000       0.00000000       0.00000000       0.08131199
Mn       0.00000000       0.00000000       4.94181818       0.00000000       0.00000000      -0.08131199
2
Properties=species:S:1:pos:R:3:forces:R:3 energy=-10.713195245484417 pbc="F F F"
Mn       0.00000000       0.00000000       0.00000000       0.00000000       0.00000000       0.07473512
Mn       0.00000000       0.00000000       5.00060606       0.00000000       0.00000000      -0.07473512
2
Properties=species:S:1:pos:R:3:forces:R:3 energy=-10.708977262772754 pbc="F F F"
Mn       0.00000000       0.00000000       0.00000000       0.00000000       0.00000000       0.06892864
Mn       0.00000000       0.00000000       5.05939394       0.00000000       0.00000000      -0.06892864
2
Properties=species:S:1:pos:R:3:forces:R:3 energy=-10.705067749011048 pbc="F F F"
Mn       0.00000000       0.00000000       0.00000000       0.00000000       0.00000000       0.06427352
Mn       0.00000000       0.00000000       5.11818182       0.00000000       0.00000000      -0.06427352
2
Properties=species:S:1:pos:R:3:forces:R:3 energy=-10.70139520681627 pbc="F F F"
Mn       0.00000000       0.00000000       0.00000000       0.00000000       0.00000000       0.06089985
Mn       0.00000000       0.00000000       5.17696970       0.00000000       0.00000000      -0.06089985
2
Properties=species:S:1:pos:R:3:forces:R:3 energy=-10.697889317554928 pbc="F F F"
Mn       0.00000000       0.00000000       0.00000000       0.00000000       0.00000000       0.05845854
Mn       0.00000000       0.00000000       5.23575758       0.00000000       0.00000000      -0.05845854
2
Properties=species:S:1:pos:R:3:forces:R:3 energy=-10.694521965177787 pbc="F F F"
Mn       0.00000000       0.00000000       0.00000000       0.00000000       0.00000000       0.05598842
Mn       0.00000000       0.00000000       5.29454545       0.00000000       0.00000000      -0.05598842
2
Properties=species:S:1:pos:R:3:forces:R:3 energy=-10.69133026695545 pbc="F F F"
Mn       0.00000000       0.00000000       0.00000000       0.00000000       0.00000000       0.05232927
Mn       0.00000000       0.00000000       5.35333333       0.00000000       0.00000000      -0.05232927
2
Properties=species:S:1:pos:R:3:forces:R:3 energy=-10.688386063819806 pbc="F F F"
Mn       0.00000000       0.00000000       0.00000000       0.00000000       0.00000000       0.04796941
Mn       0.00000000       0.00000000       5.41212121       0.00000000       0.00000000      -0.04796941
2
Properties=species:S:1:pos:R:3:forces:R:3 energy=-10.68563009982629 pbc="F F F"
Mn       0.00000000       0.00000000       0.00000000       0.00000000       0.00000000       0.04659642
Mn       0.00000000       0.00000000       5.47090909       0.00000000       0.00000000      -0.04659642
2
Properties=species:S:1:pos:R:3:forces:R:3 energy=-10.682833940121585 pbc="F F F"
Mn       0.00000000       0.00000000       0.00000000       0.00000000       0.00000000       0.04856786
Mn       0.00000000       0.00000000       5.52969697       0.00000000       0.00000000      -0.04856786
2
Properties=species:S:1:pos:R:3:forces:R:3 energy=-10.680001502676875 pbc="F F F"
Mn       0.00000000       0.00000000       0.00000000       0.00000000       0.00000000       0.04670065
Mn       0.00000000       0.00000000       5.58848485       0.00000000       0.00000000      -0.04670065
2
Properties=species:S:1:pos:R:3:forces:R:3 energy=-10.67743310335469 pbc="F F F"
Mn       0.00000000       0.00000000       0.00000000       0.00000000       0.00000000       0.04052626
Mn       0.00000000       0.00000000       5.64727273       0.00000000       0.00000000      -0.04052626
2
Properties=species:S:1:pos:R:3:forces:R:3 energy=-10.675163702138754 pbc="F F F"
Mn       0.00000000       0.00000000       0.00000000       0.00000000       0.00000000       0.03808647
Mn       0.00000000       0.00000000       5.70606061       0.00000000       0.00000000      -0.03808647
2
Properties=species:S:1:pos:R:3:forces:R:3 energy=-10.67276557491387 pbc="F F F"
Mn       0.00000000       0.00000000       0.00000000       0.00000000       0.00000000       0.04438100
Mn       0.00000000       0.00000000       5.76484848       0.00000000       0.00000000      -0.04438100
2
Properties=species:S:1:pos:R:3:forces:R:3 energy=-10.670019822145829 pbc="F F F"
Mn       0.00000000       0.00000000       0.00000000       0.00000000       0.00000000       0.04697477
Mn       0.00000000       0.00000000       5.82363636       0.00000000       0.00000000      -0.04697477
2
Properties=species:S:1:pos:R:3:forces:R:3 energy=-10.667541882614385 pbc="F F F"
Mn       0.00000000       0.00000000       0.00000000       0.00000000       0.00000000       0.03556017
Mn       0.00000000       0.00000000       5.88242424       0.00000000       0.00000000      -0.03556017
2
Properties=species:S:1:pos:R:3:forces:R:3 energy=-10.665908103955793 pbc="F F F"
Mn       0.00000000       0.00000000       0.00000000       0.00000000       0.00000000       0.02049996
Mn       0.00000000       0.00000000       5.94121212       0.00000000       0.00000000      -0.02049996
2
Properties=species:S:1:pos:R:3:forces:R:3 energy=-10.664961459840896 pbc="F F F"
Mn       0.00000000       0.00000000       0.00000000       0.00000000       0.00000000       0.01369574
Mn       0.00000000       0.00000000       6.00000000       0.00000000       0.00000000      -0.01369574
