2
Properties=species:S:1:pos:R:3:forces:R:3 energy=26483.24482572352 pbc="F F F"
Np       0.00000000       0.00000000       0.00000000       0.00000000       0.00000000 -363011.50000000
Np       0.00000000       0.00000000       0.18000000       0.00000000       0.00000000  363011.50000000
2
Properties=species:S:1:pos:R:3:forces:R:3 energy=13912.50947416102 pbc="F F F"
Np       0.00000000       0.00000000       0.00000000       0.00000000       0.00000000 -117632.53906250
Np       0.00000000       0.00000000       0.23878788       0.00000000       0.00000000  117632.53906250
2
Properties=species:S:1:pos:R:3:forces:R:3 energy=9486.80634916102 pbc="F F F"
Np       0.00000000       0.00000000       0.00000000       0.00000000       0.00000000  -46116.62890625
Np       0.00000000       0.00000000       0.29757576       0.00000000       0.00000000   46116.62890625
2
Properties=species:S:1:pos:R:3:forces:R:3 energy=7603.40107572352 pbc="F F F"
Np       0.00000000       0.00000000       0.00000000       0.00000000       0.00000000  -22160.94140625
Np       0.00000000       0.00000000       0.35636364       0.00000000       0.00000000   22160.94140625
2
Properties=species:S:1:pos:R:3:forces:R:3 energy=6575.01142728602 pbc="F F F"
Np       0.00000000       0.00000000       0.00000000       0.00000000       0.00000000  -14403.21582031
Np       0.00000000       0.00000000       0.41515152       0.00000000       0.00000000   14403.21582031
2
Properties=species:S:1:pos:R:3:forces:R:3 energy=5789.25605619227 pbc="F F F"
Np       0.00000000       0.00000000       0.00000000       0.00000000       0.00000000  -12971.61328125
Np       0.00000000       0.00000000       0.47393939       0.00000000       0.00000000   12971.61328125
2
Properties=species:S:1:pos:R:3:forces:R:3 energy=5002.979689030112 pbc="F F F"
Np       0.00000000       0.00000000       0.00000000       0.00000000       0.00000000  -13984.09667969
Np       0.00000000       0.00000000       0.53272727       0.00000000       0.00000000   13984.09667969
2
Properties=species:S:1:pos:R:3:forces:R:3 energy=4138.187208599376 pbc="F F F"
Np       0.00000000       0.00000000       0.00000000       0.00000000       0.00000000  -15364.52343750
Np       0.00000000       0.00000000       0.59151515       0.00000000       0.00000000   15364.52343750
2
Properties=species:S:1:pos:R:3:forces:R:3 energy=3217.4699234938116 pbc="F F F"
Np       0.00000000       0.00000000       0.00000000       0.00000000       0.00000000  -15694.06738281
Np       0.00000000       0.00000000       0.65030303       0.00000000       0.00000000   15694.06738281
2
Properties=species:S:1:pos:R:3:forces:R:3 energy=2329.636671616714 pbc="F F F"
Np       0.00000000       0.00000000       0.00000000       0.00000000       0.00000000  -14184.89746094
Np       0.00000000       0.00000000       0.70909091       0.00000000       0.00000000   14184.89746094
2
Properties=species:S:1:pos:R:3:forces:R:3 energy=1461.5667254416933 pbc="F F F"
Np       0.00000000       0.00000000       0.00000000       0.00000000       0.00000000  -12558.55566406
Np       0.00000000       0.00000000       0.76787879       0.00000000       0.00000000   12558.55566406
2
Properties=species:S:1:pos:R:3:forces:R:3 energy=899.7715596034664 pbc="F F F"
Np       0.00000000       0.00000000       0.00000000       0.00000000       0.00000000   -8509.61914062
Np       0.00000000       0.00000000       0.82666667       0.00000000       0.00000000    8509.61914062
2
Properties=species:S:1:pos:R:3:forces:R:3 energy=497.93562238223467 pbc="F F F"
Np       0.00000000       0.00000000       0.00000000       0.00000000       0.00000000   -4481.71484375
Np       0.00000000       0.00000000       0.88545455       0.00000000       0.00000000    4481.71484375
2
Properties=species:S:1:pos:R:3:forces:R:3 energy=335.117812678437 pbc="F F F"
Np       0.00000000       0.00000000       0.00000000       0.00000000       0.00000000   -1399.46130371
Np       0.00000000       0.00000000       0.94424242       0.00000000       0.00000000    1399.46130371
2
Properties=species:S:1:pos:R:3:forces:R:3 energy=270.51170355347665 pbc="F F F"
Np       0.00000000       0.00000000       0.00000000       0.00000000       0.00000000    -834.78015137
Np       0.00000000       0.00000000       1.00303030       0.00000000       0.00000000     834.78015137
2
Properties=species:S:1:pos:R:3:forces:R:3 energy=232.86772229146118 pbc="F F F"
Np       0.00000000       0.00000000       0.00000000       0.00000000       0.00000000    -502.40057373
Np       0.00000000       0.00000000       1.06181818       0.00000000       0.00000000     502.40057373
2
Properties=species:S:1:pos:R:3:forces:R:3 energy=200.1490799899748 pbc="F F F"
Np       0.00000000       0.00000000       0.00000000       0.00000000       0.00000000    -631.73724365
Np       0.00000000       0.00000000       1.12060606       0.00000000       0.00000000     631.73724365
2
Properties=species:S:1:pos:R:3:forces:R:3 energy=164.1931332797568 pbc="F F F"
Np       0.00000000       0.00000000       0.00000000       0.00000000       0.00000000    -584.87207031
Np       0.00000000       0.00000000       1.17939394       0.00000000       0.00000000     584.87207031
2
Properties=species:S:1:pos:R:3:forces:R:3 energy=131.4289899028505 pbc="F F F"
Np       0.00000000       0.00000000       0.00000000       0.00000000       0.00000000    -532.43572998
Np       0.00000000       0.00000000       1.23818182       0.00000000       0.00000000     532.43572998
2
Properties=species:S:1:pos:R:3:forces:R:3 energy=101.49880077617601 pbc="F F F"
Np       0.00000000       0.00000000       0.00000000       0.00000000       0.00000000    -483.68698120
Np       0.00000000       0.00000000       1.29696970       0.00000000       0.00000000     483.68698120
2
Properties=species:S:1:pos:R:3:forces:R:3 energy=74.96848400786753 pbc="F F F"
Np       0.00000000       0.00000000       0.00000000       0.00000000       0.00000000    -415.38085938
Np       0.00000000       0.00000000       1.35575758       0.00000000       0.00000000     415.38085938
2
Properties=species:S:1:pos:R:3:forces:R:3 energy=52.91836195224905 pbc="F F F"
Np       0.00000000       0.00000000       0.00000000       0.00000000       0.00000000    -334.34680176
Np       0.00000000       0.00000000       1.41454545       0.00000000       0.00000000     334.34680176
2
Properties=species:S:1:pos:R:3:forces:R:3 energy=35.498623156735825 pbc="F F F"
Np       0.00000000       0.00000000       0.00000000       0.00000000       0.00000000    -261.01919556
Np       0.00000000       0.00000000       1.47333333       0.00000000       0.00000000     261.01919556
2
Properties=species:S:1:pos:R:3:forces:R:3 energy=21.862721600287603 pbc="F F F"
Np       0.00000000       0.00000000       0.00000000       0.00000000       0.00000000    -205.64230347
Np       0.00000000       0.00000000       1.53212121       0.00000000       0.00000000     205.64230347
2
Properties=species:S:1:pos:R:3:forces:R:3 energy=11.10401740750702 pbc="F F F"
Np       0.00000000       0.00000000       0.00000000       0.00000000       0.00000000    -161.45864868
Np       0.00000000       0.00000000       1.59090909       0.00000000       0.00000000     161.45864868
2
Properties=species:S:1:pos:R:3:forces:R:3 energy=2.760741651788208 pbc="F F F"
Np       0.00000000       0.00000000       0.00000000       0.00000000       0.00000000    -123.58846283
Np       0.00000000       0.00000000       1.64969697       0.00000000       0.00000000     123.58846283
2
Properties=species:S:1:pos:R:3:forces:R:3 energy=-3.5717189716725515 pbc="F F F"
Np       0.00000000       0.00000000       0.00000000       0.00000000       0.00000000     -92.89105225
Np       0.00000000       0.00000000       1.70848485       0.00000000       0.00000000      92.89105225
2
Properties=species:S:1:pos:R:3:forces:R:3 energy=-8.262453323365113 pbc="F F F"
Np       0.00000000       0.00000000       0.00000000       0.00000000       0.00000000     -67.50543213
Np       0.00000000       0.00000000       1.76727273       0.00000000       0.00000000      67.50543213
2
Properties=species:S:1:pos:R:3:forces:R:3 energy=-11.610026060752373 pbc="F F F"
Np       0.00000000       0.00000000       0.00000000       0.00000000       0.00000000     -47.26075745
Np       0.00000000       0.00000000       1.82606061       0.00000000       0.00000000      47.26075745
2
Properties=species:S:1:pos:R:3:forces:R:3 energy=-13.917605176537375 pbc="F F F"
Np       0.00000000       0.00000000       0.00000000       0.00000000       0.00000000     -32.02246094
Np       0.00000000       0.00000000       1.88484848       0.00000000       0.00000000      32.02246094
2
Properties=species:S:1:pos:R:3:forces:R:3 energy=-15.458661219867686 pbc="F F F"
Np       0.00000000       0.00000000       0.00000000       0.00000000       0.00000000     -21.03975677
Np       0.00000000       0.00000000       1.94363636       0.00000000       0.00000000      21.03975677
2
Properties=species:S:1:pos:R:3:forces:R:3 energy=-16.455496247433263 pbc="F F F"
Np       0.00000000       0.00000000       0.00000000       0.00000000       0.00000000     -13.32923985
Np       0.00000000       0.00000000       2.00242424       0.00000000       0.00000000      13.32923985
2
Properties=species:S:1:pos:R:3:forces:R:3 energy=-17.07024209159389 pbc="F F F"
Np       0.00000000       0.00000000       0.00000000       0.00000000       0.00000000      -7.89504671
Np       0.00000000       0.00000000       2.06121212       0.00000000       0.00000000       7.89504671
2
Properties=species:S:1:pos:R:3:forces:R:3 energy=-17.414560207193915 pbc="F F F"
Np       0.00000000       0.00000000       0.00000000       0.00000000       0.00000000      -4.04413366
Np       0.00000000       0.00000000       2.12000000       0.00000000       0.00000000       4.04413366
2
Properties=species:S:1:pos:R:3:forces:R:3 energy=-17.569432270291173 pbc="F F F"
Np       0.00000000       0.00000000       0.00000000       0.00000000       0.00000000      -1.40762019
Np       0.00000000       0.00000000       2.17878788       0.00000000       0.00000000       1.40762019
2
Properties=species:S:1:pos:R:3:forces:R:3 energy=-17.599759087948964 pbc="F F F"
Np       0.00000000       0.00000000       0.00000000       0.00000000       0.00000000       0.22296868
Np       0.00000000       0.00000000       2.23757576       0.00000000       0.00000000      -0.22296868
2
Properties=species:S:1:pos:R:3:forces:R:3 energy=-17.55951224552298 pbc="F F F"
Np       0.00000000       0.00000000       0.00000000       0.00000000       0.00000000       1.02233541
Np       0.00000000       0.00000000       2.29636364       0.00000000       0.00000000      -1.02233541
2
Properties=species:S:1:pos:R:3:forces:R:3 energy=-17.492092776903284 pbc="F F F"
Np       0.00000000       0.00000000       0.00000000       0.00000000       0.00000000       1.18547082
Np       0.00000000       0.00000000       2.35515152       0.00000000       0.00000000      -1.18547082
2
Properties=species:S:1:pos:R:3:forces:R:3 energy=-17.42715156365826 pbc="F F F"
Np       0.00000000       0.00000000       0.00000000       0.00000000       0.00000000       0.99246067
Np       0.00000000       0.00000000       2.41393939       0.00000000       0.00000000      -0.99246067
2
Properties=species:S:1:pos:R:3:forces:R:3 energy=-17.37588202395142 pbc="F F F"
Np       0.00000000       0.00000000       0.00000000       0.00000000       0.00000000       0.77086645
Np       0.00000000       0.00000000       2.47272727       0.00000000       0.00000000      -0.77086645
2
Properties=species:S:1:pos:R:3:forces:R:3 energy=-17.332763327821468 pbc="F F F"
Np       0.00000000       0.00000000       0.00000000       0.00000000       0.00000000       0.73237544
Np       0.00000000       0.00000000       2.53151515       0.00000000       0.00000000      -0.73237544
2
Properties=species:S:1:pos:R:3:forces:R:3 energy=-17.286289397968634 pbc="F F F"
Np       0.00000000       0.00000000       0.00000000       0.00000000       0.00000000       0.86706960
Np       0.00000000       0.00000000       2.59030303       0.00000000       0.00000000      -0.86706960
2
Properties=species:S:1:pos:R:3:forces:R:3 energy=-17.230121012483977 pbc="F F F"
Np       0.00000000       0.00000000       0.00000000       0.00000000       0.00000000       1.03945935
Np       0.00000000       0.00000000       2.64909091       0.00000000       0.00000000      -1.03945935
2
Properties=species:S:1:pos:R:3:forces:R:3 energy=-17.1651973538275 pbc="F F F"
Np       0.00000000       0.00000000       0.00000000       0.00000000       0.00000000       1.15795767
Np       0.00000000       0.00000000       2.70787879       0.00000000       0.00000000      -1.15795767
2
Properties=species:S:1:pos:R:3:forces:R:3 energy=-17.0951430499639 pbc="F F F"
Np       0.00000000       0.00000000       0.00000000       0.00000000       0.00000000       1.21758258
Np       0.00000000       0.00000000       2.76666667       0.00000000       0.00000000      -1.21758258
2
Properties=species:S:1:pos:R:3:forces:R:3 energy=-17.022695570989125 pbc="F F F"
Np       0.00000000       0.00000000       0.00000000       0.00000000       0.00000000       1.24313307
Np       0.00000000       0.00000000       2.82545455       0.00000000       0.00000000      -1.24313307
2
Properties=species:S:1:pos:R:3:forces:R:3 energy=-16.949392791421978 pbc="F F F"
Np       0.00000000       0.00000000       0.00000000       0.00000000       0.00000000       1.24718916
Np       0.00000000       0.00000000       2.88424242       0.00000000       0.00000000      -1.24718916
2
Properties=species:S:1:pos:R:3:forces:R:3 energy=-16.876486242731858 pbc="F F F"
Np       0.00000000       0.00000000       0.00000000       0.00000000       0.00000000       1.22931600
Np       0.00000000       0.00000000       2.94303030       0.00000000       0.00000000      -1.22931600
2
Properties=species:S:1:pos:R:3:forces:R:3 energy=-16.805299808923312 pbc="F F F"
Np       0.00000000       0.00000000       0.00000000       0.00000000       0.00000000       1.18900669
Np       0.00000000       0.00000000       3.00181818       0.00000000       0.00000000      -1.18900669
2
Properties=species:S:1:pos:R:3:forces:R:3 energy=-16.73701619218821 pbc="F F F"
Np       0.00000000       0.00000000       0.00000000       0.00000000       0.00000000       1.13209009
Np       0.00000000       0.00000000       3.06060606       0.00000000       0.00000000      -1.13209009
2
Properties=species:S:1:pos:R:3:forces:R:3 energy=-16.672321981333265 pbc="F F F"
Np       0.00000000       0.00000000       0.00000000       0.00000000       0.00000000       1.06858253
Np       0.00000000       0.00000000       3.11939394       0.00000000       0.00000000      -1.06858253
2
Properties=species:S:1:pos:R:3:forces:R:3 energy=-16.611325838529446 pbc="F F F"
Np       0.00000000       0.00000000       0.00000000       0.00000000       0.00000000       1.00754058
Np       0.00000000       0.00000000       3.17818182       0.00000000       0.00000000      -1.00754058
2
Properties=species:S:1:pos:R:3:forces:R:3 energy=-16.553714610460236 pbc="F F F"
Np       0.00000000       0.00000000       0.00000000       0.00000000       0.00000000       0.95377928
Np       0.00000000       0.00000000       3.23696970       0.00000000       0.00000000      -0.95377928
2
Properties=species:S:1:pos:R:3:forces:R:3 energy=-16.4990302106556 pbc="F F F"
Np       0.00000000       0.00000000       0.00000000       0.00000000       0.00000000       0.90776670
Np       0.00000000       0.00000000       3.29575758       0.00000000       0.00000000      -0.90776670
2
Properties=species:S:1:pos:R:3:forces:R:3 energy=-16.44686967568653 pbc="F F F"
Np       0.00000000       0.00000000       0.00000000       0.00000000       0.00000000       0.86748713
Np       0.00000000       0.00000000       3.35454545       0.00000000       0.00000000      -0.86748713
2
Properties=species:S:1:pos:R:3:forces:R:3 energy=-16.39696910117616 pbc="F F F"
Np       0.00000000       0.00000000       0.00000000       0.00000000       0.00000000       0.83055514
Np       0.00000000       0.00000000       3.41333333       0.00000000       0.00000000      -0.83055514
2
Properties=species:S:1:pos:R:3:forces:R:3 energy=-16.34918089300038 pbc="F F F"
Np       0.00000000       0.00000000       0.00000000       0.00000000       0.00000000       0.79550600
Np       0.00000000       0.00000000       3.47212121       0.00000000       0.00000000      -0.79550600
2
Properties=species:S:1:pos:R:3:forces:R:3 energy=-16.30340692138663 pbc="F F F"
Np       0.00000000       0.00000000       0.00000000       0.00000000       0.00000000       0.76209623
Np       0.00000000       0.00000000       3.53090909       0.00000000       0.00000000      -0.76209623
2
Properties=species:S:1:pos:R:3:forces:R:3 energy=-16.25953367106041 pbc="F F F"
Np       0.00000000       0.00000000       0.00000000       0.00000000       0.00000000       0.73093915
Np       0.00000000       0.00000000       3.58969697       0.00000000       0.00000000      -0.73093915
2
Properties=species:S:1:pos:R:3:forces:R:3 energy=-16.217403694372223 pbc="F F F"
Np       0.00000000       0.00000000       0.00000000       0.00000000       0.00000000       0.70290977
Np       0.00000000       0.00000000       3.64848485       0.00000000       0.00000000      -0.70290977
2
Properties=species:S:1:pos:R:3:forces:R:3 energy=-16.17681567465401 pbc="F F F"
Np       0.00000000       0.00000000       0.00000000       0.00000000       0.00000000       0.67858917
Np       0.00000000       0.00000000       3.70727273       0.00000000       0.00000000      -0.67858917
2
Properties=species:S:1:pos:R:3:forces:R:3 energy=-16.13754534369768 pbc="F F F"
Np       0.00000000       0.00000000       0.00000000       0.00000000       0.00000000       0.65796089
Np       0.00000000       0.00000000       3.76606061       0.00000000       0.00000000      -0.65796089
2
Properties=species:S:1:pos:R:3:forces:R:3 energy=-16.099393203484794 pbc="F F F"
Np       0.00000000       0.00000000       0.00000000       0.00000000       0.00000000       0.64044082
Np       0.00000000       0.00000000       3.82484848       0.00000000       0.00000000      -0.64044082
2
Properties=species:S:1:pos:R:3:forces:R:3 energy=-16.06220166698168 pbc="F F F"
Np       0.00000000       0.00000000       0.00000000       0.00000000       0.00000000       0.62511659
Np       0.00000000       0.00000000       3.88363636       0.00000000       0.00000000      -0.62511659
2
Properties=species:S:1:pos:R:3:forces:R:3 energy=-16.02587046898395 pbc="F F F"
Np       0.00000000       0.00000000       0.00000000       0.00000000       0.00000000       0.61107582
Np       0.00000000       0.00000000       3.94242424       0.00000000       0.00000000      -0.61107582
2
Properties=species:S:1:pos:R:3:forces:R:3 energy=-15.99034415430881 pbc="F F F"
Np       0.00000000       0.00000000       0.00000000       0.00000000       0.00000000       0.59762543
Np       0.00000000       0.00000000       4.00121212       0.00000000       0.00000000      -0.59762543
2
Properties=species:S:1:pos:R:3:forces:R:3 energy=-15.955600735073554 pbc="F F F"
Np       0.00000000       0.00000000       0.00000000       0.00000000       0.00000000       0.58435261
Np       0.00000000       0.00000000       4.06000000       0.00000000       0.00000000      -0.58435261
2
Properties=species:S:1:pos:R:3:forces:R:3 energy=-15.921638427954164 pbc="F F F"
Np       0.00000000       0.00000000       0.00000000       0.00000000       0.00000000       0.57104737
Np       0.00000000       0.00000000       4.11878788       0.00000000       0.00000000      -0.57104737
2
Properties=species:S:1:pos:R:3:forces:R:3 energy=-15.888462226717143 pbc="F F F"
Np       0.00000000       0.00000000       0.00000000       0.00000000       0.00000000       0.55758572
Np       0.00000000       0.00000000       4.17757576       0.00000000       0.00000000      -0.55758572
2
Properties=species:S:1:pos:R:3:forces:R:3 energy=-15.856085058634454 pbc="F F F"
Np       0.00000000       0.00000000       0.00000000       0.00000000       0.00000000       0.54384094
Np       0.00000000       0.00000000       4.23636364       0.00000000       0.00000000      -0.54384094
2
Properties=species:S:1:pos:R:3:forces:R:3 energy=-15.824527632428051 pbc="F F F"
Np       0.00000000       0.00000000       0.00000000       0.00000000       0.00000000       0.52964407
Np       0.00000000       0.00000000       4.29515152       0.00000000       0.00000000      -0.52964407
2
Properties=species:S:1:pos:R:3:forces:R:3 energy=-15.793824477098 pbc="F F F"
Np       0.00000000       0.00000000       0.00000000       0.00000000       0.00000000       0.51480085
Np       0.00000000       0.00000000       4.35393939       0.00000000       0.00000000      -0.51480085
2
Properties=species:S:1:pos:R:3:forces:R:3 energy=-15.764017050790349 pbc="F F F"
Np       0.00000000       0.00000000       0.00000000       0.00000000       0.00000000       0.49911422
Np       0.00000000       0.00000000       4.41272727       0.00000000       0.00000000      -0.49911422
2
Properties=species:S:1:pos:R:3:forces:R:3 energy=-15.735160606586678 pbc="F F F"
Np       0.00000000       0.00000000       0.00000000       0.00000000       0.00000000       0.48242778
Np       0.00000000       0.00000000       4.47151515       0.00000000       0.00000000      -0.48242778
2
Properties=species:S:1:pos:R:3:forces:R:3 energy=-15.707315710805563 pbc="F F F"
Np       0.00000000       0.00000000       0.00000000       0.00000000       0.00000000       0.46464482
Np       0.00000000       0.00000000       4.53030303       0.00000000       0.00000000      -0.46464482
2
Properties=species:S:1:pos:R:3:forces:R:3 energy=-15.68055196900081 pbc="F F F"
Np       0.00000000       0.00000000       0.00000000       0.00000000       0.00000000       0.44573751
Np       0.00000000       0.00000000       4.58909091       0.00000000       0.00000000      -0.44573751
2
Properties=species:S:1:pos:R:3:forces:R:3 energy=-15.654930001184118 pbc="F F F"
Np       0.00000000       0.00000000       0.00000000       0.00000000       0.00000000       0.42575166
Np       0.00000000       0.00000000       4.64787879       0.00000000       0.00000000      -0.42575166
2
Properties=species:S:1:pos:R:3:forces:R:3 energy=-15.630512052619798 pbc="F F F"
Np       0.00000000       0.00000000       0.00000000       0.00000000       0.00000000       0.40479973
Np       0.00000000       0.00000000       4.70666667       0.00000000       0.00000000      -0.40479973
2
Properties=species:S:1:pos:R:3:forces:R:3 energy=-15.607350461033954 pbc="F F F"
Np       0.00000000       0.00000000       0.00000000       0.00000000       0.00000000       0.38307294
Np       0.00000000       0.00000000       4.76545455       0.00000000       0.00000000      -0.38307294
2
Properties=species:S:1:pos:R:3:forces:R:3 energy=-15.585481044250717 pbc="F F F"
Np       0.00000000       0.00000000       0.00000000       0.00000000       0.00000000       0.36088663
Np       0.00000000       0.00000000       4.82424242       0.00000000       0.00000000      -0.36088663
2
Properties=species:S:1:pos:R:3:forces:R:3 energy=-15.564919380529634 pbc="F F F"
Np       0.00000000       0.00000000       0.00000000       0.00000000       0.00000000       0.33875072
Np       0.00000000       0.00000000       4.88303030       0.00000000       0.00000000      -0.33875072
2
Properties=species:S:1:pos:R:3:forces:R:3 energy=-15.545635841971055 pbc="F F F"
Np       0.00000000       0.00000000       0.00000000       0.00000000       0.00000000       0.31746224
Np       0.00000000       0.00000000       4.94181818       0.00000000       0.00000000      -0.31746224
2
Properties=species:S:1:pos:R:3:forces:R:3 energy=-15.527552834863489 pbc="F F F"
Np       0.00000000       0.00000000       0.00000000       0.00000000       0.00000000       0.29813573
Np       0.00000000       0.00000000       5.00060606       0.00000000       0.00000000      -0.29813573
2
Properties=species:S:1:pos:R:3:forces:R:3 energy=-15.510518090467096 pbc="F F F"
Np       0.00000000       0.00000000       0.00000000       0.00000000       0.00000000       0.28205699
Np       0.00000000       0.00000000       5.05939394       0.00000000       0.00000000      -0.28205699
2
Properties=species:S:1:pos:R:3:forces:R:3 energy=-15.49430452562952 pbc="F F F"
Np       0.00000000       0.00000000       0.00000000       0.00000000       0.00000000       0.27029437
Np       0.00000000       0.00000000       5.11818182       0.00000000       0.00000000      -0.27029437
2
Properties=species:S:1:pos:R:3:forces:R:3 energy=-15.47865030344282 pbc="F F F"
Np       0.00000000       0.00000000       0.00000000       0.00000000       0.00000000       0.26297489
Np       0.00000000       0.00000000       5.17696970       0.00000000       0.00000000      -0.26297489
2
Properties=species:S:1:pos:R:3:forces:R:3 energy=-15.463332202809383 pbc="F F F"
Np       0.00000000       0.00000000       0.00000000       0.00000000       0.00000000       0.25835773
Np       0.00000000       0.00000000       5.23575758       0.00000000       0.00000000      -0.25835773
2
Properties=species:S:1:pos:R:3:forces:R:3 energy=-15.448301879827588 pbc="F F F"
Np       0.00000000       0.00000000       0.00000000       0.00000000       0.00000000       0.25231257
Np       0.00000000       0.00000000       5.29454545       0.00000000       0.00000000      -0.25231257
2
Properties=species:S:1:pos:R:3:forces:R:3 energy=-15.433785971916787 pbc="F F F"
Np       0.00000000       0.00000000       0.00000000       0.00000000       0.00000000       0.24033865
Np       0.00000000       0.00000000       5.35333333       0.00000000       0.00000000      -0.24033865
2
Properties=species:S:1:pos:R:3:forces:R:3 energy=-15.420123814792431 pbc="F F F"
Np       0.00000000       0.00000000       0.00000000       0.00000000       0.00000000       0.22463647
Np       0.00000000       0.00000000       5.41212121       0.00000000       0.00000000      -0.22463647
2
Properties=species:S:1:pos:R:3:forces:R:3 energy=-15.407216168026013 pbc="F F F"
Np       0.00000000       0.00000000       0.00000000       0.00000000       0.00000000       0.21649569
Np       0.00000000       0.00000000       5.47090909       0.00000000       0.00000000      -0.21649569
2
Properties=species:S:1:pos:R:3:forces:R:3 energy=-15.394531783059342 pbc="F F F"
Np       0.00000000       0.00000000       0.00000000       0.00000000       0.00000000       0.21452476
Np       0.00000000       0.00000000       5.52969697       0.00000000       0.00000000      -0.21452476
2
Properties=species:S:1:pos:R:3:forces:R:3 energy=-15.382225917457864 pbc="F F F"
Np       0.00000000       0.00000000       0.00000000       0.00000000       0.00000000       0.20166674
Np       0.00000000       0.00000000       5.58848485       0.00000000       0.00000000      -0.20166674
2
Properties=species:S:1:pos:R:3:forces:R:3 energy=-15.371003997497287 pbc="F F F"
Np       0.00000000       0.00000000       0.00000000       0.00000000       0.00000000       0.18012474
Np       0.00000000       0.00000000       5.64727273       0.00000000       0.00000000      -0.18012474
2
Properties=species:S:1:pos:R:3:forces:R:3 energy=-15.360807220536719 pbc="F F F"
Np       0.00000000       0.00000000       0.00000000       0.00000000       0.00000000       0.17103937
Np       0.00000000       0.00000000       5.70606061       0.00000000       0.00000000      -0.17103937
2
Properties=species:S:1:pos:R:3:forces:R:3 energy=-15.35035093230004 pbc="F F F"
Np       0.00000000       0.00000000       0.00000000       0.00000000       0.00000000       0.18662032
Np       0.00000000       0.00000000       5.76484848       0.00000000       0.00000000      -0.18662032
2
Properties=species:S:1:pos:R:3:forces:R:3 energy=-15.339193247838478 pbc="F F F"
Np       0.00000000       0.00000000       0.00000000       0.00000000       0.00000000       0.18559247
Np       0.00000000       0.00000000       5.82363636       0.00000000       0.00000000      -0.18559247
2
Properties=species:S:1:pos:R:3:forces:R:3 energy=-15.329639222358265 pbc="F F F"
Np       0.00000000       0.00000000       0.00000000       0.00000000       0.00000000       0.13270496
Np       0.00000000       0.00000000       5.88242424       0.00000000       0.00000000      -0.13270496
2
Properties=species:S:1:pos:R:3:forces:R:3 energy=-15.323857054129421 pbc="F F F"
Np       0.00000000       0.00000000       0.00000000       0.00000000       0.00000000       0.06622814
Np       0.00000000       0.00000000       5.94121212       0.00000000       0.00000000      -0.06622814
2
Properties=species:S:1:pos:R:3:forces:R:3 energy=-15.321070460962607 pbc="F F F"
Np       0.00000000       0.00000000       0.00000000       0.00000000       0.00000000       0.03771560
Np       0.00000000       0.00000000       6.00000000       0.00000000       0.00000000      -0.03771560
