2
Properties=species:S:1:pos:R:3:forces:R:3 energy=5911.422979863207 pbc="F F F"
Ti       0.00000000       0.00000000       0.00000000       0.00000000       0.00000000  -40670.76953125
Ti       0.00000000       0.00000000       0.18000000       0.00000000       0.00000000   40670.76953125
2
Properties=species:S:1:pos:R:3:forces:R:3 energy=4402.595343144457 pbc="F F F"
Ti       0.00000000       0.00000000       0.00000000       0.00000000       0.00000000  -15690.86328125
Ti       0.00000000       0.00000000       0.23878788       0.00000000       0.00000000   15690.86328125
2
Properties=species:S:1:pos:R:3:forces:R:3 energy=3746.3499818194996 pbc="F F F"
Ti       0.00000000       0.00000000       0.00000000       0.00000000       0.00000000   -8084.40429688
Ti       0.00000000       0.00000000       0.29757576       0.00000000       0.00000000    8084.40429688
2
Properties=species:S:1:pos:R:3:forces:R:3 energy=3346.3931947101246 pbc="F F F"
Ti       0.00000000       0.00000000       0.00000000       0.00000000       0.00000000   -6085.17675781
Ti       0.00000000       0.00000000       0.35636364       0.00000000       0.00000000    6085.17675781
2
Properties=species:S:1:pos:R:3:forces:R:3 energy=2984.591192763335 pbc="F F F"
Ti       0.00000000       0.00000000       0.00000000       0.00000000       0.00000000   -6501.30371094
Ti       0.00000000       0.00000000       0.41515152       0.00000000       0.00000000    6501.30371094
2
Properties=species:S:1:pos:R:3:forces:R:3 energy=2558.944952535296 pbc="F F F"
Ti       0.00000000       0.00000000       0.00000000       0.00000000       0.00000000   -8100.24658203
Ti       0.00000000       0.00000000       0.47393939       0.00000000       0.00000000    8100.24658203
2
Properties=species:S:1:pos:R:3:forces:R:3 energy=2018.739752365326 pbc="F F F"
Ti       0.00000000       0.00000000       0.00000000       0.00000000       0.00000000  -10888.45214844
Ti       0.00000000       0.00000000       0.53272727       0.00000000       0.00000000   10888.45214844
2
Properties=species:S:1:pos:R:3:forces:R:3 energy=1376.0695863845472 pbc="F F F"
Ti       0.00000000       0.00000000       0.00000000       0.00000000       0.00000000  -10972.32617188
Ti       0.00000000       0.00000000       0.59151515       0.00000000       0.00000000   10972.32617188
2
Properties=species:S:1:pos:R:3:forces:R:3 energy=751.6441103673491 pbc="F F F"
Ti       0.00000000       0.00000000       0.00000000       0.00000000       0.00000000   -8829.76660156
Ti       0.00000000       0.00000000       0.65030303       0.00000000       0.00000000    8829.76660156
2
Properties=species:S:1:pos:R:3:forces:R:3 energy=430.7841251139891 pbc="F F F"
Ti       0.00000000       0.00000000       0.00000000       0.00000000       0.00000000   -3479.17187500
Ti       0.00000000       0.00000000       0.70909091       0.00000000       0.00000000    3479.17187500
2
Properties=species:S:1:pos:R:3:forces:R:3 energy=267.2743596252054 pbc="F F F"
Ti       0.00000000       0.00000000       0.00000000       0.00000000       0.00000000   -1898.98876953
Ti       0.00000000       0.00000000       0.76787879       0.00000000       0.00000000    1898.98876953
2
Properties=species:S:1:pos:R:3:forces:R:3 energy=177.22394479838704 pbc="F F F"
Ti       0.00000000       0.00000000       0.00000000       0.00000000       0.00000000   -1204.17114258
Ti       0.00000000       0.00000000       0.82666667       0.00000000       0.00000000    1204.17114258
2
Properties=species:S:1:pos:R:3:forces:R:3 energy=123.5876688478773 pbc="F F F"
Ti       0.00000000       0.00000000       0.00000000       0.00000000       0.00000000    -639.43457031
Ti       0.00000000       0.00000000       0.88545455       0.00000000       0.00000000     639.43457031
2
Properties=species:S:1:pos:R:3:forces:R:3 energy=94.36087788419388 pbc="F F F"
Ti       0.00000000       0.00000000       0.00000000       0.00000000       0.00000000    -415.28677368
Ti       0.00000000       0.00000000       0.94424242       0.00000000       0.00000000     415.28677368
2
Properties=species:S:1:pos:R:3:forces:R:3 energy=72.91008805546407 pbc="F F F"
Ti       0.00000000       0.00000000       0.00000000       0.00000000       0.00000000    -324.93347168
Ti       0.00000000       0.00000000       1.00303030       0.00000000       0.00000000     324.93347168
2
Properties=species:S:1:pos:R:3:forces:R:3 energy=55.16739016214691 pbc="F F F"
Ti       0.00000000       0.00000000       0.00000000       0.00000000       0.00000000    -282.68481445
Ti       0.00000000       0.00000000       1.06181818       0.00000000       0.00000000     282.68481445
2
Properties=species:S:1:pos:R:3:forces:R:3 energy=39.70843351956997 pbc="F F F"
Ti       0.00000000       0.00000000       0.00000000       0.00000000       0.00000000    -240.84864807
Ti       0.00000000       0.00000000       1.12060606       0.00000000       0.00000000     240.84864807
2
Properties=species:S:1:pos:R:3:forces:R:3 energy=27.045537762244674 pbc="F F F"
Ti       0.00000000       0.00000000       0.00000000       0.00000000       0.00000000    -189.83825684
Ti       0.00000000       0.00000000       1.17939394       0.00000000       0.00000000     189.83825684
2
Properties=species:S:1:pos:R:3:forces:R:3 energy=17.24831355556624 pbc="F F F"
Ti       0.00000000       0.00000000       0.00000000       0.00000000       0.00000000    -145.24647522
Ti       0.00000000       0.00000000       1.23818182       0.00000000       0.00000000     145.24647522
2
Properties=species:S:1:pos:R:3:forces:R:3 energy=9.784866310731442 pbc="F F F"
Ti       0.00000000       0.00000000       0.00000000       0.00000000       0.00000000    -109.84504700
Ti       0.00000000       0.00000000       1.29696970       0.00000000       0.00000000     109.84504700
2
Properties=species:S:1:pos:R:3:forces:R:3 energy=4.223621787643396 pbc="F F F"
Ti       0.00000000       0.00000000       0.00000000       0.00000000       0.00000000     -80.18948364
Ti       0.00000000       0.00000000       1.35575758       0.00000000       0.00000000      80.18948364
2
Properties=species:S:1:pos:R:3:forces:R:3 energy=0.25286402379961287 pbc="F F F"
Ti       0.00000000       0.00000000       0.00000000       0.00000000       0.00000000     -55.85468674
Ti       0.00000000       0.00000000       1.41454545       0.00000000       0.00000000      55.85468674
2
Properties=species:S:1:pos:R:3:forces:R:3 energy=-2.465335832800038 pbc="F F F"
Ti       0.00000000       0.00000000       0.00000000       0.00000000       0.00000000     -37.70561981
Ti       0.00000000       0.00000000       1.47333333       0.00000000       0.00000000      37.70561981
2
Properties=species:S:1:pos:R:3:forces:R:3 energy=-4.302058273413887 pbc="F F F"
Ti       0.00000000       0.00000000       0.00000000       0.00000000       0.00000000     -25.69307899
Ti       0.00000000       0.00000000       1.53212121       0.00000000       0.00000000      25.69307899
2
Properties=species:S:1:pos:R:3:forces:R:3 energy=-5.572824100284934 pbc="F F F"
Ti       0.00000000       0.00000000       0.00000000       0.00000000       0.00000000     -18.09964752
Ti       0.00000000       0.00000000       1.59090909       0.00000000       0.00000000      18.09964752
2
Properties=species:S:1:pos:R:3:forces:R:3 energy=-6.478303127234842 pbc="F F F"
Ti       0.00000000       0.00000000       0.00000000       0.00000000       0.00000000     -12.98930454
Ti       0.00000000       0.00000000       1.64969697       0.00000000       0.00000000      12.98930454
2
Properties=species:S:1:pos:R:3:forces:R:3 energy=-7.1235881570101505 pbc="F F F"
Ti       0.00000000       0.00000000       0.00000000       0.00000000       0.00000000      -9.10664082
Ti       0.00000000       0.00000000       1.70848485       0.00000000       0.00000000       9.10664082
2
Properties=species:S:1:pos:R:3:forces:R:3 energy=-7.562826672361114 pbc="F F F"
Ti       0.00000000       0.00000000       0.00000000       0.00000000       0.00000000      -5.94313049
Ti       0.00000000       0.00000000       1.76727273       0.00000000       0.00000000       5.94313049
2
Properties=species:S:1:pos:R:3:forces:R:3 energy=-7.835182619225187 pbc="F F F"
Ti       0.00000000       0.00000000       0.00000000       0.00000000       0.00000000      -3.43757844
Ti       0.00000000       0.00000000       1.82606061       0.00000000       0.00000000       3.43757844
2
Properties=species:S:1:pos:R:3:forces:R:3 energy=-7.980968767799002 pbc="F F F"
Ti       0.00000000       0.00000000       0.00000000       0.00000000       0.00000000      -1.63922071
Ti       0.00000000       0.00000000       1.88484848       0.00000000       0.00000000       1.63922071
2
Properties=species:S:1:pos:R:3:forces:R:3 energy=-8.040233055091042 pbc="F F F"
Ti       0.00000000       0.00000000       0.00000000       0.00000000       0.00000000      -0.46316692
Ti       0.00000000       0.00000000       1.94363636       0.00000000       0.00000000       0.46316692
2
Properties=species:S:1:pos:R:3:forces:R:3 energy=-8.042918034635353 pbc="F F F"
Ti       0.00000000       0.00000000       0.00000000       0.00000000       0.00000000       0.32835820
Ti       0.00000000       0.00000000       2.00242424       0.00000000       0.00000000      -0.32835820
2
Properties=species:S:1:pos:R:3:forces:R:3 energy=-8.005273960003882 pbc="F F F"
Ti       0.00000000       0.00000000       0.00000000       0.00000000       0.00000000       0.92779136
Ti       0.00000000       0.00000000       2.06121212       0.00000000       0.00000000      -0.92779136
2
Properties=species:S:1:pos:R:3:forces:R:3 energy=-7.936715235647893 pbc="F F F"
Ti       0.00000000       0.00000000       0.00000000       0.00000000       0.00000000       1.37800634
Ti       0.00000000       0.00000000       2.12000000       0.00000000       0.00000000      -1.37800634
2
Properties=species:S:1:pos:R:3:forces:R:3 energy=-7.846635115145735 pbc="F F F"
Ti       0.00000000       0.00000000       0.00000000       0.00000000       0.00000000       1.65688872
Ti       0.00000000       0.00000000       2.17878788       0.00000000       0.00000000      -1.65688872
2
Properties=species:S:1:pos:R:3:forces:R:3 energy=-7.745224392269902 pbc="F F F"
Ti       0.00000000       0.00000000       0.00000000       0.00000000       0.00000000       1.76781774
Ti       0.00000000       0.00000000       2.23757576       0.00000000       0.00000000      -1.76781774
2
Properties=species:S:1:pos:R:3:forces:R:3 energy=-7.641273661213152 pbc="F F F"
Ti       0.00000000       0.00000000       0.00000000       0.00000000       0.00000000       1.75203776
Ti       0.00000000       0.00000000       2.29636364       0.00000000       0.00000000      -1.75203776
2
Properties=species:S:1:pos:R:3:forces:R:3 energy=-7.540640251143427 pbc="F F F"
Ti       0.00000000       0.00000000       0.00000000       0.00000000       0.00000000       1.66388547
Ti       0.00000000       0.00000000       2.35515152       0.00000000       0.00000000      -1.66388547
2
Properties=species:S:1:pos:R:3:forces:R:3 energy=-7.446123664544493 pbc="F F F"
Ti       0.00000000       0.00000000       0.00000000       0.00000000       0.00000000       1.55061603
Ti       0.00000000       0.00000000       2.41393939       0.00000000       0.00000000      -1.55061603
2
Properties=species:S:1:pos:R:3:forces:R:3 energy=-7.358170542014051 pbc="F F F"
Ti       0.00000000       0.00000000       0.00000000       0.00000000       0.00000000       1.44477427
Ti       0.00000000       0.00000000       2.47272727       0.00000000       0.00000000      -1.44477427
2
Properties=species:S:1:pos:R:3:forces:R:3 energy=-7.275755868949771 pbc="F F F"
Ti       0.00000000       0.00000000       0.00000000       0.00000000       0.00000000       1.36387348
Ti       0.00000000       0.00000000       2.53151515       0.00000000       0.00000000      -1.36387348
2
Properties=species:S:1:pos:R:3:forces:R:3 energy=-7.197216507768609 pbc="F F F"
Ti       0.00000000       0.00000000       0.00000000       0.00000000       0.00000000       1.31299472
Ti       0.00000000       0.00000000       2.59030303       0.00000000       0.00000000      -1.31299472
2
Properties=species:S:1:pos:R:3:forces:R:3 energy=-7.120868970114271 pbc="F F F"
Ti       0.00000000       0.00000000       0.00000000       0.00000000       0.00000000       1.28790975
Ti       0.00000000       0.00000000       2.64909091       0.00000000       0.00000000      -1.28790975
2
Properties=species:S:1:pos:R:3:forces:R:3 energy=-7.045494011125072 pbc="F F F"
Ti       0.00000000       0.00000000       0.00000000       0.00000000       0.00000000       1.27778149
Ti       0.00000000       0.00000000       2.70787879       0.00000000       0.00000000      -1.27778149
2
Properties=species:S:1:pos:R:3:forces:R:3 energy=-6.970626738587478 pbc="F F F"
Ti       0.00000000       0.00000000       0.00000000       0.00000000       0.00000000       1.26807404
Ti       0.00000000       0.00000000       2.76666667       0.00000000       0.00000000      -1.26807404
2
Properties=species:S:1:pos:R:3:forces:R:3 energy=-6.89663948641186 pbc="F F F"
Ti       0.00000000       0.00000000       0.00000000       0.00000000       0.00000000       1.24659324
Ti       0.00000000       0.00000000       2.82545455       0.00000000       0.00000000      -1.24659324
2
Properties=species:S:1:pos:R:3:forces:R:3 energy=-6.824216746418456 pbc="F F F"
Ti       0.00000000       0.00000000       0.00000000       0.00000000       0.00000000       1.21824789
Ti       0.00000000       0.00000000       2.88424242       0.00000000       0.00000000      -1.21824789
2
Properties=species:S:1:pos:R:3:forces:R:3 energy=-6.752827964141941 pbc="F F F"
Ti       0.00000000       0.00000000       0.00000000       0.00000000       0.00000000       1.21948314
Ti       0.00000000       0.00000000       2.94303030       0.00000000       0.00000000      -1.21948314
2
Properties=species:S:1:pos:R:3:forces:R:3 energy=-6.679554264498631 pbc="F F F"
Ti       0.00000000       0.00000000       0.00000000       0.00000000       0.00000000       1.28306806
Ti       0.00000000       0.00000000       3.00181818       0.00000000       0.00000000      -1.28306806
2
Properties=species:S:1:pos:R:3:forces:R:3 energy=-6.601435849491291 pbc="F F F"
Ti       0.00000000       0.00000000       0.00000000       0.00000000       0.00000000       1.37295485
Ti       0.00000000       0.00000000       3.06060606       0.00000000       0.00000000      -1.37295485
2
Properties=species:S:1:pos:R:3:forces:R:3 energy=-6.518857808333734 pbc="F F F"
Ti       0.00000000       0.00000000       0.00000000       0.00000000       0.00000000       1.42775178
Ti       0.00000000       0.00000000       3.11939394       0.00000000       0.00000000      -1.42775178
2
Properties=species:S:1:pos:R:3:forces:R:3 energy=-6.4345535491636126 pbc="F F F"
Ti       0.00000000       0.00000000       0.00000000       0.00000000       0.00000000       1.43318999
Ti       0.00000000       0.00000000       3.17818182       0.00000000       0.00000000      -1.43318999
2
Properties=species:S:1:pos:R:3:forces:R:3 energy=-6.350985467904923 pbc="F F F"
Ti       0.00000000       0.00000000       0.00000000       0.00000000       0.00000000       1.40602899
Ti       0.00000000       0.00000000       3.23696970       0.00000000       0.00000000      -1.40602899
2
Properties=species:S:1:pos:R:3:forces:R:3 energy=-6.269548435295549 pbc="F F F"
Ti       0.00000000       0.00000000       0.00000000       0.00000000       0.00000000       1.36278498
Ti       0.00000000       0.00000000       3.29575758       0.00000000       0.00000000      -1.36278498
2
Properties=species:S:1:pos:R:3:forces:R:3 energy=-6.190888897751848 pbc="F F F"
Ti       0.00000000       0.00000000       0.00000000       0.00000000       0.00000000       1.31253517
Ti       0.00000000       0.00000000       3.35454545       0.00000000       0.00000000      -1.31253517
2
Properties=species:S:1:pos:R:3:forces:R:3 energy=-6.1152841766410715 pbc="F F F"
Ti       0.00000000       0.00000000       0.00000000       0.00000000       0.00000000       1.25927138
Ti       0.00000000       0.00000000       3.41333333       0.00000000       0.00000000      -1.25927138
2
Properties=species:S:1:pos:R:3:forces:R:3 energy=-6.04285979911058 pbc="F F F"
Ti       0.00000000       0.00000000       0.00000000       0.00000000       0.00000000       1.20442200
Ti       0.00000000       0.00000000       3.47212121       0.00000000       0.00000000      -1.20442200
2
Properties=species:S:1:pos:R:3:forces:R:3 energy=-5.973696667487665 pbc="F F F"
Ti       0.00000000       0.00000000       0.00000000       0.00000000       0.00000000       1.14838374
Ti       0.00000000       0.00000000       3.53090909       0.00000000       0.00000000      -1.14838374
2
Properties=species:S:1:pos:R:3:forces:R:3 energy=-5.907856239752905 pbc="F F F"
Ti       0.00000000       0.00000000       0.00000000       0.00000000       0.00000000       1.09139264
Ti       0.00000000       0.00000000       3.58969697       0.00000000       0.00000000      -1.09139264
2
Properties=species:S:1:pos:R:3:forces:R:3 energy=-5.845383248556017 pbc="F F F"
Ti       0.00000000       0.00000000       0.00000000       0.00000000       0.00000000       1.03399634
Ti       0.00000000       0.00000000       3.64848485       0.00000000       0.00000000      -1.03399634
2
Properties=species:S:1:pos:R:3:forces:R:3 energy=-5.78627349771694 pbc="F F F"
Ti       0.00000000       0.00000000       0.00000000       0.00000000       0.00000000       0.97712737
Ti       0.00000000       0.00000000       3.70727273       0.00000000       0.00000000      -0.97712737
2
Properties=species:S:1:pos:R:3:forces:R:3 energy=-5.730463579220785 pbc="F F F"
Ti       0.00000000       0.00000000       0.00000000       0.00000000       0.00000000       0.92191321
Ti       0.00000000       0.00000000       3.76606061       0.00000000       0.00000000      -0.92191321
2
Properties=species:S:1:pos:R:3:forces:R:3 energy=-5.677825970133888 pbc="F F F"
Ti       0.00000000       0.00000000       0.00000000       0.00000000       0.00000000       0.86940044
Ti       0.00000000       0.00000000       3.82484848       0.00000000       0.00000000      -0.86940044
2
Properties=species:S:1:pos:R:3:forces:R:3 energy=-5.6281759744210795 pbc="F F F"
Ti       0.00000000       0.00000000       0.00000000       0.00000000       0.00000000       0.82029492
Ti       0.00000000       0.00000000       3.88363636       0.00000000       0.00000000      -0.82029492
2
Properties=species:S:1:pos:R:3:forces:R:3 energy=-5.5813066334285475 pbc="F F F"
Ti       0.00000000       0.00000000       0.00000000       0.00000000       0.00000000       0.77484494
Ti       0.00000000       0.00000000       3.94242424       0.00000000       0.00000000      -0.77484494
2
Properties=species:S:1:pos:R:3:forces:R:3 energy=-5.537005866678953 pbc="F F F"
Ti       0.00000000       0.00000000       0.00000000       0.00000000       0.00000000       0.73285657
Ti       0.00000000       0.00000000       4.00121212       0.00000000       0.00000000      -0.73285657
2
Properties=species:S:1:pos:R:3:forces:R:3 energy=-5.495083466191928 pbc="F F F"
Ti       0.00000000       0.00000000       0.00000000       0.00000000       0.00000000       0.69378388
Ti       0.00000000       0.00000000       4.06000000       0.00000000       0.00000000      -0.69378388
2
Properties=species:S:1:pos:R:3:forces:R:3 energy=-5.455390927239746 pbc="F F F"
Ti       0.00000000       0.00000000       0.00000000       0.00000000       0.00000000       0.65687788
Ti       0.00000000       0.00000000       4.11878788       0.00000000       0.00000000      -0.65687788
2
Properties=species:S:1:pos:R:3:forces:R:3 energy=-5.417823615457372 pbc="F F F"
Ti       0.00000000       0.00000000       0.00000000       0.00000000       0.00000000       0.62133116
Ti       0.00000000       0.00000000       4.17757576       0.00000000       0.00000000      -0.62133116
2
Properties=species:S:1:pos:R:3:forces:R:3 energy=-5.382325047369432 pbc="F F F"
Ti       0.00000000       0.00000000       0.00000000       0.00000000       0.00000000       0.58640242
Ti       0.00000000       0.00000000       4.23636364       0.00000000       0.00000000      -0.58640242
2
Properties=species:S:1:pos:R:3:forces:R:3 energy=-5.34887548264845 pbc="F F F"
Ti       0.00000000       0.00000000       0.00000000       0.00000000       0.00000000       0.55152571
Ti       0.00000000       0.00000000       4.29515152       0.00000000       0.00000000      -0.55152571
2
Properties=species:S:1:pos:R:3:forces:R:3 energy=-5.317484849249036 pbc="F F F"
Ti       0.00000000       0.00000000       0.00000000       0.00000000       0.00000000       0.51637381
Ti       0.00000000       0.00000000       4.35393939       0.00000000       0.00000000      -0.51637381
2
Properties=species:S:1:pos:R:3:forces:R:3 energy=-5.288170072300041 pbc="F F F"
Ti       0.00000000       0.00000000       0.00000000       0.00000000       0.00000000       0.48088410
Ti       0.00000000       0.00000000       4.41272727       0.00000000       0.00000000      -0.48088410
2
Properties=species:S:1:pos:R:3:forces:R:3 energy=-5.26094698054415 pbc="F F F"
Ti       0.00000000       0.00000000       0.00000000       0.00000000       0.00000000       0.44525024
Ti       0.00000000       0.00000000       4.47151515       0.00000000       0.00000000      -0.44525024
2
Properties=species:S:1:pos:R:3:forces:R:3 energy=-5.2358143679710505 pbc="F F F"
Ti       0.00000000       0.00000000       0.00000000       0.00000000       0.00000000       0.40986001
Ti       0.00000000       0.00000000       4.53030303       0.00000000       0.00000000      -0.40986001
2
Properties=species:S:1:pos:R:3:forces:R:3 energy=-5.212743701468755 pbc="F F F"
Ti       0.00000000       0.00000000       0.00000000       0.00000000       0.00000000       0.37519935
Ti       0.00000000       0.00000000       4.58909091       0.00000000       0.00000000      -0.37519935
2
Properties=species:S:1:pos:R:3:forces:R:3 energy=-5.191676508554617 pbc="F F F"
Ti       0.00000000       0.00000000       0.00000000       0.00000000       0.00000000       0.34176368
Ti       0.00000000       0.00000000       4.64787879       0.00000000       0.00000000      -0.34176368
2
Properties=species:S:1:pos:R:3:forces:R:3 energy=-5.1725281033735815 pbc="F F F"
Ti       0.00000000       0.00000000       0.00000000       0.00000000       0.00000000       0.30995536
Ti       0.00000000       0.00000000       4.70666667       0.00000000       0.00000000      -0.30995536
2
Properties=species:S:1:pos:R:3:forces:R:3 energy=-5.15519576428579 pbc="F F F"
Ti       0.00000000       0.00000000       0.00000000       0.00000000       0.00000000       0.28004104
Ti       0.00000000       0.00000000       4.76545455       0.00000000       0.00000000      -0.28004104
2
Properties=species:S:1:pos:R:3:forces:R:3 energy=-5.139562523221273 pbc="F F F"
Ti       0.00000000       0.00000000       0.00000000       0.00000000       0.00000000       0.25211835
Ti       0.00000000       0.00000000       4.82424242       0.00000000       0.00000000      -0.25211835
2
Properties=species:S:1:pos:R:3:forces:R:3 energy=-5.125514555229033 pbc="F F F"
Ti       0.00000000       0.00000000       0.00000000       0.00000000       0.00000000       0.22616337
Ti       0.00000000       0.00000000       4.88303030       0.00000000       0.00000000      -0.22616337
2
Properties=species:S:1:pos:R:3:forces:R:3 energy=-5.112935260026171 pbc="F F F"
Ti       0.00000000       0.00000000       0.00000000       0.00000000       0.00000000       0.20207667
Ti       0.00000000       0.00000000       4.94181818       0.00000000       0.00000000      -0.20207667
2
Properties=species:S:1:pos:R:3:forces:R:3 energy=-5.101719472077965 pbc="F F F"
Ti       0.00000000       0.00000000       0.00000000       0.00000000       0.00000000       0.17976245
Ti       0.00000000       0.00000000       5.00060606       0.00000000       0.00000000      -0.17976245
2
Properties=species:S:1:pos:R:3:forces:R:3 energy=-5.091765424058275 pbc="F F F"
Ti       0.00000000       0.00000000       0.00000000       0.00000000       0.00000000       0.15916047
Ti       0.00000000       0.00000000       5.05939394       0.00000000       0.00000000      -0.15916047
2
Properties=species:S:1:pos:R:3:forces:R:3 energy=-5.082972541725623 pbc="F F F"
Ti       0.00000000       0.00000000       0.00000000       0.00000000       0.00000000       0.14027309
Ti       0.00000000       0.00000000       5.11818182       0.00000000       0.00000000      -0.14027309
2
Properties=species:S:1:pos:R:3:forces:R:3 energy=-5.075238220104684 pbc="F F F"
Ti       0.00000000       0.00000000       0.00000000       0.00000000       0.00000000       0.12318154
Ti       0.00000000       0.00000000       5.17696970       0.00000000       0.00000000      -0.12318154
2
Properties=species:S:1:pos:R:3:forces:R:3 energy=-5.068451624603231 pbc="F F F"
Ti       0.00000000       0.00000000       0.00000000       0.00000000       0.00000000       0.10804135
Ti       0.00000000       0.00000000       5.23575758       0.00000000       0.00000000      -0.10804135
2
Properties=species:S:1:pos:R:3:forces:R:3 energy=-5.062494164681467 pbc="F F F"
Ti       0.00000000       0.00000000       0.00000000       0.00000000       0.00000000       0.09499516
Ti       0.00000000       0.00000000       5.29454545       0.00000000       0.00000000      -0.09499516
2
Properties=species:S:1:pos:R:3:forces:R:3 energy=-5.057243889924584 pbc="F F F"
Ti       0.00000000       0.00000000       0.00000000       0.00000000       0.00000000       0.08390004
Ti       0.00000000       0.00000000       5.35333333       0.00000000       0.00000000      -0.08390004
2
Properties=species:S:1:pos:R:3:forces:R:3 energy=-5.052603111751895 pbc="F F F"
Ti       0.00000000       0.00000000       0.00000000       0.00000000       0.00000000       0.07414496
Ti       0.00000000       0.00000000       5.41212121       0.00000000       0.00000000      -0.07414496
2
Properties=species:S:1:pos:R:3:forces:R:3 energy=-5.048511461753786 pbc="F F F"
Ti       0.00000000       0.00000000       0.00000000       0.00000000       0.00000000       0.06516401
Ti       0.00000000       0.00000000       5.47090909       0.00000000       0.00000000      -0.06516401
2
Properties=species:S:1:pos:R:3:forces:R:3 energy=-5.044920638329268 pbc="F F F"
Ti       0.00000000       0.00000000       0.00000000       0.00000000       0.00000000       0.05721593
Ti       0.00000000       0.00000000       5.52969697       0.00000000       0.00000000      -0.05721593
2
Properties=species:S:1:pos:R:3:forces:R:3 energy=-5.041763008293445 pbc="F F F"
Ti       0.00000000       0.00000000       0.00000000       0.00000000       0.00000000       0.05032518
Ti       0.00000000       0.00000000       5.58848485       0.00000000       0.00000000      -0.05032518
2
Properties=species:S:1:pos:R:3:forces:R:3 energy=-5.038994254460851 pbc="F F F"
Ti       0.00000000       0.00000000       0.00000000       0.00000000       0.00000000       0.04402439
Ti       0.00000000       0.00000000       5.64727273       0.00000000       0.00000000      -0.04402439
2
Properties=species:S:1:pos:R:3:forces:R:3 energy=-5.036541798036819 pbc="F F F"
Ti       0.00000000       0.00000000       0.00000000       0.00000000       0.00000000       0.04009030
Ti       0.00000000       0.00000000       5.70606061       0.00000000       0.00000000      -0.04009030
2
Properties=species:S:1:pos:R:3:forces:R:3 energy=-5.034171932112728 pbc="F F F"
Ti       0.00000000       0.00000000       0.00000000       0.00000000       0.00000000       0.04142838
Ti       0.00000000       0.00000000       5.76484848       0.00000000       0.00000000      -0.04142838
2
Properties=species:S:1:pos:R:3:forces:R:3 energy=-5.031631597525284 pbc="F F F"
Ti       0.00000000       0.00000000       0.00000000       0.00000000       0.00000000       0.04444072
Ti       0.00000000       0.00000000       5.82363636       0.00000000       0.00000000      -0.04444072
2
Properties=species:S:1:pos:R:3:forces:R:3 energy=-5.029120350272827 pbc="F F F"
Ti       0.00000000       0.00000000       0.00000000       0.00000000       0.00000000       0.03937671
Ti       0.00000000       0.00000000       5.88242424       0.00000000       0.00000000      -0.03937671
2
Properties=species:S:1:pos:R:3:forces:R:3 energy=-5.027115078678262 pbc="F F F"
Ti       0.00000000       0.00000000       0.00000000       0.00000000       0.00000000       0.02877163
Ti       0.00000000       0.00000000       5.94121212       0.00000000       0.00000000      -0.02877163
2
Properties=species:S:1:pos:R:3:forces:R:3 energy=-5.025633318490041 pbc="F F F"
Ti       0.00000000       0.00000000       0.00000000       0.00000000       0.00000000       0.02308579
Ti       0.00000000       0.00000000       6.00000000       0.00000000       0.00000000      -0.02308579
