2
Properties=species:S:1:pos:R:3:forces:R:3 energy=22347.57215461041 pbc="F F F"
As       0.00000000       0.00000000       0.00000000       0.00000000       0.00000000 -501289.93750000
As       0.00000000       0.00000000       0.10000000       0.00000000       0.00000000  501289.93750000
2
Properties=species:S:1:pos:R:3:forces:R:3 energy=7279.474498360409 pbc="F F F"
As       0.00000000       0.00000000       0.00000000       0.00000000       0.00000000 -115483.73437500
As       0.00000000       0.00000000       0.15959596       0.00000000       0.00000000  115483.73437500
2
Properties=species:S:1:pos:R:3:forces:R:3 energy=3222.733775704159 pbc="F F F"
As       0.00000000       0.00000000       0.00000000       0.00000000       0.00000000  -37759.89062500
As       0.00000000       0.00000000       0.21919192       0.00000000       0.00000000   37759.89062500
2
Properties=species:S:1:pos:R:3:forces:R:3 energy=1764.3928333213464 pbc="F F F"
As       0.00000000       0.00000000       0.00000000       0.00000000       0.00000000  -15248.45312500
As       0.00000000       0.00000000       0.27878788       0.00000000       0.00000000   15248.45312500
2
Properties=species:S:1:pos:R:3:forces:R:3 energy=1131.6070667229517 pbc="F F F"
As       0.00000000       0.00000000       0.00000000       0.00000000       0.00000000   -7249.52392578
As       0.00000000       0.00000000       0.33838384       0.00000000       0.00000000    7249.52392578
2
Properties=species:S:1:pos:R:3:forces:R:3 energy=807.9638782558927 pbc="F F F"
As       0.00000000       0.00000000       0.00000000       0.00000000       0.00000000   -4074.34960938
As       0.00000000       0.00000000       0.39797980       0.00000000       0.00000000    4074.34960938
2
Properties=species:S:1:pos:R:3:forces:R:3 energy=611.9776722170443 pbc="F F F"
As       0.00000000       0.00000000       0.00000000       0.00000000       0.00000000   -2667.95483398
As       0.00000000       0.00000000       0.45757576       0.00000000       0.00000000    2667.95483398
2
Properties=species:S:1:pos:R:3:forces:R:3 energy=475.6166798202498 pbc="F F F"
As       0.00000000       0.00000000       0.00000000       0.00000000       0.00000000   -1976.41003418
As       0.00000000       0.00000000       0.51717172       0.00000000       0.00000000    1976.41003418
2
Properties=species:S:1:pos:R:3:forces:R:3 energy=372.964000437079 pbc="F F F"
As       0.00000000       0.00000000       0.00000000       0.00000000       0.00000000   -1474.84436035
As       0.00000000       0.00000000       0.57676768       0.00000000       0.00000000    1474.84436035
2
Properties=species:S:1:pos:R:3:forces:R:3 energy=299.6644399947421 pbc="F F F"
As       0.00000000       0.00000000       0.00000000       0.00000000       0.00000000   -1010.32543945
As       0.00000000       0.00000000       0.63636364       0.00000000       0.00000000    1010.32543945
2
Properties=species:S:1:pos:R:3:forces:R:3 energy=247.46813583817982 pbc="F F F"
As       0.00000000       0.00000000       0.00000000       0.00000000       0.00000000    -799.41723633
As       0.00000000       0.00000000       0.69595960       0.00000000       0.00000000     799.41723633
2
Properties=species:S:1:pos:R:3:forces:R:3 energy=204.40842845000404 pbc="F F F"
As       0.00000000       0.00000000       0.00000000       0.00000000       0.00000000    -648.11468506
As       0.00000000       0.00000000       0.75555556       0.00000000       0.00000000     648.11468506
2
Properties=species:S:1:pos:R:3:forces:R:3 energy=169.494396844553 pbc="F F F"
As       0.00000000       0.00000000       0.00000000       0.00000000       0.00000000    -526.93286133
As       0.00000000       0.00000000       0.81515152       0.00000000       0.00000000     526.93286133
2
Properties=species:S:1:pos:R:3:forces:R:3 energy=141.21691631031683 pbc="F F F"
As       0.00000000       0.00000000       0.00000000       0.00000000       0.00000000    -427.37991333
As       0.00000000       0.00000000       0.87474747       0.00000000       0.00000000     427.37991333
2
Properties=species:S:1:pos:R:3:forces:R:3 energy=117.83160977442155 pbc="F F F"
As       0.00000000       0.00000000       0.00000000       0.00000000       0.00000000    -361.97640991
As       0.00000000       0.00000000       0.93434343       0.00000000       0.00000000     361.97640991
2
Properties=species:S:1:pos:R:3:forces:R:3 energy=97.79358593963386 pbc="F F F"
As       0.00000000       0.00000000       0.00000000       0.00000000       0.00000000    -312.08312988
As       0.00000000       0.00000000       0.99393939       0.00000000       0.00000000     312.08312988
2
Properties=species:S:1:pos:R:3:forces:R:3 energy=80.34677190294157 pbc="F F F"
As       0.00000000       0.00000000       0.00000000       0.00000000       0.00000000    -276.18832397
As       0.00000000       0.00000000       1.05353535       0.00000000       0.00000000     276.18832397
2
Properties=species:S:1:pos:R:3:forces:R:3 energy=64.72735856478124 pbc="F F F"
As       0.00000000       0.00000000       0.00000000       0.00000000       0.00000000    -247.56970215
As       0.00000000       0.00000000       1.11313131       0.00000000       0.00000000     247.56970215
2
Properties=species:S:1:pos:R:3:forces:R:3 energy=50.80772535167647 pbc="F F F"
As       0.00000000       0.00000000       0.00000000       0.00000000       0.00000000    -220.85826111
As       0.00000000       0.00000000       1.17272727       0.00000000       0.00000000     220.85826111
2
Properties=species:S:1:pos:R:3:forces:R:3 energy=38.41045084585847 pbc="F F F"
As       0.00000000       0.00000000       0.00000000       0.00000000       0.00000000    -193.05474854
As       0.00000000       0.00000000       1.23232323       0.00000000       0.00000000     193.05474854
2
Properties=species:S:1:pos:R:3:forces:R:3 energy=28.048718818475304 pbc="F F F"
As       0.00000000       0.00000000       0.00000000       0.00000000       0.00000000    -154.13572693
As       0.00000000       0.00000000       1.29191919       0.00000000       0.00000000     154.13572693
2
Properties=species:S:1:pos:R:3:forces:R:3 energy=19.917136262776907 pbc="F F F"
As       0.00000000       0.00000000       0.00000000       0.00000000       0.00000000    -120.43283081
As       0.00000000       0.00000000       1.35151515       0.00000000       0.00000000     120.43283081
2
Properties=species:S:1:pos:R:3:forces:R:3 energy=13.520602441313326 pbc="F F F"
As       0.00000000       0.00000000       0.00000000       0.00000000       0.00000000     -95.34061432
As       0.00000000       0.00000000       1.41111111       0.00000000       0.00000000      95.34061432
2
Properties=species:S:1:pos:R:3:forces:R:3 energy=8.45228876204631 pbc="F F F"
As       0.00000000       0.00000000       0.00000000       0.00000000       0.00000000     -75.41812897
As       0.00000000       0.00000000       1.47070707       0.00000000       0.00000000      75.41812897
2
Properties=species:S:1:pos:R:3:forces:R:3 energy=4.462553643296067 pbc="F F F"
As       0.00000000       0.00000000       0.00000000       0.00000000       0.00000000     -58.99319839
As       0.00000000       0.00000000       1.53030303       0.00000000       0.00000000      58.99319839
2
Properties=species:S:1:pos:R:3:forces:R:3 energy=1.3628684632851389 pbc="F F F"
As       0.00000000       0.00000000       0.00000000       0.00000000       0.00000000     -45.49131775
As       0.00000000       0.00000000       1.58989899       0.00000000       0.00000000      45.49131775
2
Properties=species:S:1:pos:R:3:forces:R:3 energy=-1.01210226613622 pbc="F F F"
As       0.00000000       0.00000000       0.00000000       0.00000000       0.00000000     -34.62625122
As       0.00000000       0.00000000       1.64949495       0.00000000       0.00000000      34.62625122
2
Properties=species:S:1:pos:R:3:forces:R:3 energy=-2.809999951157115 pbc="F F F"
As       0.00000000       0.00000000       0.00000000       0.00000000       0.00000000     -26.05779076
As       0.00000000       0.00000000       1.70909091       0.00000000       0.00000000      26.05779076
2
Properties=species:S:1:pos:R:3:forces:R:3 energy=-4.154911139004935 pbc="F F F"
As       0.00000000       0.00000000       0.00000000       0.00000000       0.00000000     -19.34916496
As       0.00000000       0.00000000       1.76868687       0.00000000       0.00000000      19.34916496
2
Properties=species:S:1:pos:R:3:forces:R:3 energy=-5.144725360083925 pbc="F F F"
As       0.00000000       0.00000000       0.00000000       0.00000000       0.00000000     -14.07638264
As       0.00000000       0.00000000       1.82828283       0.00000000       0.00000000      14.07638264
2
Properties=species:S:1:pos:R:3:forces:R:3 energy=-5.854457481371504 pbc="F F F"
As       0.00000000       0.00000000       0.00000000       0.00000000       0.00000000      -9.90213013
As       0.00000000       0.00000000       1.88787879       0.00000000       0.00000000       9.90213013
2
Properties=species:S:1:pos:R:3:forces:R:3 energy=-6.342000972479272 pbc="F F F"
As       0.00000000       0.00000000       0.00000000       0.00000000       0.00000000      -6.58731604
As       0.00000000       0.00000000       1.94747475       0.00000000       0.00000000       6.58731604
2
Properties=species:S:1:pos:R:3:forces:R:3 energy=-6.653403625635727 pbc="F F F"
As       0.00000000       0.00000000       0.00000000       0.00000000       0.00000000      -3.96814489
As       0.00000000       0.00000000       2.00707071       0.00000000       0.00000000       3.96814489
2
Properties=species:S:1:pos:R:3:forces:R:3 energy=-6.826398099187291 pbc="F F F"
As       0.00000000       0.00000000       0.00000000       0.00000000       0.00000000      -1.92479610
As       0.00000000       0.00000000       2.06666667       0.00000000       0.00000000       1.92479610
2
Properties=species:S:1:pos:R:3:forces:R:3 energy=-6.892307292358217 pbc="F F F"
As       0.00000000       0.00000000       0.00000000       0.00000000       0.00000000      -0.35925916
As       0.00000000       0.00000000       2.12626263       0.00000000       0.00000000       0.35925916
2
Properties=species:S:1:pos:R:3:forces:R:3 energy=-6.876995708241125 pbc="F F F"
As       0.00000000       0.00000000       0.00000000       0.00000000       0.00000000       0.81450838
As       0.00000000       0.00000000       2.18585859       0.00000000       0.00000000      -0.81450838
2
Properties=species:S:1:pos:R:3:forces:R:3 energy=-6.801458325512617 pbc="F F F"
As       0.00000000       0.00000000       0.00000000       0.00000000       0.00000000       1.67425227
As       0.00000000       0.00000000       2.24545455       0.00000000       0.00000000      -1.67425227
2
Properties=species:S:1:pos:R:3:forces:R:3 energy=-6.682275488410923 pbc="F F F"
As       0.00000000       0.00000000       0.00000000       0.00000000       0.00000000       2.29018831
As       0.00000000       0.00000000       2.30505051       0.00000000       0.00000000      -2.29018831
2
Properties=species:S:1:pos:R:3:forces:R:3 energy=-6.5320993756719234 pbc="F F F"
As       0.00000000       0.00000000       0.00000000       0.00000000       0.00000000       2.72389078
As       0.00000000       0.00000000       2.36464646       0.00000000       0.00000000      -2.72389078
2
Properties=species:S:1:pos:R:3:forces:R:3 energy=-6.3602175555258915 pbc="F F F"
As       0.00000000       0.00000000       0.00000000       0.00000000       0.00000000       3.02588677
As       0.00000000       0.00000000       2.42424242       0.00000000       0.00000000      -3.02588677
2
Properties=species:S:1:pos:R:3:forces:R:3 energy=-6.173308851788787 pbc="F F F"
As       0.00000000       0.00000000       0.00000000       0.00000000       0.00000000       3.23323274
As       0.00000000       0.00000000       2.48383838       0.00000000       0.00000000      -3.23323274
2
Properties=species:S:1:pos:R:3:forces:R:3 energy=-5.9762630015946385 pbc="F F F"
As       0.00000000       0.00000000       0.00000000       0.00000000       0.00000000       3.36862254
As       0.00000000       0.00000000       2.54343434       0.00000000       0.00000000      -3.36862254
2
Properties=species:S:1:pos:R:3:forces:R:3 energy=-5.773021916519853 pbc="F F F"
As       0.00000000       0.00000000       0.00000000       0.00000000       0.00000000       3.44204068
As       0.00000000       0.00000000       2.60303030       0.00000000       0.00000000      -3.44204068
2
Properties=species:S:1:pos:R:3:forces:R:3 energy=-5.567194452393024 pbc="F F F"
As       0.00000000       0.00000000       0.00000000       0.00000000       0.00000000       3.45524812
As       0.00000000       0.00000000       2.66262626       0.00000000       0.00000000      -3.45524812
2
Properties=species:S:1:pos:R:3:forces:R:3 energy=-5.362384970607856 pbc="F F F"
As       0.00000000       0.00000000       0.00000000       0.00000000       0.00000000       3.40809464
As       0.00000000       0.00000000       2.72222222       0.00000000       0.00000000      -3.40809464
2
Properties=species:S:1:pos:R:3:forces:R:3 energy=-5.162114881579756 pbc="F F F"
As       0.00000000       0.00000000       0.00000000       0.00000000       0.00000000       3.30391812
As       0.00000000       0.00000000       2.78181818       0.00000000       0.00000000      -3.30391812
2
Properties=species:S:1:pos:R:3:forces:R:3 energy=-4.969545901476342 pbc="F F F"
As       0.00000000       0.00000000       0.00000000       0.00000000       0.00000000       3.15143657
As       0.00000000       0.00000000       2.84141414       0.00000000       0.00000000      -3.15143657
2
Properties=species:S:1:pos:R:3:forces:R:3 energy=-4.787203548198438 pbc="F F F"
As       0.00000000       0.00000000       0.00000000       0.00000000       0.00000000       2.96296716
As       0.00000000       0.00000000       2.90101010       0.00000000       0.00000000      -2.96296716
2
Properties=species:S:1:pos:R:3:forces:R:3 energy=-4.616845089645023 pbc="F F F"
As       0.00000000       0.00000000       0.00000000       0.00000000       0.00000000       2.75130415
As       0.00000000       0.00000000       2.96060606       0.00000000       0.00000000      -2.75130415
2
Properties=species:S:1:pos:R:3:forces:R:3 energy=-4.4595071979887315 pbc="F F F"
As       0.00000000       0.00000000       0.00000000       0.00000000       0.00000000       2.52768731
As       0.00000000       0.00000000       3.02020202       0.00000000       0.00000000      -2.52768731
2
Properties=species:S:1:pos:R:3:forces:R:3 energy=-4.3156219396880235 pbc="F F F"
As       0.00000000       0.00000000       0.00000000       0.00000000       0.00000000       2.30108428
As       0.00000000       0.00000000       3.07979798       0.00000000       0.00000000      -2.30108428
2
Properties=species:S:1:pos:R:3:forces:R:3 energy=-4.185166713160298 pbc="F F F"
As       0.00000000       0.00000000       0.00000000       0.00000000       0.00000000       2.07790756
As       0.00000000       0.00000000       3.13939394       0.00000000       0.00000000      -2.07790756
2
Properties=species:S:1:pos:R:3:forces:R:3 energy=-4.067799260802978 pbc="F F F"
As       0.00000000       0.00000000       0.00000000       0.00000000       0.00000000       1.86239231
As       0.00000000       0.00000000       3.19898990       0.00000000       0.00000000      -1.86239231
2
Properties=species:S:1:pos:R:3:forces:R:3 energy=-3.962973309942011 pbc="F F F"
As       0.00000000       0.00000000       0.00000000       0.00000000       0.00000000       1.65745831
As       0.00000000       0.00000000       3.25858586       0.00000000       0.00000000      -1.65745831
2
Properties=species:S:1:pos:R:3:forces:R:3 energy=-3.869993775802357 pbc="F F F"
As       0.00000000       0.00000000       0.00000000       0.00000000       0.00000000       1.46509230
As       0.00000000       0.00000000       3.31818182       0.00000000       0.00000000      -1.46509230
2
Properties=species:S:1:pos:R:3:forces:R:3 energy=-3.788074446866755 pbc="F F F"
As       0.00000000       0.00000000       0.00000000       0.00000000       0.00000000       1.28639030
As       0.00000000       0.00000000       3.37777778       0.00000000       0.00000000      -1.28639030
2
Properties=species:S:1:pos:R:3:forces:R:3 energy=-3.716388392533554 pbc="F F F"
As       0.00000000       0.00000000       0.00000000       0.00000000       0.00000000       1.12169266
As       0.00000000       0.00000000       3.43737374       0.00000000       0.00000000      -1.12169266
2
Properties=species:S:1:pos:R:3:forces:R:3 energy=-3.6541027357193805 pbc="F F F"
As       0.00000000       0.00000000       0.00000000       0.00000000       0.00000000       0.97082675
As       0.00000000       0.00000000       3.49696970       0.00000000       0.00000000      -0.97082675
2
Properties=species:S:1:pos:R:3:forces:R:3 energy=-3.6004064161285023 pbc="F F F"
As       0.00000000       0.00000000       0.00000000       0.00000000       0.00000000       0.83337808
As       0.00000000       0.00000000       3.55656566       0.00000000       0.00000000      -0.83337808
2
Properties=species:S:1:pos:R:3:forces:R:3 energy=-3.554513782210773 pbc="F F F"
As       0.00000000       0.00000000       0.00000000       0.00000000       0.00000000       0.70885652
As       0.00000000       0.00000000       3.61616162       0.00000000       0.00000000      -0.70885652
2
Properties=species:S:1:pos:R:3:forces:R:3 energy=-3.515669048926795 pbc="F F F"
As       0.00000000       0.00000000       0.00000000       0.00000000       0.00000000       0.59679568
As       0.00000000       0.00000000       3.67575758       0.00000000       0.00000000      -0.59679568
2
Properties=species:S:1:pos:R:3:forces:R:3 energy=-3.4831420560667326 pbc="F F F"
As       0.00000000       0.00000000       0.00000000       0.00000000       0.00000000       0.49675229
As       0.00000000       0.00000000       3.73535354       0.00000000       0.00000000      -0.49675229
2
Properties=species:S:1:pos:R:3:forces:R:3 energy=-3.456230291976444 pbc="F F F"
As       0.00000000       0.00000000       0.00000000       0.00000000       0.00000000       0.40827236
As       0.00000000       0.00000000       3.79494949       0.00000000       0.00000000      -0.40827236
2
Properties=species:S:1:pos:R:3:forces:R:3 energy=-3.434259707847627 pbc="F F F"
As       0.00000000       0.00000000       0.00000000       0.00000000       0.00000000       0.33083495
As       0.00000000       0.00000000       3.85454545       0.00000000       0.00000000      -0.33083495
2
Properties=species:S:1:pos:R:3:forces:R:3 energy=-3.4165901403245953 pbc="F F F"
As       0.00000000       0.00000000       0.00000000       0.00000000       0.00000000       0.26383466
As       0.00000000       0.00000000       3.91414141       0.00000000       0.00000000      -0.26383466
2
Properties=species:S:1:pos:R:3:forces:R:3 energy=-3.402619187222086 pbc="F F F"
As       0.00000000       0.00000000       0.00000000       0.00000000       0.00000000       0.20657642
As       0.00000000       0.00000000       3.97373737       0.00000000       0.00000000      -0.20657642
2
Properties=species:S:1:pos:R:3:forces:R:3 energy=-3.391789197691784 pbc="F F F"
As       0.00000000       0.00000000       0.00000000       0.00000000       0.00000000       0.15831523
As       0.00000000       0.00000000       4.03333333       0.00000000       0.00000000      -0.15831523
2
Properties=species:S:1:pos:R:3:forces:R:3 energy=-3.3835858552140534 pbc="F F F"
As       0.00000000       0.00000000       0.00000000       0.00000000       0.00000000       0.11827869
As       0.00000000       0.00000000       4.09292929       0.00000000       0.00000000      -0.11827869
2
Properties=species:S:1:pos:R:3:forces:R:3 energy=-3.3775431843880996 pbc="F F F"
As       0.00000000       0.00000000       0.00000000       0.00000000       0.00000000       0.08569413
As       0.00000000       0.00000000       4.15252525       0.00000000       0.00000000      -0.08569413
2
Properties=species:S:1:pos:R:3:forces:R:3 energy=-3.373239064576483 pbc="F F F"
As       0.00000000       0.00000000       0.00000000       0.00000000       0.00000000       0.05979563
As       0.00000000       0.00000000       4.21212121       0.00000000       0.00000000      -0.05979563
2
Properties=species:S:1:pos:R:3:forces:R:3 energy=-3.3702984838179404 pbc="F F F"
As       0.00000000       0.00000000       0.00000000       0.00000000       0.00000000       0.03980687
As       0.00000000       0.00000000       4.27171717       0.00000000       0.00000000      -0.03980687
2
Properties=species:S:1:pos:R:3:forces:R:3 energy=-3.368392715865692 pbc="F F F"
As       0.00000000       0.00000000       0.00000000       0.00000000       0.00000000       0.02493738
As       0.00000000       0.00000000       4.33131313       0.00000000       0.00000000      -0.02493738
2
Properties=species:S:1:pos:R:3:forces:R:3 energy=-3.367240658832077 pbc="F F F"
As       0.00000000       0.00000000       0.00000000       0.00000000       0.00000000       0.01437137
As       0.00000000       0.00000000       4.39090909       0.00000000       0.00000000      -0.01437137
2
Properties=species:S:1:pos:R:3:forces:R:3 energy=-3.36661063324732 pbc="F F F"
As       0.00000000       0.00000000       0.00000000       0.00000000       0.00000000       0.00728713
As       0.00000000       0.00000000       4.45050505       0.00000000       0.00000000      -0.00728713
2
Properties=species:S:1:pos:R:3:forces:R:3 energy=-3.3663189246215692 pbc="F F F"
As       0.00000000       0.00000000       0.00000000       0.00000000       0.00000000       0.00288584
As       0.00000000       0.00000000       4.51010101       0.00000000       0.00000000      -0.00288584
2
Properties=species:S:1:pos:R:3:forces:R:3 energy=-3.3662279814663125 pbc="F F F"
As       0.00000000       0.00000000       0.00000000       0.00000000       0.00000000       0.00042904
As       0.00000000       0.00000000       4.56969697       0.00000000       0.00000000      -0.00042904
2
Properties=species:S:1:pos:R:3:forces:R:3 energy=-3.3662419977990603 pbc="F F F"
As       0.00000000       0.00000000       0.00000000       0.00000000       0.00000000      -0.00072261
As       0.00000000       0.00000000       4.62929293       0.00000000       0.00000000       0.00072261
2
Properties=species:S:1:pos:R:3:forces:R:3 energy=-3.3662986596079265 pbc="F F F"
As       0.00000000       0.00000000       0.00000000       0.00000000       0.00000000      -0.00108887
As       0.00000000       0.00000000       4.68888889       0.00000000       0.00000000       0.00108887
2
Properties=species:S:1:pos:R:3:forces:R:3 energy=-3.3663640136844846 pbc="F F F"
As       0.00000000       0.00000000       0.00000000       0.00000000       0.00000000      -0.00106860
As       0.00000000       0.00000000       4.74848485       0.00000000       0.00000000       0.00106860
2
Properties=species:S:1:pos:R:3:forces:R:3 energy=-3.366424274276972 pbc="F F F"
As       0.00000000       0.00000000       0.00000000       0.00000000       0.00000000      -0.00095416
As       0.00000000       0.00000000       4.80808081       0.00000000       0.00000000       0.00095416
2
Properties=species:S:1:pos:R:3:forces:R:3 energy=-3.3664802467642065 pbc="F F F"
As       0.00000000       0.00000000       0.00000000       0.00000000       0.00000000      -0.00095415
As       0.00000000       0.00000000       4.86767677       0.00000000       0.00000000       0.00095415
2
Properties=species:S:1:pos:R:3:forces:R:3 energy=-3.366543015530322 pbc="F F F"
As       0.00000000       0.00000000       0.00000000       0.00000000       0.00000000      -0.00120200
As       0.00000000       0.00000000       4.92727273       0.00000000       0.00000000       0.00120200
2
Properties=species:S:1:pos:R:3:forces:R:3 energy=-3.3666294520256286 pbc="F F F"
As       0.00000000       0.00000000       0.00000000       0.00000000       0.00000000      -0.00174001
As       0.00000000       0.00000000       4.98686869       0.00000000       0.00000000       0.00174001
2
Properties=species:S:1:pos:R:3:forces:R:3 energy=-3.3667544372364353 pbc="F F F"
As       0.00000000       0.00000000       0.00000000       0.00000000       0.00000000      -0.00247797
As       0.00000000       0.00000000       5.04646465       0.00000000       0.00000000       0.00247797
2
Properties=species:S:1:pos:R:3:forces:R:3 energy=-3.366923698040299 pbc="F F F"
As       0.00000000       0.00000000       0.00000000       0.00000000       0.00000000      -0.00316455
As       0.00000000       0.00000000       5.10606061       0.00000000       0.00000000       0.00316455
2
Properties=species:S:1:pos:R:3:forces:R:3 energy=-3.3671229524090713 pbc="F F F"
As       0.00000000       0.00000000       0.00000000       0.00000000       0.00000000      -0.00340809
As       0.00000000       0.00000000       5.16565657       0.00000000       0.00000000       0.00340809
2
Properties=species:S:1:pos:R:3:forces:R:3 energy=-3.367311955280066 pbc="F F F"
As       0.00000000       0.00000000       0.00000000       0.00000000       0.00000000      -0.00274716
As       0.00000000       0.00000000       5.22525253       0.00000000       0.00000000       0.00274716
2
Properties=species:S:1:pos:R:3:forces:R:3 energy=-3.3674228755594267 pbc="F F F"
As       0.00000000       0.00000000       0.00000000       0.00000000       0.00000000      -0.00071193
As       0.00000000       0.00000000       5.28484848       0.00000000       0.00000000       0.00071193
2
Properties=species:S:1:pos:R:3:forces:R:3 energy=-3.3673634399131647 pbc="F F F"
As       0.00000000       0.00000000       0.00000000       0.00000000       0.00000000       0.00295206
As       0.00000000       0.00000000       5.34444444       0.00000000       0.00000000      -0.00295206
2
Properties=species:S:1:pos:R:3:forces:R:3 energy=-3.3670627471482124 pbc="F F F"
As       0.00000000       0.00000000       0.00000000       0.00000000       0.00000000       0.00688868
As       0.00000000       0.00000000       5.40404040       0.00000000       0.00000000      -0.00688868
2
Properties=species:S:1:pos:R:3:forces:R:3 energy=-3.3666341263169275 pbc="F F F"
As       0.00000000       0.00000000       0.00000000       0.00000000       0.00000000       0.00624663
As       0.00000000       0.00000000       5.46363636       0.00000000       0.00000000      -0.00624663
2
Properties=species:S:1:pos:R:3:forces:R:3 energy=-3.3664578988503053 pbc="F F F"
As       0.00000000       0.00000000       0.00000000       0.00000000       0.00000000      -0.00087660
As       0.00000000       0.00000000       5.52323232       0.00000000       0.00000000       0.00087660
2
Properties=species:S:1:pos:R:3:forces:R:3 energy=-3.366684069872153 pbc="F F F"
As       0.00000000       0.00000000       0.00000000       0.00000000       0.00000000      -0.00556576
As       0.00000000       0.00000000       5.58282828       0.00000000       0.00000000       0.00556576
2
Properties=species:S:1:pos:R:3:forces:R:3 energy=-3.367009157321671 pbc="F F F"
As       0.00000000       0.00000000       0.00000000       0.00000000       0.00000000      -0.00508885
As       0.00000000       0.00000000       5.64242424       0.00000000       0.00000000       0.00508885
2
Properties=species:S:1:pos:R:3:forces:R:3 energy=-3.3673714640876673 pbc="F F F"
As       0.00000000       0.00000000       0.00000000       0.00000000       0.00000000      -0.00855581
As       0.00000000       0.00000000       5.70202020       0.00000000       0.00000000       0.00855581
2
Properties=species:S:1:pos:R:3:forces:R:3 energy=-3.368225500168972 pbc="F F F"
As       0.00000000       0.00000000       0.00000000       0.00000000       0.00000000      -0.02114709
As       0.00000000       0.00000000       5.76161616       0.00000000       0.00000000       0.02114709
2
Properties=species:S:1:pos:R:3:forces:R:3 energy=-3.3697971598654983 pbc="F F F"
As       0.00000000       0.00000000       0.00000000       0.00000000       0.00000000      -0.02889493
As       0.00000000       0.00000000       5.82121212       0.00000000       0.00000000       0.02889493
2
Properties=species:S:1:pos:R:3:forces:R:3 energy=-3.3712836135774045 pbc="F F F"
As       0.00000000       0.00000000       0.00000000       0.00000000       0.00000000      -0.01865274
As       0.00000000       0.00000000       5.88080808       0.00000000       0.00000000       0.01865274
2
Properties=species:S:1:pos:R:3:forces:R:3 energy=-3.3719063975212697 pbc="F F F"
As       0.00000000       0.00000000       0.00000000       0.00000000       0.00000000      -0.00243579
As       0.00000000       0.00000000       5.94040404       0.00000000       0.00000000       0.00243579
2
Properties=species:S:1:pos:R:3:forces:R:3 energy=-3.3717759234576965 pbc="F F F"
As       0.00000000       0.00000000       0.00000000       0.00000000       0.00000000       0.00440468
As       0.00000000       0.00000000       6.00000000       0.00000000       0.00000000      -0.00440468
