2
Properties=species:S:1:pos:R:3:forces:R:3 energy=16093.74070420155 pbc="F F F"
Co       0.00000000       0.00000000       0.00000000       0.00000000       0.00000000 -354125.93750000
Co       0.00000000       0.00000000       0.10000000       0.00000000       0.00000000  354125.93750000
2
Properties=species:S:1:pos:R:3:forces:R:3 energy=5331.909161232798 pbc="F F F"
Co       0.00000000       0.00000000       0.00000000       0.00000000       0.00000000  -83802.08593750
Co       0.00000000       0.00000000       0.15959596       0.00000000       0.00000000   83802.08593750
2
Properties=species:S:1:pos:R:3:forces:R:3 energy=2363.8088194359234 pbc="F F F"
Co       0.00000000       0.00000000       0.00000000       0.00000000       0.00000000  -27920.70117188
Co       0.00000000       0.00000000       0.21919192       0.00000000       0.00000000   27920.70117188
2
Properties=species:S:1:pos:R:3:forces:R:3 energy=1278.8818174859664 pbc="F F F"
Co       0.00000000       0.00000000       0.00000000       0.00000000       0.00000000  -11425.75488281
Co       0.00000000       0.00000000       0.27878788       0.00000000       0.00000000   11425.75488281
2
Properties=species:S:1:pos:R:3:forces:R:3 energy=803.1594053765914 pbc="F F F"
Co       0.00000000       0.00000000       0.00000000       0.00000000       0.00000000   -5463.06640625
Co       0.00000000       0.00000000       0.33838384       0.00000000       0.00000000    5463.06640625
2
Properties=species:S:1:pos:R:3:forces:R:3 energy=559.5116392696458 pbc="F F F"
Co       0.00000000       0.00000000       0.00000000       0.00000000       0.00000000   -3061.63110352
Co       0.00000000       0.00000000       0.39797980       0.00000000       0.00000000    3061.63110352
2
Properties=species:S:1:pos:R:3:forces:R:3 energy=411.06919542832514 pbc="F F F"
Co       0.00000000       0.00000000       0.00000000       0.00000000       0.00000000   -2064.23291016
Co       0.00000000       0.00000000       0.45757576       0.00000000       0.00000000    2064.23291016
2
Properties=species:S:1:pos:R:3:forces:R:3 energy=302.5037047278437 pbc="F F F"
Co       0.00000000       0.00000000       0.00000000       0.00000000       0.00000000   -1631.75573730
Co       0.00000000       0.00000000       0.51717172       0.00000000       0.00000000    1631.75573730
2
Properties=species:S:1:pos:R:3:forces:R:3 energy=213.38665459495908 pbc="F F F"
Co       0.00000000       0.00000000       0.00000000       0.00000000       0.00000000   -1366.75695801
Co       0.00000000       0.00000000       0.57676768       0.00000000       0.00000000    1366.75695801
2
Properties=species:S:1:pos:R:3:forces:R:3 energy=140.11057738147207 pbc="F F F"
Co       0.00000000       0.00000000       0.00000000       0.00000000       0.00000000   -1077.51428223
Co       0.00000000       0.00000000       0.63636364       0.00000000       0.00000000    1077.51428223
2
Properties=species:S:1:pos:R:3:forces:R:3 energy=86.82972420819019 pbc="F F F"
Co       0.00000000       0.00000000       0.00000000       0.00000000       0.00000000    -688.12805176
Co       0.00000000       0.00000000       0.69595960       0.00000000       0.00000000     688.12805176
2
Properties=species:S:1:pos:R:3:forces:R:3 energy=57.06346612049955 pbc="F F F"
Co       0.00000000       0.00000000       0.00000000       0.00000000       0.00000000    -388.80084229
Co       0.00000000       0.00000000       0.75555556       0.00000000       0.00000000     388.80084229
2
Properties=species:S:1:pos:R:3:forces:R:3 energy=36.985078128135775 pbc="F F F"
Co       0.00000000       0.00000000       0.00000000       0.00000000       0.00000000    -277.53457642
Co       0.00000000       0.00000000       0.81515152       0.00000000       0.00000000     277.53457642
2
Properties=species:S:1:pos:R:3:forces:R:3 energy=23.785237905599335 pbc="F F F"
Co       0.00000000       0.00000000       0.00000000       0.00000000       0.00000000    -172.32142639
Co       0.00000000       0.00000000       0.87474747       0.00000000       0.00000000     172.32142639
2
Properties=species:S:1:pos:R:3:forces:R:3 energy=15.76220045447212 pbc="F F F"
Co       0.00000000       0.00000000       0.00000000       0.00000000       0.00000000    -101.83121490
Co       0.00000000       0.00000000       0.93434343       0.00000000       0.00000000     101.83121490
2
Properties=species:S:1:pos:R:3:forces:R:3 energy=11.054478420989334 pbc="F F F"
Co       0.00000000       0.00000000       0.00000000       0.00000000       0.00000000     -60.62502289
Co       0.00000000       0.00000000       0.99393939       0.00000000       0.00000000      60.62502289
2
Properties=species:S:1:pos:R:3:forces:R:3 energy=8.143357917396576 pbc="F F F"
Co       0.00000000       0.00000000       0.00000000       0.00000000       0.00000000     -39.29226685
Co       0.00000000       0.00000000       1.05353535       0.00000000       0.00000000      39.29226685
2
Properties=species:S:1:pos:R:3:forces:R:3 energy=6.173762204523047 pbc="F F F"
Co       0.00000000       0.00000000       0.00000000       0.00000000       0.00000000     -28.19864655
Co       0.00000000       0.00000000       1.11313131       0.00000000       0.00000000      28.19864655
2
Properties=species:S:1:pos:R:3:forces:R:3 energy=4.637189361369183 pbc="F F F"
Co       0.00000000       0.00000000       0.00000000       0.00000000       0.00000000     -24.30583191
Co       0.00000000       0.00000000       1.17272727       0.00000000       0.00000000      24.30583191
2
Properties=species:S:1:pos:R:3:forces:R:3 energy=3.207510981144109 pbc="F F F"
Co       0.00000000       0.00000000       0.00000000       0.00000000       0.00000000     -23.93713188
Co       0.00000000       0.00000000       1.23232323       0.00000000       0.00000000      23.93713188
2
Properties=species:S:1:pos:R:3:forces:R:3 energy=1.773798645595822 pbc="F F F"
Co       0.00000000       0.00000000       0.00000000       0.00000000       0.00000000     -24.17302322
Co       0.00000000       0.00000000       1.29191919       0.00000000       0.00000000      24.17302322
2
Properties=species:S:1:pos:R:3:forces:R:3 energy=0.33271269814204074 pbc="F F F"
Co       0.00000000       0.00000000       0.00000000       0.00000000       0.00000000     -24.06960487
Co       0.00000000       0.00000000       1.35151515       0.00000000       0.00000000      24.06960487
2
Properties=species:S:1:pos:R:3:forces:R:3 energy=-1.0720953889445584 pbc="F F F"
Co       0.00000000       0.00000000       0.00000000       0.00000000       0.00000000     -22.82853508
Co       0.00000000       0.00000000       1.41111111       0.00000000       0.00000000      22.82853508
2
Properties=species:S:1:pos:R:3:forces:R:3 energy=-2.3587453899945956 pbc="F F F"
Co       0.00000000       0.00000000       0.00000000       0.00000000       0.00000000     -20.13334274
Co       0.00000000       0.00000000       1.47070707       0.00000000       0.00000000      20.13334274
2
Properties=species:S:1:pos:R:3:forces:R:3 energy=-3.4529786630776296 pbc="F F F"
Co       0.00000000       0.00000000       0.00000000       0.00000000       0.00000000     -16.49730301
Co       0.00000000       0.00000000       1.53030303       0.00000000       0.00000000      16.49730301
2
Properties=species:S:1:pos:R:3:forces:R:3 energy=-4.322286672542314 pbc="F F F"
Co       0.00000000       0.00000000       0.00000000       0.00000000       0.00000000     -12.71371365
Co       0.00000000       0.00000000       1.58989899       0.00000000       0.00000000      12.71371365
2
Properties=species:S:1:pos:R:3:forces:R:3 energy=-4.9779045778186655 pbc="F F F"
Co       0.00000000       0.00000000       0.00000000       0.00000000       0.00000000      -9.39490700
Co       0.00000000       0.00000000       1.64949495       0.00000000       0.00000000       9.39490700
2
Properties=species:S:1:pos:R:3:forces:R:3 energy=-5.455338070356323 pbc="F F F"
Co       0.00000000       0.00000000       0.00000000       0.00000000       0.00000000      -6.73338175
Co       0.00000000       0.00000000       1.70909091       0.00000000       0.00000000       6.73338175
2
Properties=species:S:1:pos:R:3:forces:R:3 energy=-5.7916432346194515 pbc="F F F"
Co       0.00000000       0.00000000       0.00000000       0.00000000       0.00000000      -4.63378811
Co       0.00000000       0.00000000       1.76868687       0.00000000       0.00000000       4.63378811
2
Properties=species:S:1:pos:R:3:forces:R:3 energy=-6.015989450225686 pbc="F F F"
Co       0.00000000       0.00000000       0.00000000       0.00000000       0.00000000      -2.95619893
Co       0.00000000       0.00000000       1.82828283       0.00000000       0.00000000       2.95619893
2
Properties=species:S:1:pos:R:3:forces:R:3 energy=-6.150544360210368 pbc="F F F"
Co       0.00000000       0.00000000       0.00000000       0.00000000       0.00000000      -1.60963488
Co       0.00000000       0.00000000       1.88787879       0.00000000       0.00000000       1.60963488
2
Properties=species:S:1:pos:R:3:forces:R:3 energy=-6.213489273030037 pbc="F F F"
Co       0.00000000       0.00000000       0.00000000       0.00000000       0.00000000      -0.54770094
Co       0.00000000       0.00000000       1.94747475       0.00000000       0.00000000       0.54770094
2
Properties=species:S:1:pos:R:3:forces:R:3 energy=-6.220919931214432 pbc="F F F"
Co       0.00000000       0.00000000       0.00000000       0.00000000       0.00000000       0.25790417
Co       0.00000000       0.00000000       2.00707071       0.00000000       0.00000000      -0.25790417
2
Properties=species:S:1:pos:R:3:forces:R:3 energy=-6.18726863736589 pbc="F F F"
Co       0.00000000       0.00000000       0.00000000       0.00000000       0.00000000       0.83634388
Co       0.00000000       0.00000000       2.06666667       0.00000000       0.00000000      -0.83634388
2
Properties=species:S:1:pos:R:3:forces:R:3 energy=-6.125028189254158 pbc="F F F"
Co       0.00000000       0.00000000       0.00000000       0.00000000       0.00000000       1.22390997
Co       0.00000000       0.00000000       2.12626263       0.00000000       0.00000000      -1.22390997
2
Properties=species:S:1:pos:R:3:forces:R:3 energy=-6.044369286798755 pbc="F F F"
Co       0.00000000       0.00000000       0.00000000       0.00000000       0.00000000       1.46131516
Co       0.00000000       0.00000000       2.18585859       0.00000000       0.00000000      -1.46131516
2
Properties=species:S:1:pos:R:3:forces:R:3 energy=-5.95308355311236 pbc="F F F"
Co       0.00000000       0.00000000       0.00000000       0.00000000       0.00000000       1.58597457
Co       0.00000000       0.00000000       2.24545455       0.00000000       0.00000000      -1.58597457
2
Properties=species:S:1:pos:R:3:forces:R:3 energy=-5.857037213977129 pbc="F F F"
Co       0.00000000       0.00000000       0.00000000       0.00000000       0.00000000       1.62442565
Co       0.00000000       0.00000000       2.30505051       0.00000000       0.00000000      -1.62442565
2
Properties=species:S:1:pos:R:3:forces:R:3 energy=-5.760854850032908 pbc="F F F"
Co       0.00000000       0.00000000       0.00000000       0.00000000       0.00000000       1.59332776
Co       0.00000000       0.00000000       2.36464646       0.00000000       0.00000000      -1.59332776
2
Properties=species:S:1:pos:R:3:forces:R:3 energy=-5.667887874944809 pbc="F F F"
Co       0.00000000       0.00000000       0.00000000       0.00000000       0.00000000       1.52612948
Co       0.00000000       0.00000000       2.42424242       0.00000000       0.00000000      -1.52612948
2
Properties=species:S:1:pos:R:3:forces:R:3 energy=-5.578091773337715 pbc="F F F"
Co       0.00000000       0.00000000       0.00000000       0.00000000       0.00000000       1.49982285
Co       0.00000000       0.00000000       2.48383838       0.00000000       0.00000000      -1.49982285
2
Properties=species:S:1:pos:R:3:forces:R:3 energy=-5.48800781017047 pbc="F F F"
Co       0.00000000       0.00000000       0.00000000       0.00000000       0.00000000       1.52515364
Co       0.00000000       0.00000000       2.54343434       0.00000000       0.00000000      -1.52515364
2
Properties=species:S:1:pos:R:3:forces:R:3 energy=-5.396895296382305 pbc="F F F"
Co       0.00000000       0.00000000       0.00000000       0.00000000       0.00000000       1.52443004
Co       0.00000000       0.00000000       2.60303030       0.00000000       0.00000000      -1.52443004
2
Properties=species:S:1:pos:R:3:forces:R:3 energy=-5.307156145430806 pbc="F F F"
Co       0.00000000       0.00000000       0.00000000       0.00000000       0.00000000       1.48198521
Co       0.00000000       0.00000000       2.66262626       0.00000000       0.00000000      -1.48198521
2
Properties=species:S:1:pos:R:3:forces:R:3 energy=-5.220629426889405 pbc="F F F"
Co       0.00000000       0.00000000       0.00000000       0.00000000       0.00000000       1.42019022
Co       0.00000000       0.00000000       2.72222222       0.00000000       0.00000000      -1.42019022
2
Properties=species:S:1:pos:R:3:forces:R:3 energy=-5.137965284283029 pbc="F F F"
Co       0.00000000       0.00000000       0.00000000       0.00000000       0.00000000       1.35389221
Co       0.00000000       0.00000000       2.78181818       0.00000000       0.00000000      -1.35389221
2
Properties=species:S:1:pos:R:3:forces:R:3 energy=-5.059223084792251 pbc="F F F"
Co       0.00000000       0.00000000       0.00000000       0.00000000       0.00000000       1.28913713
Co       0.00000000       0.00000000       2.84141414       0.00000000       0.00000000      -1.28913713
2
Properties=species:S:1:pos:R:3:forces:R:3 energy=-4.9842423783838985 pbc="F F F"
Co       0.00000000       0.00000000       0.00000000       0.00000000       0.00000000       1.22779441
Co       0.00000000       0.00000000       2.90101010       0.00000000       0.00000000      -1.22779441
2
Properties=species:S:1:pos:R:3:forces:R:3 energy=-4.9128147379441565 pbc="F F F"
Co       0.00000000       0.00000000       0.00000000       0.00000000       0.00000000       1.16973758
Co       0.00000000       0.00000000       2.96060606       0.00000000       0.00000000      -1.16973758
2
Properties=species:S:1:pos:R:3:forces:R:3 energy=-4.844773064399365 pbc="F F F"
Co       0.00000000       0.00000000       0.00000000       0.00000000       0.00000000       1.11393082
Co       0.00000000       0.00000000       3.02020202       0.00000000       0.00000000      -1.11393082
2
Properties=species:S:1:pos:R:3:forces:R:3 energy=-4.780022195042035 pbc="F F F"
Co       0.00000000       0.00000000       0.00000000       0.00000000       0.00000000       1.05918622
Co       0.00000000       0.00000000       3.07979798       0.00000000       0.00000000      -1.05918622
2
Properties=species:S:1:pos:R:3:forces:R:3 energy=-4.718522994858701 pbc="F F F"
Co       0.00000000       0.00000000       0.00000000       0.00000000       0.00000000       1.00468314
Co       0.00000000       0.00000000       3.13939394       0.00000000       0.00000000      -1.00468314
2
Properties=species:S:1:pos:R:3:forces:R:3 energy=-4.660272378390591 pbc="F F F"
Co       0.00000000       0.00000000       0.00000000       0.00000000       0.00000000       0.95017612
Co       0.00000000       0.00000000       3.19898990       0.00000000       0.00000000      -0.95017612
2
Properties=species:S:1:pos:R:3:forces:R:3 energy=-4.605264055367355 pbc="F F F"
Co       0.00000000       0.00000000       0.00000000       0.00000000       0.00000000       0.89594692
Co       0.00000000       0.00000000       3.25858586       0.00000000       0.00000000      -0.89594692
2
Properties=species:S:1:pos:R:3:forces:R:3 energy=-4.553465324077423 pbc="F F F"
Co       0.00000000       0.00000000       0.00000000       0.00000000       0.00000000       0.84259480
Co       0.00000000       0.00000000       3.31818182       0.00000000       0.00000000      -0.84259480
2
Properties=species:S:1:pos:R:3:forces:R:3 energy=-4.504802899301784 pbc="F F F"
Co       0.00000000       0.00000000       0.00000000       0.00000000       0.00000000       0.79080033
Co       0.00000000       0.00000000       3.37777778       0.00000000       0.00000000      -0.79080033
2
Properties=species:S:1:pos:R:3:forces:R:3 energy=-4.4591662691810345 pbc="F F F"
Co       0.00000000       0.00000000       0.00000000       0.00000000       0.00000000       0.74113542
Co       0.00000000       0.00000000       3.43737374       0.00000000       0.00000000      -0.74113542
2
Properties=species:S:1:pos:R:3:forces:R:3 energy=-4.416415082191582 pbc="F F F"
Co       0.00000000       0.00000000       0.00000000       0.00000000       0.00000000       0.69398576
Co       0.00000000       0.00000000       3.49696970       0.00000000       0.00000000      -0.69398576
2
Properties=species:S:1:pos:R:3:forces:R:3 energy=-4.376394393263423 pbc="F F F"
Co       0.00000000       0.00000000       0.00000000       0.00000000       0.00000000       0.64954585
Co       0.00000000       0.00000000       3.55656566       0.00000000       0.00000000      -0.64954585
2
Properties=species:S:1:pos:R:3:forces:R:3 energy=-4.338940073715637 pbc="F F F"
Co       0.00000000       0.00000000       0.00000000       0.00000000       0.00000000       0.60785520
Co       0.00000000       0.00000000       3.61616162       0.00000000       0.00000000      -0.60785520
2
Properties=species:S:1:pos:R:3:forces:R:3 energy=-4.303889784846663 pbc="F F F"
Co       0.00000000       0.00000000       0.00000000       0.00000000       0.00000000       0.56884795
Co       0.00000000       0.00000000       3.67575758       0.00000000       0.00000000      -0.56884795
2
Properties=species:S:1:pos:R:3:forces:R:3 energy=-4.271087847676198 pbc="F F F"
Co       0.00000000       0.00000000       0.00000000       0.00000000       0.00000000       0.53238815
Co       0.00000000       0.00000000       3.73535354       0.00000000       0.00000000      -0.53238815
2
Properties=species:S:1:pos:R:3:forces:R:3 energy=-4.240386253640306 pbc="F F F"
Co       0.00000000       0.00000000       0.00000000       0.00000000       0.00000000       0.49829319
Co       0.00000000       0.00000000       3.79494949       0.00000000       0.00000000      -0.49829319
2
Properties=species:S:1:pos:R:3:forces:R:3 energy=-4.211652262307731 pbc="F F F"
Co       0.00000000       0.00000000       0.00000000       0.00000000       0.00000000       0.46634671
Co       0.00000000       0.00000000       3.85454545       0.00000000       0.00000000      -0.46634671
2
Properties=species:S:1:pos:R:3:forces:R:3 energy=-4.1847636583508905 pbc="F F F"
Co       0.00000000       0.00000000       0.00000000       0.00000000       0.00000000       0.43631244
Co       0.00000000       0.00000000       3.91414141       0.00000000       0.00000000      -0.43631244
2
Properties=species:S:1:pos:R:3:forces:R:3 energy=-4.159613920726886 pbc="F F F"
Co       0.00000000       0.00000000       0.00000000       0.00000000       0.00000000       0.40795028
Co       0.00000000       0.00000000       3.97373737       0.00000000       0.00000000      -0.40795028
2
Properties=species:S:1:pos:R:3:forces:R:3 energy=-4.136110741480873 pbc="F F F"
Co       0.00000000       0.00000000       0.00000000       0.00000000       0.00000000       0.38103712
Co       0.00000000       0.00000000       4.03333333       0.00000000       0.00000000      -0.38103712
2
Properties=species:S:1:pos:R:3:forces:R:3 energy=-4.114172529494843 pbc="F F F"
Co       0.00000000       0.00000000       0.00000000       0.00000000       0.00000000       0.35537851
Co       0.00000000       0.00000000       4.09292929       0.00000000       0.00000000      -0.35537851
2
Properties=species:S:1:pos:R:3:forces:R:3 energy=-4.093730273486753 pbc="F F F"
Co       0.00000000       0.00000000       0.00000000       0.00000000       0.00000000       0.33082932
Co       0.00000000       0.00000000       4.15252525       0.00000000       0.00000000      -0.33082932
2
Properties=species:S:1:pos:R:3:forces:R:3 energy=-4.07472060652889 pbc="F F F"
Co       0.00000000       0.00000000       0.00000000       0.00000000       0.00000000       0.30730039
Co       0.00000000       0.00000000       4.21212121       0.00000000       0.00000000      -0.30730039
2
Properties=species:S:1:pos:R:3:forces:R:3 energy=-4.057082799305104 pbc="F F F"
Co       0.00000000       0.00000000       0.00000000       0.00000000       0.00000000       0.28475973
Co       0.00000000       0.00000000       4.27171717       0.00000000       0.00000000      -0.28475973
2
Properties=species:S:1:pos:R:3:forces:R:3 energy=-4.040759339150191 pbc="F F F"
Co       0.00000000       0.00000000       0.00000000       0.00000000       0.00000000       0.26322946
Co       0.00000000       0.00000000       4.33131313       0.00000000       0.00000000      -0.26322946
2
Properties=species:S:1:pos:R:3:forces:R:3 energy=-4.025687090387455 pbc="F F F"
Co       0.00000000       0.00000000       0.00000000       0.00000000       0.00000000       0.24276574
Co       0.00000000       0.00000000       4.39090909       0.00000000       0.00000000      -0.24276574
2
Properties=species:S:1:pos:R:3:forces:R:3 energy=-4.011800759733618 pbc="F F F"
Co       0.00000000       0.00000000       0.00000000       0.00000000       0.00000000       0.22343713
Co       0.00000000       0.00000000       4.45050505       0.00000000       0.00000000      -0.22343713
2
Properties=species:S:1:pos:R:3:forces:R:3 energy=-3.999031542646992 pbc="F F F"
Co       0.00000000       0.00000000       0.00000000       0.00000000       0.00000000       0.20529249
Co       0.00000000       0.00000000       4.51010101       0.00000000       0.00000000      -0.20529249
2
Properties=species:S:1:pos:R:3:forces:R:3 energy=-3.987308046155496 pbc="F F F"
Co       0.00000000       0.00000000       0.00000000       0.00000000       0.00000000       0.18832408
Co       0.00000000       0.00000000       4.56969697       0.00000000       0.00000000      -0.18832408
2
Properties=species:S:1:pos:R:3:forces:R:3 energy=-3.976562837032065 pbc="F F F"
Co       0.00000000       0.00000000       0.00000000       0.00000000       0.00000000       0.17245506
Co       0.00000000       0.00000000       4.62929293       0.00000000       0.00000000      -0.17245506
2
Properties=species:S:1:pos:R:3:forces:R:3 energy=-3.9667343436395575 pbc="F F F"
Co       0.00000000       0.00000000       0.00000000       0.00000000       0.00000000       0.15753075
Co       0.00000000       0.00000000       4.68888889       0.00000000       0.00000000      -0.15753075
2
Properties=species:S:1:pos:R:3:forces:R:3 energy=-3.9577716147988693 pbc="F F F"
Co       0.00000000       0.00000000       0.00000000       0.00000000       0.00000000       0.14334829
Co       0.00000000       0.00000000       4.74848485       0.00000000       0.00000000      -0.14334829
2
Properties=species:S:1:pos:R:3:forces:R:3 energy=-3.949637371713131 pbc="F F F"
Co       0.00000000       0.00000000       0.00000000       0.00000000       0.00000000       0.12972616
Co       0.00000000       0.00000000       4.80808081       0.00000000       0.00000000      -0.12972616
2
Properties=species:S:1:pos:R:3:forces:R:3 energy=-3.942299958756818 pbc="F F F"
Co       0.00000000       0.00000000       0.00000000       0.00000000       0.00000000       0.11658446
Co       0.00000000       0.00000000       4.86767677       0.00000000       0.00000000      -0.11658446
2
Properties=species:S:1:pos:R:3:forces:R:3 energy=-3.935729306199014 pbc="F F F"
Co       0.00000000       0.00000000       0.00000000       0.00000000       0.00000000       0.10403685
Co       0.00000000       0.00000000       4.92727273       0.00000000       0.00000000      -0.10403685
2
Properties=species:S:1:pos:R:3:forces:R:3 energy=-3.929881158147237 pbc="F F F"
Co       0.00000000       0.00000000       0.00000000       0.00000000       0.00000000       0.09242424
Co       0.00000000       0.00000000       4.98686869       0.00000000       0.00000000      -0.09242424
2
Properties=species:S:1:pos:R:3:forces:R:3 energy=-3.9246848410919903 pbc="F F F"
Co       0.00000000       0.00000000       0.00000000       0.00000000       0.00000000       0.08226231
Co       0.00000000       0.00000000       5.04646465       0.00000000       0.00000000      -0.08226231
2
Properties=species:S:1:pos:R:3:forces:R:3 energy=-3.92003749592744 pbc="F F F"
Co       0.00000000       0.00000000       0.00000000       0.00000000       0.00000000       0.07405642
Co       0.00000000       0.00000000       5.10606061       0.00000000       0.00000000      -0.07405642
2
Properties=species:S:1:pos:R:3:forces:R:3 energy=-3.9158142546745807 pbc="F F F"
Co       0.00000000       0.00000000       0.00000000       0.00000000       0.00000000       0.06799486
Co       0.00000000       0.00000000       5.16565657       0.00000000       0.00000000      -0.06799486
2
Properties=species:S:1:pos:R:3:forces:R:3 energy=-3.9118990376596243 pbc="F F F"
Co       0.00000000       0.00000000       0.00000000       0.00000000       0.00000000       0.06358062
Co       0.00000000       0.00000000       5.22525253       0.00000000       0.00000000      -0.06358062
2
Properties=species:S:1:pos:R:3:forces:R:3 energy=-3.9082318110778194 pbc="F F F"
Co       0.00000000       0.00000000       0.00000000       0.00000000       0.00000000       0.05936607
Co       0.00000000       0.00000000       5.28484848       0.00000000       0.00000000      -0.05936607
2
Properties=species:S:1:pos:R:3:forces:R:3 energy=-3.904859959445644 pbc="F F F"
Co       0.00000000       0.00000000       0.00000000       0.00000000       0.00000000       0.05335455
Co       0.00000000       0.00000000       5.34444444       0.00000000       0.00000000      -0.05335455
2
Properties=species:S:1:pos:R:3:forces:R:3 energy=-3.9019147217592485 pbc="F F F"
Co       0.00000000       0.00000000       0.00000000       0.00000000       0.00000000       0.04541318
Co       0.00000000       0.00000000       5.40404040       0.00000000       0.00000000      -0.04541318
2
Properties=species:S:1:pos:R:3:forces:R:3 energy=-3.8993857187946284 pbc="F F F"
Co       0.00000000       0.00000000       0.00000000       0.00000000       0.00000000       0.04055033
Co       0.00000000       0.00000000       5.46363636       0.00000000       0.00000000      -0.04055033
2
Properties=species:S:1:pos:R:3:forces:R:3 energy=-3.896944818798463 pbc="F F F"
Co       0.00000000       0.00000000       0.00000000       0.00000000       0.00000000       0.04197269
Co       0.00000000       0.00000000       5.52323232       0.00000000       0.00000000      -0.04197269
2
Properties=species:S:1:pos:R:3:forces:R:3 energy=-3.894436387859283 pbc="F F F"
Co       0.00000000       0.00000000       0.00000000       0.00000000       0.00000000       0.04103465
Co       0.00000000       0.00000000       5.58282828       0.00000000       0.00000000      -0.04103465
2
Properties=species:S:1:pos:R:3:forces:R:3 energy=-3.8921762668056608 pbc="F F F"
Co       0.00000000       0.00000000       0.00000000       0.00000000       0.00000000       0.03440516
Co       0.00000000       0.00000000       5.64242424       0.00000000       0.00000000      -0.03440516
2
Properties=species:S:1:pos:R:3:forces:R:3 energy=-3.8902647423119956 pbc="F F F"
Co       0.00000000       0.00000000       0.00000000       0.00000000       0.00000000       0.03140982
Co       0.00000000       0.00000000       5.70202020       0.00000000       0.00000000      -0.03140982
2
Properties=species:S:1:pos:R:3:forces:R:3 energy=-3.8881585903007596 pbc="F F F"
Co       0.00000000       0.00000000       0.00000000       0.00000000       0.00000000       0.04124354
Co       0.00000000       0.00000000       5.76161616       0.00000000       0.00000000      -0.04124354
2
Properties=species:S:1:pos:R:3:forces:R:3 energy=-3.885367744534097 pbc="F F F"
Co       0.00000000       0.00000000       0.00000000       0.00000000       0.00000000       0.04977349
Co       0.00000000       0.00000000       5.82121212       0.00000000       0.00000000      -0.04977349
2
Properties=species:S:1:pos:R:3:forces:R:3 energy=-3.8826653279235646 pbc="F F F"
Co       0.00000000       0.00000000       0.00000000       0.00000000       0.00000000       0.03800039
Co       0.00000000       0.00000000       5.88080808       0.00000000       0.00000000      -0.03800039
2
Properties=species:S:1:pos:R:3:forces:R:3 energy=-3.8809944890897508 pbc="F F F"
Co       0.00000000       0.00000000       0.00000000       0.00000000       0.00000000       0.01813417
Co       0.00000000       0.00000000       5.94040404       0.00000000       0.00000000      -0.01813417
2
Properties=species:S:1:pos:R:3:forces:R:3 energy=-3.880270388600069 pbc="F F F"
Co       0.00000000       0.00000000       0.00000000       0.00000000       0.00000000       0.00903741
Co       0.00000000       0.00000000       6.00000000       0.00000000       0.00000000      -0.00903741
