2
Properties=species:S:1:pos:R:3:forces:R:3 energy=60193.79451535015 pbc="F F F"
Er       0.00000000       0.00000000       0.00000000       0.00000000       0.00000000 -1706101.12500000
Er       0.00000000       0.00000000       0.10000000       0.00000000       0.00000000 1706101.12500000
2
Properties=species:S:1:pos:R:3:forces:R:3 energy=10980.573812225146 pbc="F F F"
Er       0.00000000       0.00000000       0.00000000       0.00000000       0.00000000 -355020.21875000
Er       0.00000000       0.00000000       0.15959596       0.00000000       0.00000000  355020.21875000
2
Properties=species:S:1:pos:R:3:forces:R:3 energy=-1064.136392852979 pbc="F F F"
Er       0.00000000       0.00000000       0.00000000       0.00000000       0.00000000 -106198.70312500
Er       0.00000000       0.00000000       0.21919192       0.00000000       0.00000000  106198.70312500
2
Properties=species:S:1:pos:R:3:forces:R:3 energy=-4943.809000274854 pbc="F F F"
Er       0.00000000       0.00000000       0.00000000       0.00000000       0.00000000  -36533.43359375
Er       0.00000000       0.00000000       0.27878788       0.00000000       0.00000000   36533.43359375
2
Properties=species:S:1:pos:R:3:forces:R:3 energy=-6231.161051056104 pbc="F F F"
Er       0.00000000       0.00000000       0.00000000       0.00000000       0.00000000  -10210.06738281
Er       0.00000000       0.00000000       0.33838384       0.00000000       0.00000000   10210.06738281
2
Properties=species:S:1:pos:R:3:forces:R:3 energy=-6405.229410431104 pbc="F F F"
Er       0.00000000       0.00000000       0.00000000       0.00000000       0.00000000    3233.89428711
Er       0.00000000       0.00000000       0.39797980       0.00000000       0.00000000   -3233.89428711
2
Properties=species:S:1:pos:R:3:forces:R:3 energy=-5929.832437762183 pbc="F F F"
Er       0.00000000       0.00000000       0.00000000       0.00000000       0.00000000   12254.32812500
Er       0.00000000       0.00000000       0.45757576       0.00000000       0.00000000  -12254.32812500
2
Properties=species:S:1:pos:R:3:forces:R:3 energy=-4992.220133062011 pbc="F F F"
Er       0.00000000       0.00000000       0.00000000       0.00000000       0.00000000   18799.62500000
Er       0.00000000       0.00000000       0.51717172       0.00000000       0.00000000  -18799.62500000
2
Properties=species:S:1:pos:R:3:forces:R:3 energy=-3748.216715067919 pbc="F F F"
Er       0.00000000       0.00000000       0.00000000       0.00000000       0.00000000   22351.18945312
Er       0.00000000       0.00000000       0.57676768       0.00000000       0.00000000  -22351.18945312
2
Properties=species:S:1:pos:R:3:forces:R:3 energy=-2409.698648623655 pbc="F F F"
Er       0.00000000       0.00000000       0.00000000       0.00000000       0.00000000   21833.29492188
Er       0.00000000       0.00000000       0.63636364       0.00000000       0.00000000  -21833.29492188
2
Properties=species:S:1:pos:R:3:forces:R:3 energy=-1228.8086338991898 pbc="F F F"
Er       0.00000000       0.00000000       0.00000000       0.00000000       0.00000000   17211.56054688
Er       0.00000000       0.00000000       0.69595960       0.00000000       0.00000000  -17211.56054688
2
Properties=species:S:1:pos:R:3:forces:R:3 energy=-411.3787021698657 pbc="F F F"
Er       0.00000000       0.00000000       0.00000000       0.00000000       0.00000000   10494.18945312
Er       0.00000000       0.00000000       0.75555556       0.00000000       0.00000000  -10494.18945312
2
Properties=species:S:1:pos:R:3:forces:R:3 energy=20.853523400280583 pbc="F F F"
Er       0.00000000       0.00000000       0.00000000       0.00000000       0.00000000    4546.17480469
Er       0.00000000       0.00000000       0.81515152       0.00000000       0.00000000   -4546.17480469
2
Properties=species:S:1:pos:R:3:forces:R:3 energy=182.91992795834386 pbc="F F F"
Er       0.00000000       0.00000000       0.00000000       0.00000000       0.00000000     851.04882812
Er       0.00000000       0.00000000       0.87474747       0.00000000       0.00000000    -851.04882812
2
Properties=species:S:1:pos:R:3:forces:R:3 energy=174.19023771069698 pbc="F F F"
Er       0.00000000       0.00000000       0.00000000       0.00000000       0.00000000    -508.01773071
Er       0.00000000       0.00000000       0.93434343       0.00000000       0.00000000     508.01773071
2
Properties=species:S:1:pos:R:3:forces:R:3 energy=145.51134409855203 pbc="F F F"
Er       0.00000000       0.00000000       0.00000000       0.00000000       0.00000000    -452.34683228
Er       0.00000000       0.00000000       0.99393939       0.00000000       0.00000000     452.34683228
2
Properties=species:S:1:pos:R:3:forces:R:3 energy=119.67069983233424 pbc="F F F"
Er       0.00000000       0.00000000       0.00000000       0.00000000       0.00000000    -395.87231445
Er       0.00000000       0.00000000       1.05353535       0.00000000       0.00000000     395.87231445
2
Properties=species:S:1:pos:R:3:forces:R:3 energy=98.01371055401331 pbc="F F F"
Er       0.00000000       0.00000000       0.00000000       0.00000000       0.00000000    -351.74282837
Er       0.00000000       0.00000000       1.11313131       0.00000000       0.00000000     351.74282837
2
Properties=species:S:1:pos:R:3:forces:R:3 energy=79.64144289095859 pbc="F F F"
Er       0.00000000       0.00000000       0.00000000       0.00000000       0.00000000    -267.30810547
Er       0.00000000       0.00000000       1.17272727       0.00000000       0.00000000     267.30810547
2
Properties=species:S:1:pos:R:3:forces:R:3 energy=65.6031141306476 pbc="F F F"
Er       0.00000000       0.00000000       0.00000000       0.00000000       0.00000000    -209.25094604
Er       0.00000000       0.00000000       1.23232323       0.00000000       0.00000000     209.25094604
2
Properties=species:S:1:pos:R:3:forces:R:3 energy=54.19918897923503 pbc="F F F"
Er       0.00000000       0.00000000       0.00000000       0.00000000       0.00000000    -175.82597351
Er       0.00000000       0.00000000       1.29191919       0.00000000       0.00000000     175.82597351
2
Properties=species:S:1:pos:R:3:forces:R:3 energy=44.52142240073613 pbc="F F F"
Er       0.00000000       0.00000000       0.00000000       0.00000000       0.00000000    -149.26814270
Er       0.00000000       0.00000000       1.35151515       0.00000000       0.00000000     149.26814270
2
Properties=species:S:1:pos:R:3:forces:R:3 energy=36.36551462044853 pbc="F F F"
Er       0.00000000       0.00000000       0.00000000       0.00000000       0.00000000    -125.11469269
Er       0.00000000       0.00000000       1.41111111       0.00000000       0.00000000     125.11469269
2
Properties=species:S:1:pos:R:3:forces:R:3 energy=29.49450815167985 pbc="F F F"
Er       0.00000000       0.00000000       0.00000000       0.00000000       0.00000000    -106.46126556
Er       0.00000000       0.00000000       1.47070707       0.00000000       0.00000000     106.46126556
2
Properties=species:S:1:pos:R:3:forces:R:3 energy=23.604144812599223 pbc="F F F"
Er       0.00000000       0.00000000       0.00000000       0.00000000       0.00000000     -91.28419495
Er       0.00000000       0.00000000       1.53030303       0.00000000       0.00000000      91.28419495
2
Properties=species:S:1:pos:R:3:forces:R:3 energy=18.651177494347863 pbc="F F F"
Er       0.00000000       0.00000000       0.00000000       0.00000000       0.00000000     -74.55401611
Er       0.00000000       0.00000000       1.58989899       0.00000000       0.00000000      74.55401611
2
Properties=species:S:1:pos:R:3:forces:R:3 energy=14.720529177522437 pbc="F F F"
Er       0.00000000       0.00000000       0.00000000       0.00000000       0.00000000     -57.79626083
Er       0.00000000       0.00000000       1.64949495       0.00000000       0.00000000      57.79626083
2
Properties=species:S:1:pos:R:3:forces:R:3 energy=11.67088936035878 pbc="F F F"
Er       0.00000000       0.00000000       0.00000000       0.00000000       0.00000000     -45.45137787
Er       0.00000000       0.00000000       1.70909091       0.00000000       0.00000000      45.45137787
2
Properties=species:S:1:pos:R:3:forces:R:3 energy=9.208005862638913 pbc="F F F"
Er       0.00000000       0.00000000       0.00000000       0.00000000       0.00000000     -37.80806351
Er       0.00000000       0.00000000       1.76868687       0.00000000       0.00000000      37.80806351
2
Properties=species:S:1:pos:R:3:forces:R:3 energy=7.116814889021518 pbc="F F F"
Er       0.00000000       0.00000000       0.00000000       0.00000000       0.00000000     -32.59829712
Er       0.00000000       0.00000000       1.82828283       0.00000000       0.00000000      32.59829712
2
Properties=species:S:1:pos:R:3:forces:R:3 energy=5.308575415784713 pbc="F F F"
Er       0.00000000       0.00000000       0.00000000       0.00000000       0.00000000     -28.12767410
Er       0.00000000       0.00000000       1.88787879       0.00000000       0.00000000      28.12767410
2
Properties=species:S:1:pos:R:3:forces:R:3 energy=3.76320217384301 pbc="F F F"
Er       0.00000000       0.00000000       0.00000000       0.00000000       0.00000000     -23.72805405
Er       0.00000000       0.00000000       1.94747475       0.00000000       0.00000000      23.72805405
2
Properties=species:S:1:pos:R:3:forces:R:3 energy=2.480286630129331 pbc="F F F"
Er       0.00000000       0.00000000       0.00000000       0.00000000       0.00000000     -19.34210968
Er       0.00000000       0.00000000       2.00707071       0.00000000       0.00000000      19.34210968
2
Properties=species:S:1:pos:R:3:forces:R:3 energy=1.453138675286875 pbc="F F F"
Er       0.00000000       0.00000000       0.00000000       0.00000000       0.00000000     -15.19139576
Er       0.00000000       0.00000000       2.06666667       0.00000000       0.00000000      15.19139576
2
Properties=species:S:1:pos:R:3:forces:R:3 energy=0.6594110983978828 pbc="F F F"
Er       0.00000000       0.00000000       0.00000000       0.00000000       0.00000000     -11.55064011
Er       0.00000000       0.00000000       2.12626263       0.00000000       0.00000000      11.55064011
2
Properties=species:S:1:pos:R:3:forces:R:3 energy=0.06226046346837201 pbc="F F F"
Er       0.00000000       0.00000000       0.00000000       0.00000000       0.00000000      -8.61635685
Er       0.00000000       0.00000000       2.18585859       0.00000000       0.00000000       8.61635685
2
Properties=species:S:1:pos:R:3:forces:R:3 energy=-0.38287444925534725 pbc="F F F"
Er       0.00000000       0.00000000       0.00000000       0.00000000       0.00000000      -6.44771433
Er       0.00000000       0.00000000       2.24545455       0.00000000       0.00000000       6.44771433
2
Properties=species:S:1:pos:R:3:forces:R:3 energy=-0.7204222443600315 pbc="F F F"
Er       0.00000000       0.00000000       0.00000000       0.00000000       0.00000000      -4.98965979
Er       0.00000000       0.00000000       2.30505051       0.00000000       0.00000000       4.98965979
2
Properties=species:S:1:pos:R:3:forces:R:3 energy=-0.9891075153987897 pbc="F F F"
Er       0.00000000       0.00000000       0.00000000       0.00000000       0.00000000      -4.10853291
Er       0.00000000       0.00000000       2.36464646       0.00000000       0.00000000       4.10853291
2
Properties=species:S:1:pos:R:3:forces:R:3 energy=-1.2177173489681792 pbc="F F F"
Er       0.00000000       0.00000000       0.00000000       0.00000000       0.00000000      -3.60906696
Er       0.00000000       0.00000000       2.42424242       0.00000000       0.00000000       3.60906696
2
Properties=species:S:1:pos:R:3:forces:R:3 energy=-1.4227406604531507 pbc="F F F"
Er       0.00000000       0.00000000       0.00000000       0.00000000       0.00000000      -3.28609586
Er       0.00000000       0.00000000       2.48383838       0.00000000       0.00000000       3.28609586
2
Properties=species:S:1:pos:R:3:forces:R:3 energy=-1.6099374545672471 pbc="F F F"
Er       0.00000000       0.00000000       0.00000000       0.00000000       0.00000000      -2.99348736
Er       0.00000000       0.00000000       2.54343434       0.00000000       0.00000000       2.99348736
2
Properties=species:S:1:pos:R:3:forces:R:3 energy=-1.778835295552362 pbc="F F F"
Er       0.00000000       0.00000000       0.00000000       0.00000000       0.00000000      -2.66739917
Er       0.00000000       0.00000000       2.60303030       0.00000000       0.00000000       2.66739917
2
Properties=species:S:1:pos:R:3:forces:R:3 energy=-1.9270773073760554 pbc="F F F"
Er       0.00000000       0.00000000       0.00000000       0.00000000       0.00000000      -2.30211926
Er       0.00000000       0.00000000       2.66262626       0.00000000       0.00000000       2.30211926
2
Properties=species:S:1:pos:R:3:forces:R:3 energy=-2.0528253598129536 pbc="F F F"
Er       0.00000000       0.00000000       0.00000000       0.00000000       0.00000000      -1.91646659
Er       0.00000000       0.00000000       2.72222222       0.00000000       0.00000000       1.91646659
2
Properties=species:S:1:pos:R:3:forces:R:3 energy=-2.1555395094649867 pbc="F F F"
Er       0.00000000       0.00000000       0.00000000       0.00000000       0.00000000      -1.53245509
Er       0.00000000       0.00000000       2.78181818       0.00000000       0.00000000       1.53245509
2
Properties=species:S:1:pos:R:3:forces:R:3 energy=-2.235844652419748 pbc="F F F"
Er       0.00000000       0.00000000       0.00000000       0.00000000       0.00000000      -1.16649711
Er       0.00000000       0.00000000       2.84141414       0.00000000       0.00000000       1.16649711
2
Properties=species:S:1:pos:R:3:forces:R:3 energy=-2.2951185702878636 pbc="F F F"
Er       0.00000000       0.00000000       0.00000000       0.00000000       0.00000000      -0.82758653
Er       0.00000000       0.00000000       2.90101010       0.00000000       0.00000000       0.82758653
2
Properties=species:S:1:pos:R:3:forces:R:3 energy=-2.3350884062619786 pbc="F F F"
Er       0.00000000       0.00000000       0.00000000       0.00000000       0.00000000      -0.51883644
Er       0.00000000       0.00000000       2.96060606       0.00000000       0.00000000       0.51883644
2
Properties=species:S:1:pos:R:3:forces:R:3 energy=-2.357561968369878 pbc="F F F"
Er       0.00000000       0.00000000       0.00000000       0.00000000       0.00000000      -0.24039581
Er       0.00000000       0.00000000       3.02020202       0.00000000       0.00000000       0.24039581
2
Properties=species:S:1:pos:R:3:forces:R:3 energy=-2.3643353384515295 pbc="F F F"
Er       0.00000000       0.00000000       0.00000000       0.00000000       0.00000000       0.00807432
Er       0.00000000       0.00000000       3.07979798       0.00000000       0.00000000      -0.00807432
2
Properties=species:S:1:pos:R:3:forces:R:3 energy=-2.3571988843004825 pbc="F F F"
Er       0.00000000       0.00000000       0.00000000       0.00000000       0.00000000       0.22637801
Er       0.00000000       0.00000000       3.13939394       0.00000000       0.00000000      -0.22637801
2
Properties=species:S:1:pos:R:3:forces:R:3 energy=-2.337960951802219 pbc="F F F"
Er       0.00000000       0.00000000       0.00000000       0.00000000       0.00000000       0.41411242
Er       0.00000000       0.00000000       3.19898990       0.00000000       0.00000000      -0.41411242
2
Properties=species:S:1:pos:R:3:forces:R:3 energy=-2.3084442853277958 pbc="F F F"
Er       0.00000000       0.00000000       0.00000000       0.00000000       0.00000000       0.57148659
Er       0.00000000       0.00000000       3.25858586       0.00000000       0.00000000      -0.57148659
2
Properties=species:S:1:pos:R:3:forces:R:3 energy=-2.270422155553086 pbc="F F F"
Er       0.00000000       0.00000000       0.00000000       0.00000000       0.00000000       0.69982547
Er       0.00000000       0.00000000       3.31818182       0.00000000       0.00000000      -0.69982547
2
Properties=species:S:1:pos:R:3:forces:R:3 energy=-2.225559091275219 pbc="F F F"
Er       0.00000000       0.00000000       0.00000000       0.00000000       0.00000000       0.80157340
Er       0.00000000       0.00000000       3.37777778       0.00000000       0.00000000      -0.80157340
2
Properties=species:S:1:pos:R:3:forces:R:3 energy=-2.175345702441467 pbc="F F F"
Er       0.00000000       0.00000000       0.00000000       0.00000000       0.00000000       0.87991703
Er       0.00000000       0.00000000       3.43737374       0.00000000       0.00000000      -0.87991703
2
Properties=species:S:1:pos:R:3:forces:R:3 energy=-2.121076411514653 pbc="F F F"
Er       0.00000000       0.00000000       0.00000000       0.00000000       0.00000000       0.93824840
Er       0.00000000       0.00000000       3.49696970       0.00000000       0.00000000      -0.93824840
2
Properties=species:S:1:pos:R:3:forces:R:3 energy=-2.0638494271388104 pbc="F F F"
Er       0.00000000       0.00000000       0.00000000       0.00000000       0.00000000       0.97965401
Er       0.00000000       0.00000000       3.55656566       0.00000000       0.00000000      -0.97965401
2
Properties=species:S:1:pos:R:3:forces:R:3 energy=-2.0045971913531475 pbc="F F F"
Er       0.00000000       0.00000000       0.00000000       0.00000000       0.00000000       1.00657940
Er       0.00000000       0.00000000       3.61616162       0.00000000       0.00000000      -1.00657940
2
Properties=species:S:1:pos:R:3:forces:R:3 energy=-1.9441279681310275 pbc="F F F"
Er       0.00000000       0.00000000       0.00000000       0.00000000       0.00000000       1.02073944
Er       0.00000000       0.00000000       3.67575758       0.00000000       0.00000000      -1.02073944
2
Properties=species:S:1:pos:R:3:forces:R:3 energy=-1.883163654563476 pbc="F F F"
Er       0.00000000       0.00000000       0.00000000       0.00000000       0.00000000       1.02331579
Er       0.00000000       0.00000000       3.73535354       0.00000000       0.00000000      -1.02331579
2
Properties=species:S:1:pos:R:3:forces:R:3 energy=-1.8223655790870423 pbc="F F F"
Er       0.00000000       0.00000000       0.00000000       0.00000000       0.00000000       1.01534867
Er       0.00000000       0.00000000       3.79494949       0.00000000       0.00000000      -1.01534867
2
Properties=species:S:1:pos:R:3:forces:R:3 energy=-1.7623265172931877 pbc="F F F"
Er       0.00000000       0.00000000       0.00000000       0.00000000       0.00000000       0.99809974
Er       0.00000000       0.00000000       3.85454545       0.00000000       0.00000000      -0.99809974
2
Properties=species:S:1:pos:R:3:forces:R:3 energy=-1.7035515637570626 pbc="F F F"
Er       0.00000000       0.00000000       0.00000000       0.00000000       0.00000000       0.97325414
Er       0.00000000       0.00000000       3.91414141       0.00000000       0.00000000      -0.97325414
2
Properties=species:S:1:pos:R:3:forces:R:3 energy=-1.646433266813193 pbc="F F F"
Er       0.00000000       0.00000000       0.00000000       0.00000000       0.00000000       0.94281977
Er       0.00000000       0.00000000       3.97373737       0.00000000       0.00000000      -0.94281977
2
Properties=species:S:1:pos:R:3:forces:R:3 energy=-1.5912446153822817 pbc="F F F"
Er       0.00000000       0.00000000       0.00000000       0.00000000       0.00000000       0.90886790
Er       0.00000000       0.00000000       4.03333333       0.00000000       0.00000000      -0.90886790
2
Properties=species:S:1:pos:R:3:forces:R:3 energy=-1.5381368678614196 pbc="F F F"
Er       0.00000000       0.00000000       0.00000000       0.00000000       0.00000000       0.87323153
Er       0.00000000       0.00000000       4.09292929       0.00000000       0.00000000      -0.87323153
2
Properties=species:S:1:pos:R:3:forces:R:3 energy=-1.487167234021838 pbc="F F F"
Er       0.00000000       0.00000000       0.00000000       0.00000000       0.00000000       0.83733159
Er       0.00000000       0.00000000       4.15252525       0.00000000       0.00000000      -0.83733159
2
Properties=species:S:1:pos:R:3:forces:R:3 energy=-1.4383200954304016 pbc="F F F"
Er       0.00000000       0.00000000       0.00000000       0.00000000       0.00000000       0.80213767
Er       0.00000000       0.00000000       4.21212121       0.00000000       0.00000000      -0.80213767
2
Properties=species:S:1:pos:R:3:forces:R:3 energy=-1.3915330552632206 pbc="F F F"
Er       0.00000000       0.00000000       0.00000000       0.00000000       0.00000000       0.76822942
Er       0.00000000       0.00000000       4.27171717       0.00000000       0.00000000      -0.76822942
2
Properties=species:S:1:pos:R:3:forces:R:3 energy=-1.3467216221321845 pbc="F F F"
Er       0.00000000       0.00000000       0.00000000       0.00000000       0.00000000       0.73590720
Er       0.00000000       0.00000000       4.33131313       0.00000000       0.00000000      -0.73590720
2
Properties=species:S:1:pos:R:3:forces:R:3 energy=-1.3037852022276613 pbc="F F F"
Er       0.00000000       0.00000000       0.00000000       0.00000000       0.00000000       0.70527452
Er       0.00000000       0.00000000       4.39090909       0.00000000       0.00000000      -0.70527452
2
Properties=species:S:1:pos:R:3:forces:R:3 energy=-1.262624642090994 pbc="F F F"
Er       0.00000000       0.00000000       0.00000000       0.00000000       0.00000000       0.67631221
Er       0.00000000       0.00000000       4.45050505       0.00000000       0.00000000      -0.67631221
2
Properties=species:S:1:pos:R:3:forces:R:3 energy=-1.223143641286994 pbc="F F F"
Er       0.00000000       0.00000000       0.00000000       0.00000000       0.00000000       0.64891851
Er       0.00000000       0.00000000       4.51010101       0.00000000       0.00000000      -0.64891851
2
Properties=species:S:1:pos:R:3:forces:R:3 energy=-1.1852507282767109 pbc="F F F"
Er       0.00000000       0.00000000       0.00000000       0.00000000       0.00000000       0.62292433
Er       0.00000000       0.00000000       4.56969697       0.00000000       0.00000000      -0.62292433
2
Properties=species:S:1:pos:R:3:forces:R:3 energy=-1.1488724189567423 pbc="F F F"
Er       0.00000000       0.00000000       0.00000000       0.00000000       0.00000000       0.59808606
Er       0.00000000       0.00000000       4.62929293       0.00000000       0.00000000      -0.59808606
2
Properties=species:S:1:pos:R:3:forces:R:3 energy=-1.113947682346763 pbc="F F F"
Er       0.00000000       0.00000000       0.00000000       0.00000000       0.00000000       0.57409561
Er       0.00000000       0.00000000       4.68888889       0.00000000       0.00000000      -0.57409561
2
Properties=species:S:1:pos:R:3:forces:R:3 energy=-1.0804353885862739 pbc="F F F"
Er       0.00000000       0.00000000       0.00000000       0.00000000       0.00000000       0.55057478
Er       0.00000000       0.00000000       4.74848485       0.00000000       0.00000000      -0.55057478
2
Properties=species:S:1:pos:R:3:forces:R:3 energy=-1.0483226941825832 pbc="F F F"
Er       0.00000000       0.00000000       0.00000000       0.00000000       0.00000000       0.52711672
Er       0.00000000       0.00000000       4.80808081       0.00000000       0.00000000      -0.52711672
2
Properties=species:S:1:pos:R:3:forces:R:3 energy=-1.0176121965019105 pbc="F F F"
Er       0.00000000       0.00000000       0.00000000       0.00000000       0.00000000       0.50341833
Er       0.00000000       0.00000000       4.86767677       0.00000000       0.00000000      -0.50341833
2
Properties=species:S:1:pos:R:3:forces:R:3 energy=-0.9883244993529576 pbc="F F F"
Er       0.00000000       0.00000000       0.00000000       0.00000000       0.00000000       0.47940746
Er       0.00000000       0.00000000       4.92727273       0.00000000       0.00000000      -0.47940746
2
Properties=species:S:1:pos:R:3:forces:R:3 energy=-0.9604705716868679 pbc="F F F"
Er       0.00000000       0.00000000       0.00000000       0.00000000       0.00000000       0.45540529
Er       0.00000000       0.00000000       4.98686869       0.00000000       0.00000000      -0.45540529
2
Properties=species:S:1:pos:R:3:forces:R:3 energy=-0.9340316176503787 pbc="F F F"
Er       0.00000000       0.00000000       0.00000000       0.00000000       0.00000000       0.43216559
Er       0.00000000       0.00000000       5.04646465       0.00000000       0.00000000      -0.43216559
2
Properties=species:S:1:pos:R:3:forces:R:3 energy=-0.9089277665562757 pbc="F F F"
Er       0.00000000       0.00000000       0.00000000       0.00000000       0.00000000       0.41064698
Er       0.00000000       0.00000000       5.10606061       0.00000000       0.00000000      -0.41064698
2
Properties=species:S:1:pos:R:3:forces:R:3 energy=-0.8850351489061741 pbc="F F F"
Er       0.00000000       0.00000000       0.00000000       0.00000000       0.00000000       0.39145049
Er       0.00000000       0.00000000       5.16565657       0.00000000       0.00000000      -0.39145049
2
Properties=species:S:1:pos:R:3:forces:R:3 energy=-0.8622331337794494 pbc="F F F"
Er       0.00000000       0.00000000       0.00000000       0.00000000       0.00000000       0.37392434
Er       0.00000000       0.00000000       5.22525253       0.00000000       0.00000000      -0.37392434
2
Properties=species:S:1:pos:R:3:forces:R:3 energy=-0.8404910360003481 pbc="F F F"
Er       0.00000000       0.00000000       0.00000000       0.00000000       0.00000000       0.35519779
Er       0.00000000       0.00000000       5.28484848       0.00000000       0.00000000      -0.35519779
2
Properties=species:S:1:pos:R:3:forces:R:3 energy=-0.8200030964837776 pbc="F F F"
Er       0.00000000       0.00000000       0.00000000       0.00000000       0.00000000       0.33126011
Er       0.00000000       0.00000000       5.34444444       0.00000000       0.00000000      -0.33126011
2
Properties=species:S:1:pos:R:3:forces:R:3 energy=-0.8010854704019419 pbc="F F F"
Er       0.00000000       0.00000000       0.00000000       0.00000000       0.00000000       0.30384120
Er       0.00000000       0.00000000       5.40404040       0.00000000       0.00000000      -0.30384120
2
Properties=species:S:1:pos:R:3:forces:R:3 energy=-0.7835869730822463 pbc="F F F"
Er       0.00000000       0.00000000       0.00000000       0.00000000       0.00000000       0.28597170
Er       0.00000000       0.00000000       5.46363636       0.00000000       0.00000000      -0.28597170
2
Properties=species:S:1:pos:R:3:forces:R:3 energy=-0.7667680713230088 pbc="F F F"
Er       0.00000000       0.00000000       0.00000000       0.00000000       0.00000000       0.27873421
Er       0.00000000       0.00000000       5.52323232       0.00000000       0.00000000      -0.27873421
2
Properties=species:S:1:pos:R:3:forces:R:3 energy=-0.7506381694518423 pbc="F F F"
Er       0.00000000       0.00000000       0.00000000       0.00000000       0.00000000       0.25908101
Er       0.00000000       0.00000000       5.58282828       0.00000000       0.00000000      -0.25908101
2
Properties=species:S:1:pos:R:3:forces:R:3 energy=-0.7361831976983876 pbc="F F F"
Er       0.00000000       0.00000000       0.00000000       0.00000000       0.00000000       0.22559126
Er       0.00000000       0.00000000       5.64242424       0.00000000       0.00000000      -0.22559126
2
Properties=species:S:1:pos:R:3:forces:R:3 energy=-0.723464860670139 pbc="F F F"
Er       0.00000000       0.00000000       0.00000000       0.00000000       0.00000000       0.20614417
Er       0.00000000       0.00000000       5.70202020       0.00000000       0.00000000      -0.20614417
2
Properties=species:S:1:pos:R:3:forces:R:3 energy=-0.710908068991846 pbc="F F F"
Er       0.00000000       0.00000000       0.00000000       0.00000000       0.00000000       0.21947230
Er       0.00000000       0.00000000       5.76161616       0.00000000       0.00000000      -0.21947230
2
Properties=species:S:1:pos:R:3:forces:R:3 energy=-0.6976093384986439 pbc="F F F"
Er       0.00000000       0.00000000       0.00000000       0.00000000       0.00000000       0.21727732
Er       0.00000000       0.00000000       5.82121212       0.00000000       0.00000000      -0.21727732
2
Properties=species:S:1:pos:R:3:forces:R:3 energy=-0.6863932352247128 pbc="F F F"
Er       0.00000000       0.00000000       0.00000000       0.00000000       0.00000000       0.15116614
Er       0.00000000       0.00000000       5.88080808       0.00000000       0.00000000      -0.15116614
2
Properties=species:S:1:pos:R:3:forces:R:3 energy=-0.6799178004100566 pbc="F F F"
Er       0.00000000       0.00000000       0.00000000       0.00000000       0.00000000       0.06780086
Er       0.00000000       0.00000000       5.94040404       0.00000000       0.00000000      -0.06780086
2
Properties=species:S:1:pos:R:3:forces:R:3 energy=-0.6772892298407053 pbc="F F F"
Er       0.00000000       0.00000000       0.00000000       0.00000000       0.00000000       0.03216203
Er       0.00000000       0.00000000       6.00000000       0.00000000       0.00000000      -0.03216203
