2
Properties=species:S:1:pos:R:3:forces:R:3 energy=22680.987535061726 pbc="F F F"
Ge       0.00000000       0.00000000       0.00000000       0.00000000       0.00000000 -475381.06250000
Ge       0.00000000       0.00000000       0.10000000       0.00000000       0.00000000  475381.06250000
2
Properties=species:S:1:pos:R:3:forces:R:3 energy=8366.150620999226 pbc="F F F"
Ge       0.00000000       0.00000000       0.00000000       0.00000000       0.00000000 -110019.00000000
Ge       0.00000000       0.00000000       0.15959596       0.00000000       0.00000000  110019.00000000
2
Properties=species:S:1:pos:R:3:forces:R:3 energy=4492.492906155476 pbc="F F F"
Ge       0.00000000       0.00000000       0.00000000       0.00000000       0.00000000  -36219.19921875
Ge       0.00000000       0.00000000       0.21919192       0.00000000       0.00000000   36219.19921875
2
Properties=species:S:1:pos:R:3:forces:R:3 energy=3082.084947171101 pbc="F F F"
Ge       0.00000000       0.00000000       0.00000000       0.00000000       0.00000000  -15041.15039062
Ge       0.00000000       0.00000000       0.27878788       0.00000000       0.00000000   15041.15039062
2
Properties=species:S:1:pos:R:3:forces:R:3 energy=2418.005601467976 pbc="F F F"
Ge       0.00000000       0.00000000       0.00000000       0.00000000       0.00000000   -8263.35253906
Ge       0.00000000       0.00000000       0.33838384       0.00000000       0.00000000    8263.35253906
2
Properties=species:S:1:pos:R:3:forces:R:3 energy=2006.7628036259166 pbc="F F F"
Ge       0.00000000       0.00000000       0.00000000       0.00000000       0.00000000   -5995.28222656
Ge       0.00000000       0.00000000       0.39797980       0.00000000       0.00000000    5995.28222656
2
Properties=species:S:1:pos:R:3:forces:R:3 energy=1670.2637801979201 pbc="F F F"
Ge       0.00000000       0.00000000       0.00000000       0.00000000       0.00000000   -5442.54736328
Ge       0.00000000       0.00000000       0.45757576       0.00000000       0.00000000    5442.54736328
2
Properties=species:S:1:pos:R:3:forces:R:3 energy=1351.1686874498253 pbc="F F F"
Ge       0.00000000       0.00000000       0.00000000       0.00000000       0.00000000   -5259.75341797
Ge       0.00000000       0.00000000       0.51717172       0.00000000       0.00000000    5259.75341797
2
Properties=species:S:1:pos:R:3:forces:R:3 energy=1047.9518906255103 pbc="F F F"
Ge       0.00000000       0.00000000       0.00000000       0.00000000       0.00000000   -4863.35302734
Ge       0.00000000       0.00000000       0.57676768       0.00000000       0.00000000    4863.35302734
2
Properties=species:S:1:pos:R:3:forces:R:3 energy=774.6854722445069 pbc="F F F"
Ge       0.00000000       0.00000000       0.00000000       0.00000000       0.00000000   -4304.35986328
Ge       0.00000000       0.00000000       0.63636364       0.00000000       0.00000000    4304.35986328
2
Properties=species:S:1:pos:R:3:forces:R:3 energy=546.0221422930947 pbc="F F F"
Ge       0.00000000       0.00000000       0.00000000       0.00000000       0.00000000   -3445.38281250
Ge       0.00000000       0.00000000       0.69595960       0.00000000       0.00000000    3445.38281250
2
Properties=species:S:1:pos:R:3:forces:R:3 energy=370.42762954371096 pbc="F F F"
Ge       0.00000000       0.00000000       0.00000000       0.00000000       0.00000000   -2438.48974609
Ge       0.00000000       0.00000000       0.75555556       0.00000000       0.00000000    2438.48974609
2
Properties=species:S:1:pos:R:3:forces:R:3 energy=249.44775616842054 pbc="F F F"
Ge       0.00000000       0.00000000       0.00000000       0.00000000       0.00000000   -1663.84887695
Ge       0.00000000       0.00000000       0.81515152       0.00000000       0.00000000    1663.84887695
2
Properties=species:S:1:pos:R:3:forces:R:3 energy=168.26375084610055 pbc="F F F"
Ge       0.00000000       0.00000000       0.00000000       0.00000000       0.00000000   -1095.37731934
Ge       0.00000000       0.00000000       0.87474747       0.00000000       0.00000000    1095.37731934
2
Properties=species:S:1:pos:R:3:forces:R:3 energy=115.28615132815577 pbc="F F F"
Ge       0.00000000       0.00000000       0.00000000       0.00000000       0.00000000    -713.74865723
Ge       0.00000000       0.00000000       0.93434343       0.00000000       0.00000000     713.74865723
2
Properties=species:S:1:pos:R:3:forces:R:3 energy=80.49863840304025 pbc="F F F"
Ge       0.00000000       0.00000000       0.00000000       0.00000000       0.00000000    -470.97467041
Ge       0.00000000       0.00000000       0.99393939       0.00000000       0.00000000     470.97467041
2
Properties=species:S:1:pos:R:3:forces:R:3 energy=57.438065921225856 pbc="F F F"
Ge       0.00000000       0.00000000       0.00000000       0.00000000       0.00000000    -314.86953735
Ge       0.00000000       0.00000000       1.05353535       0.00000000       0.00000000     314.86953735
2
Properties=species:S:1:pos:R:3:forces:R:3 energy=41.939406343499925 pbc="F F F"
Ge       0.00000000       0.00000000       0.00000000       0.00000000       0.00000000    -211.41398621
Ge       0.00000000       0.00000000       1.11313131       0.00000000       0.00000000     211.41398621
2
Properties=species:S:1:pos:R:3:forces:R:3 energy=31.555111858635104 pbc="F F F"
Ge       0.00000000       0.00000000       0.00000000       0.00000000       0.00000000    -142.72373962
Ge       0.00000000       0.00000000       1.17272727       0.00000000       0.00000000     142.72373962
2
Properties=species:S:1:pos:R:3:forces:R:3 energy=24.344129183834426 pbc="F F F"
Ge       0.00000000       0.00000000       0.00000000       0.00000000       0.00000000    -103.05279541
Ge       0.00000000       0.00000000       1.23232323       0.00000000       0.00000000     103.05279541
2
Properties=species:S:1:pos:R:3:forces:R:3 energy=18.958342531125908 pbc="F F F"
Ge       0.00000000       0.00000000       0.00000000       0.00000000       0.00000000     -79.40911865
Ge       0.00000000       0.00000000       1.29191919       0.00000000       0.00000000      79.40911865
2
Properties=species:S:1:pos:R:3:forces:R:3 energy=14.722701329762671 pbc="F F F"
Ge       0.00000000       0.00000000       0.00000000       0.00000000       0.00000000     -63.87779236
Ge       0.00000000       0.00000000       1.35151515       0.00000000       0.00000000      63.87779236
2
Properties=species:S:1:pos:R:3:forces:R:3 energy=11.230645812989922 pbc="F F F"
Ge       0.00000000       0.00000000       0.00000000       0.00000000       0.00000000     -53.97424698
Ge       0.00000000       0.00000000       1.41111111       0.00000000       0.00000000      53.97424698
2
Properties=species:S:1:pos:R:3:forces:R:3 energy=8.24647654892972 pbc="F F F"
Ge       0.00000000       0.00000000       0.00000000       0.00000000       0.00000000     -46.32981110
Ge       0.00000000       0.00000000       1.47070707       0.00000000       0.00000000      46.32981110
2
Properties=species:S:1:pos:R:3:forces:R:3 energy=5.696084694547298 pbc="F F F"
Ge       0.00000000       0.00000000       0.00000000       0.00000000       0.00000000     -39.36755753
Ge       0.00000000       0.00000000       1.53030303       0.00000000       0.00000000      39.36755753
2
Properties=species:S:1:pos:R:3:forces:R:3 energy=3.538215776111805 pbc="F F F"
Ge       0.00000000       0.00000000       0.00000000       0.00000000       0.00000000     -33.19921494
Ge       0.00000000       0.00000000       1.58989899       0.00000000       0.00000000      33.19921494
2
Properties=species:S:1:pos:R:3:forces:R:3 energy=1.722129884240174 pbc="F F F"
Ge       0.00000000       0.00000000       0.00000000       0.00000000       0.00000000     -27.86628532
Ge       0.00000000       0.00000000       1.64949495       0.00000000       0.00000000      27.86628532
2
Properties=species:S:1:pos:R:3:forces:R:3 energy=0.2062743374120789 pbc="F F F"
Ge       0.00000000       0.00000000       0.00000000       0.00000000       0.00000000     -23.06621361
Ge       0.00000000       0.00000000       1.70909091       0.00000000       0.00000000      23.06621361
2
Properties=species:S:1:pos:R:3:forces:R:3 energy=-1.0332020761240335 pbc="F F F"
Ge       0.00000000       0.00000000       0.00000000       0.00000000       0.00000000     -18.58126259
Ge       0.00000000       0.00000000       1.76868687       0.00000000       0.00000000      18.58126259
2
Properties=species:S:1:pos:R:3:forces:R:3 energy=-2.0161621670801058 pbc="F F F"
Ge       0.00000000       0.00000000       0.00000000       0.00000000       0.00000000     -14.48716640
Ge       0.00000000       0.00000000       1.82828283       0.00000000       0.00000000      14.48716640
2
Properties=species:S:1:pos:R:3:forces:R:3 energy=-2.7713404987333408 pbc="F F F"
Ge       0.00000000       0.00000000       0.00000000       0.00000000       0.00000000     -10.96207619
Ge       0.00000000       0.00000000       1.88787879       0.00000000       0.00000000      10.96207619
2
Properties=species:S:1:pos:R:3:forces:R:3 energy=-3.3357416532785926 pbc="F F F"
Ge       0.00000000       0.00000000       0.00000000       0.00000000       0.00000000      -8.08659077
Ge       0.00000000       0.00000000       1.94747475       0.00000000       0.00000000       8.08659077
2
Properties=species:S:1:pos:R:3:forces:R:3 energy=-3.7473193129246094 pbc="F F F"
Ge       0.00000000       0.00000000       0.00000000       0.00000000       0.00000000      -5.81913805
Ge       0.00000000       0.00000000       2.00707071       0.00000000       0.00000000       5.81913805
2
Properties=species:S:1:pos:R:3:forces:R:3 energy=-4.039309299358785 pbc="F F F"
Ge       0.00000000       0.00000000       0.00000000       0.00000000       0.00000000      -4.05347586
Ge       0.00000000       0.00000000       2.06666667       0.00000000       0.00000000       4.05347586
2
Properties=species:S:1:pos:R:3:forces:R:3 energy=-4.238100573863386 pbc="F F F"
Ge       0.00000000       0.00000000       0.00000000       0.00000000       0.00000000      -2.67315173
Ge       0.00000000       0.00000000       2.12626263       0.00000000       0.00000000       2.67315173
2
Properties=species:S:1:pos:R:3:forces:R:3 energy=-4.3636273558507 pbc="F F F"
Ge       0.00000000       0.00000000       0.00000000       0.00000000       0.00000000      -1.58078253
Ge       0.00000000       0.00000000       2.18585859       0.00000000       0.00000000       1.58078253
2
Properties=species:S:1:pos:R:3:forces:R:3 energy=-4.430825888891746 pbc="F F F"
Ge       0.00000000       0.00000000       0.00000000       0.00000000       0.00000000      -0.70604932
Ge       0.00000000       0.00000000       2.24545455       0.00000000       0.00000000       0.70604932
2
Properties=species:S:1:pos:R:3:forces:R:3 energy=-4.451157340558237 pbc="F F F"
Ge       0.00000000       0.00000000       0.00000000       0.00000000       0.00000000      -0.00162676
Ge       0.00000000       0.00000000       2.30505051       0.00000000       0.00000000       0.00162676
2
Properties=species:S:1:pos:R:3:forces:R:3 energy=-4.433755475770551 pbc="F F F"
Ge       0.00000000       0.00000000       0.00000000       0.00000000       0.00000000       0.56480676
Ge       0.00000000       0.00000000       2.36464646       0.00000000       0.00000000      -0.56480676
2
Properties=species:S:1:pos:R:3:forces:R:3 energy=-4.386092514707729 pbc="F F F"
Ge       0.00000000       0.00000000       0.00000000       0.00000000       0.00000000       1.01759684
Ge       0.00000000       0.00000000       2.42424242       0.00000000       0.00000000      -1.01759684
2
Properties=species:S:1:pos:R:3:forces:R:3 energy=-4.314322479240126 pbc="F F F"
Ge       0.00000000       0.00000000       0.00000000       0.00000000       0.00000000       1.37683725
Ge       0.00000000       0.00000000       2.48383838       0.00000000       0.00000000      -1.37683725
2
Properties=species:S:1:pos:R:3:forces:R:3 energy=-4.223512311407631 pbc="F F F"
Ge       0.00000000       0.00000000       0.00000000       0.00000000       0.00000000       1.65900624
Ge       0.00000000       0.00000000       2.54343434       0.00000000       0.00000000      -1.65900624
2
Properties=species:S:1:pos:R:3:forces:R:3 energy=-4.117865835853001 pbc="F F F"
Ge       0.00000000       0.00000000       0.00000000       0.00000000       0.00000000       1.87645757
Ge       0.00000000       0.00000000       2.60303030       0.00000000       0.00000000      -1.87645757
2
Properties=species:S:1:pos:R:3:forces:R:3 energy=-4.0009751169055585 pbc="F F F"
Ge       0.00000000       0.00000000       0.00000000       0.00000000       0.00000000       2.03731418
Ge       0.00000000       0.00000000       2.66262626       0.00000000       0.00000000      -2.03731418
2
Properties=species:S:1:pos:R:3:forces:R:3 energy=-3.8760578506914096 pbc="F F F"
Ge       0.00000000       0.00000000       0.00000000       0.00000000       0.00000000       2.14655042
Ge       0.00000000       0.00000000       2.72222222       0.00000000       0.00000000      -2.14655042
2
Properties=species:S:1:pos:R:3:forces:R:3 energy=-3.7460741914214855 pbc="F F F"
Ge       0.00000000       0.00000000       0.00000000       0.00000000       0.00000000       2.20798111
Ge       0.00000000       0.00000000       2.78181818       0.00000000       0.00000000      -2.20798111
2
Properties=species:S:1:pos:R:3:forces:R:3 energy=-3.6137374156507143 pbc="F F F"
Ge       0.00000000       0.00000000       0.00000000       0.00000000       0.00000000       2.22660470
Ge       0.00000000       0.00000000       2.84141414       0.00000000       0.00000000      -2.22660470
2
Properties=species:S:1:pos:R:3:forces:R:3 energy=-3.4813837207949847 pbc="F F F"
Ge       0.00000000       0.00000000       0.00000000       0.00000000       0.00000000       2.20994592
Ge       0.00000000       0.00000000       2.90101010       0.00000000       0.00000000      -2.20994592
2
Properties=species:S:1:pos:R:3:forces:R:3 energy=-3.350868208931325 pbc="F F F"
Ge       0.00000000       0.00000000       0.00000000       0.00000000       0.00000000       2.16612506
Ge       0.00000000       0.00000000       2.96060606       0.00000000       0.00000000      -2.16612506
2
Properties=species:S:1:pos:R:3:forces:R:3 energy=-3.22362116105463 pbc="F F F"
Ge       0.00000000       0.00000000       0.00000000       0.00000000       0.00000000       2.10097003
Ge       0.00000000       0.00000000       3.02020202       0.00000000       0.00000000      -2.10097003
2
Properties=species:S:1:pos:R:3:forces:R:3 energy=-3.100783784625015 pbc="F F F"
Ge       0.00000000       0.00000000       0.00000000       0.00000000       0.00000000       2.01894498
Ge       0.00000000       0.00000000       3.07979798       0.00000000       0.00000000      -2.01894498
2
Properties=species:S:1:pos:R:3:forces:R:3 energy=-2.983218819305692 pbc="F F F"
Ge       0.00000000       0.00000000       0.00000000       0.00000000       0.00000000       1.92485321
Ge       0.00000000       0.00000000       3.13939394       0.00000000       0.00000000      -1.92485321
2
Properties=species:S:1:pos:R:3:forces:R:3 energy=-2.8715025027161225 pbc="F F F"
Ge       0.00000000       0.00000000       0.00000000       0.00000000       0.00000000       1.82341111
Ge       0.00000000       0.00000000       3.19898990       0.00000000       0.00000000      -1.82341111
2
Properties=species:S:1:pos:R:3:forces:R:3 energy=-2.76595371038556 pbc="F F F"
Ge       0.00000000       0.00000000       0.00000000       0.00000000       0.00000000       1.71839738
Ge       0.00000000       0.00000000       3.25858586       0.00000000       0.00000000      -1.71839738
2
Properties=species:S:1:pos:R:3:forces:R:3 energy=-2.6667011260508735 pbc="F F F"
Ge       0.00000000       0.00000000       0.00000000       0.00000000       0.00000000       1.61247444
Ge       0.00000000       0.00000000       3.31818182       0.00000000       0.00000000      -1.61247444
2
Properties=species:S:1:pos:R:3:forces:R:3 energy=-2.5737439473919674 pbc="F F F"
Ge       0.00000000       0.00000000       0.00000000       0.00000000       0.00000000       1.50735307
Ge       0.00000000       0.00000000       3.37777778       0.00000000       0.00000000      -1.50735307
2
Properties=species:S:1:pos:R:3:forces:R:3 energy=-2.4869983823591792 pbc="F F F"
Ge       0.00000000       0.00000000       0.00000000       0.00000000       0.00000000       1.40412235
Ge       0.00000000       0.00000000       3.43737374       0.00000000       0.00000000      -1.40412235
2
Properties=species:S:1:pos:R:3:forces:R:3 energy=-2.4063309202609213 pbc="F F F"
Ge       0.00000000       0.00000000       0.00000000       0.00000000       0.00000000       1.30350959
Ge       0.00000000       0.00000000       3.49696970       0.00000000       0.00000000      -1.30350959
2
Properties=species:S:1:pos:R:3:forces:R:3 energy=-2.3315677248032296 pbc="F F F"
Ge       0.00000000       0.00000000       0.00000000       0.00000000       0.00000000       1.20604587
Ge       0.00000000       0.00000000       3.55656566       0.00000000       0.00000000      -1.20604587
2
Properties=species:S:1:pos:R:3:forces:R:3 energy=-2.262508546906782 pbc="F F F"
Ge       0.00000000       0.00000000       0.00000000       0.00000000       0.00000000       1.11218095
Ge       0.00000000       0.00000000       3.61616162       0.00000000       0.00000000      -1.11218095
2
Properties=species:S:1:pos:R:3:forces:R:3 energy=-2.1989254794330955 pbc="F F F"
Ge       0.00000000       0.00000000       0.00000000       0.00000000       0.00000000       1.02232015
Ge       0.00000000       0.00000000       3.67575758       0.00000000       0.00000000      -1.02232015
2
Properties=species:S:1:pos:R:3:forces:R:3 energy=-2.1405700478894394 pbc="F F F"
Ge       0.00000000       0.00000000       0.00000000       0.00000000       0.00000000       0.93680078
Ge       0.00000000       0.00000000       3.73535354       0.00000000       0.00000000      -0.93680078
2
Properties=species:S:1:pos:R:3:forces:R:3 energy=-2.0871744650462603 pbc="F F F"
Ge       0.00000000       0.00000000       0.00000000       0.00000000       0.00000000       0.85588998
Ge       0.00000000       0.00000000       3.79494949       0.00000000       0.00000000      -0.85588998
2
Properties=species:S:1:pos:R:3:forces:R:3 energy=-2.038459857546108 pbc="F F F"
Ge       0.00000000       0.00000000       0.00000000       0.00000000       0.00000000       0.77974957
Ge       0.00000000       0.00000000       3.85454545       0.00000000       0.00000000      -0.77974957
2
Properties=species:S:1:pos:R:3:forces:R:3 energy=-1.9941391871152103 pbc="F F F"
Ge       0.00000000       0.00000000       0.00000000       0.00000000       0.00000000       0.70843625
Ge       0.00000000       0.00000000       3.91414141       0.00000000       0.00000000      -0.70843625
2
Properties=species:S:1:pos:R:3:forces:R:3 energy=-1.9539242629047506 pbc="F F F"
Ge       0.00000000       0.00000000       0.00000000       0.00000000       0.00000000       0.64192367
Ge       0.00000000       0.00000000       3.97373737       0.00000000       0.00000000      -0.64192367
2
Properties=species:S:1:pos:R:3:forces:R:3 energy=-1.9175326144479743 pbc="F F F"
Ge       0.00000000       0.00000000       0.00000000       0.00000000       0.00000000       0.58013797
Ge       0.00000000       0.00000000       4.03333333       0.00000000       0.00000000      -0.58013797
2
Properties=species:S:1:pos:R:3:forces:R:3 energy=-1.8846843795473731 pbc="F F F"
Ge       0.00000000       0.00000000       0.00000000       0.00000000       0.00000000       0.52299327
Ge       0.00000000       0.00000000       4.09292929       0.00000000       0.00000000      -0.52299327
2
Properties=species:S:1:pos:R:3:forces:R:3 energy=-1.85510510194119 pbc="F F F"
Ge       0.00000000       0.00000000       0.00000000       0.00000000       0.00000000       0.47042593
Ge       0.00000000       0.00000000       4.15252525       0.00000000       0.00000000      -0.47042593
2
Properties=species:S:1:pos:R:3:forces:R:3 energy=-1.828523503172832 pbc="F F F"
Ge       0.00000000       0.00000000       0.00000000       0.00000000       0.00000000       0.42240536
Ge       0.00000000       0.00000000       4.21212121       0.00000000       0.00000000      -0.42240536
2
Properties=species:S:1:pos:R:3:forces:R:3 energy=-1.804667459985295 pbc="F F F"
Ge       0.00000000       0.00000000       0.00000000       0.00000000       0.00000000       0.37893355
Ge       0.00000000       0.00000000       4.27171717       0.00000000       0.00000000      -0.37893355
2
Properties=species:S:1:pos:R:3:forces:R:3 energy=-1.7832670118958494 pbc="F F F"
Ge       0.00000000       0.00000000       0.00000000       0.00000000       0.00000000       0.34001049
Ge       0.00000000       0.00000000       4.33131313       0.00000000       0.00000000      -0.34001049
2
Properties=species:S:1:pos:R:3:forces:R:3 energy=-1.7640513639567392 pbc="F F F"
Ge       0.00000000       0.00000000       0.00000000       0.00000000       0.00000000       0.30559874
Ge       0.00000000       0.00000000       4.39090909       0.00000000       0.00000000      -0.30559874
2
Properties=species:S:1:pos:R:3:forces:R:3 energy=-1.746754642479171 pbc="F F F"
Ge       0.00000000       0.00000000       0.00000000       0.00000000       0.00000000       0.27557865
Ge       0.00000000       0.00000000       4.45050505       0.00000000       0.00000000      -0.27557865
2
Properties=species:S:1:pos:R:3:forces:R:3 energy=-1.7311220083851733 pbc="F F F"
Ge       0.00000000       0.00000000       0.00000000       0.00000000       0.00000000       0.24971546
Ge       0.00000000       0.00000000       4.51010101       0.00000000       0.00000000      -0.24971546
2
Properties=species:S:1:pos:R:3:forces:R:3 energy=-1.7169154307705676 pbc="F F F"
Ge       0.00000000       0.00000000       0.00000000       0.00000000       0.00000000       0.22762619
Ge       0.00000000       0.00000000       4.56969697       0.00000000       0.00000000      -0.22762619
2
Properties=species:S:1:pos:R:3:forces:R:3 energy=-1.7039261385240574 pbc="F F F"
Ge       0.00000000       0.00000000       0.00000000       0.00000000       0.00000000       0.20877862
Ge       0.00000000       0.00000000       4.62929293       0.00000000       0.00000000      -0.20877862
2
Properties=species:S:1:pos:R:3:forces:R:3 energy=-1.6919795752642832 pbc="F F F"
Ge       0.00000000       0.00000000       0.00000000       0.00000000       0.00000000       0.19252056
Ge       0.00000000       0.00000000       4.68888889       0.00000000       0.00000000      -0.19252056
2
Properties=species:S:1:pos:R:3:forces:R:3 energy=-1.6809419780255033 pbc="F F F"
Ge       0.00000000       0.00000000       0.00000000       0.00000000       0.00000000       0.17813782
Ge       0.00000000       0.00000000       4.74848485       0.00000000       0.00000000      -0.17813782
2
Properties=species:S:1:pos:R:3:forces:R:3 energy=-1.6707232307769457 pbc="F F F"
Ge       0.00000000       0.00000000       0.00000000       0.00000000       0.00000000       0.16496205
Ge       0.00000000       0.00000000       4.80808081       0.00000000       0.00000000      -0.16496205
2
Properties=species:S:1:pos:R:3:forces:R:3 energy=-1.6612656630853662 pbc="F F F"
Ge       0.00000000       0.00000000       0.00000000       0.00000000       0.00000000       0.15250666
Ge       0.00000000       0.00000000       4.86767677       0.00000000       0.00000000      -0.15250666
2
Properties=species:S:1:pos:R:3:forces:R:3 energy=-1.6525345407143288 pbc="F F F"
Ge       0.00000000       0.00000000       0.00000000       0.00000000       0.00000000       0.14059775
Ge       0.00000000       0.00000000       4.92727273       0.00000000       0.00000000      -0.14059775
2
Properties=species:S:1:pos:R:3:forces:R:3 energy=-1.6444924673051773 pbc="F F F"
Ge       0.00000000       0.00000000       0.00000000       0.00000000       0.00000000       0.12945199
Ge       0.00000000       0.00000000       4.98686869       0.00000000       0.00000000      -0.12945199
2
Properties=species:S:1:pos:R:3:forces:R:3 energy=-1.6370790534414954 pbc="F F F"
Ge       0.00000000       0.00000000       0.00000000       0.00000000       0.00000000       0.11964891
Ge       0.00000000       0.00000000       5.04646465       0.00000000       0.00000000      -0.11964891
2
Properties=species:S:1:pos:R:3:forces:R:3 energy=-1.6301906320629524 pbc="F F F"
Ge       0.00000000       0.00000000       0.00000000       0.00000000       0.00000000       0.11192333
Ge       0.00000000       0.00000000       5.10606061       0.00000000       0.00000000      -0.11192333
2
Properties=species:S:1:pos:R:3:forces:R:3 energy=-1.6236857369249291 pbc="F F F"
Ge       0.00000000       0.00000000       0.00000000       0.00000000       0.00000000       0.10678427
Ge       0.00000000       0.00000000       5.16565657       0.00000000       0.00000000      -0.10678427
2
Properties=species:S:1:pos:R:3:forces:R:3 energy=-1.6174152593809525 pbc="F F F"
Ge       0.00000000       0.00000000       0.00000000       0.00000000       0.00000000       0.10396084
Ge       0.00000000       0.00000000       5.22525253       0.00000000       0.00000000      -0.10396084
2
Properties=species:S:1:pos:R:3:forces:R:3 energy=-1.6112783908016277 pbc="F F F"
Ge       0.00000000       0.00000000       0.00000000       0.00000000       0.00000000       0.10193062
Ge       0.00000000       0.00000000       5.28484848       0.00000000       0.00000000      -0.10193062
2
Properties=species:S:1:pos:R:3:forces:R:3 energy=-1.6053014012840943 pbc="F F F"
Ge       0.00000000       0.00000000       0.00000000       0.00000000       0.00000000       0.09815098
Ge       0.00000000       0.00000000       5.34444444       0.00000000       0.00000000      -0.09815098
2
Properties=species:S:1:pos:R:3:forces:R:3 energy=-1.5996426329789433 pbc="F F F"
Ge       0.00000000       0.00000000       0.00000000       0.00000000       0.00000000       0.09138271
Ge       0.00000000       0.00000000       5.40404040       0.00000000       0.00000000      -0.09138271
2
Properties=species:S:1:pos:R:3:forces:R:3 energy=-1.5943973097177544 pbc="F F F"
Ge       0.00000000       0.00000000       0.00000000       0.00000000       0.00000000       0.08520629
Ge       0.00000000       0.00000000       5.46363636       0.00000000       0.00000000      -0.08520629
2
Properties=species:S:1:pos:R:3:forces:R:3 energy=-1.5894088603859573 pbc="F F F"
Ge       0.00000000       0.00000000       0.00000000       0.00000000       0.00000000       0.08251444
Ge       0.00000000       0.00000000       5.52323232       0.00000000       0.00000000      -0.08251444
2
Properties=species:S:1:pos:R:3:forces:R:3 energy=-1.5846373128494549 pbc="F F F"
Ge       0.00000000       0.00000000       0.00000000       0.00000000       0.00000000       0.07636891
Ge       0.00000000       0.00000000       5.58282828       0.00000000       0.00000000      -0.07636891
2
Properties=species:S:1:pos:R:3:forces:R:3 energy=-1.5804350353367749 pbc="F F F"
Ge       0.00000000       0.00000000       0.00000000       0.00000000       0.00000000       0.06414342
Ge       0.00000000       0.00000000       5.64242424       0.00000000       0.00000000      -0.06414342
2
Properties=species:S:1:pos:R:3:forces:R:3 energy=-1.5769512238492744 pbc="F F F"
Ge       0.00000000       0.00000000       0.00000000       0.00000000       0.00000000       0.05398498
Ge       0.00000000       0.00000000       5.70202020       0.00000000       0.00000000      -0.05398498
2
Properties=species:S:1:pos:R:3:forces:R:3 energy=-1.5737832181570253 pbc="F F F"
Ge       0.00000000       0.00000000       0.00000000       0.00000000       0.00000000       0.05400018
Ge       0.00000000       0.00000000       5.76161616       0.00000000       0.00000000      -0.05400018
2
Properties=species:S:1:pos:R:3:forces:R:3 energy=-1.5705285821934782 pbc="F F F"
Ge       0.00000000       0.00000000       0.00000000       0.00000000       0.00000000       0.05307779
Ge       0.00000000       0.00000000       5.82121212       0.00000000       0.00000000      -0.05307779
2
Properties=species:S:1:pos:R:3:forces:R:3 energy=-1.567800433333234 pbc="F F F"
Ge       0.00000000       0.00000000       0.00000000       0.00000000       0.00000000       0.03641661
Ge       0.00000000       0.00000000       5.88080808       0.00000000       0.00000000      -0.03641661
2
Properties=species:S:1:pos:R:3:forces:R:3 energy=-1.5662715023071794 pbc="F F F"
Ge       0.00000000       0.00000000       0.00000000       0.00000000       0.00000000       0.01529629
Ge       0.00000000       0.00000000       5.94040404       0.00000000       0.00000000      -0.01529629
2
Properties=species:S:1:pos:R:3:forces:R:3 energy=-1.5657198929339442 pbc="F F F"
Ge       0.00000000       0.00000000       0.00000000       0.00000000       0.00000000       0.00616144
Ge       0.00000000       0.00000000       6.00000000       0.00000000       0.00000000      -0.00616144
