2
Properties=species:S:1:pos:R:3:forces:R:3 energy=179.91891109793403 pbc="F F F"
He       0.00000000       0.00000000       0.00000000       0.00000000       0.00000000   -3140.40600586
He       0.00000000       0.00000000       0.10000000       0.00000000       0.00000000    3140.40600586
2
Properties=species:S:1:pos:R:3:forces:R:3 energy=72.97559749930123 pbc="F F F"
He       0.00000000       0.00000000       0.00000000       0.00000000       0.00000000    -989.43798828
He       0.00000000       0.00000000       0.15959596       0.00000000       0.00000000     989.43798828
2
Properties=species:S:1:pos:R:3:forces:R:3 energy=33.70791256297578 pbc="F F F"
He       0.00000000       0.00000000       0.00000000       0.00000000       0.00000000    -426.11364746
He       0.00000000       0.00000000       0.21919192       0.00000000       0.00000000     426.11364746
2
Properties=species:S:1:pos:R:3:forces:R:3 energy=15.715129017121992 pbc="F F F"
He       0.00000000       0.00000000       0.00000000       0.00000000       0.00000000    -205.04110718
He       0.00000000       0.00000000       0.27878788       0.00000000       0.00000000     205.04110718
2
Properties=species:S:1:pos:R:3:forces:R:3 energy=7.480321051160222 pbc="F F F"
He       0.00000000       0.00000000       0.00000000       0.00000000       0.00000000     -84.19418335
He       0.00000000       0.00000000       0.33838384       0.00000000       0.00000000      84.19418335
2
Properties=species:S:1:pos:R:3:forces:R:3 energy=4.218122608027786 pbc="F F F"
He       0.00000000       0.00000000       0.00000000       0.00000000       0.00000000     -33.21450043
He       0.00000000       0.00000000       0.39797980       0.00000000       0.00000000      33.21450043
2
Properties=species:S:1:pos:R:3:forces:R:3 energy=3.000891583090664 pbc="F F F"
He       0.00000000       0.00000000       0.00000000       0.00000000       0.00000000     -10.23096085
He       0.00000000       0.00000000       0.45757576       0.00000000       0.00000000      10.23096085
2
Properties=species:S:1:pos:R:3:forces:R:3 energy=2.7659739626984896 pbc="F F F"
He       0.00000000       0.00000000       0.00000000       0.00000000       0.00000000       0.80365795
He       0.00000000       0.00000000       0.51717172       0.00000000       0.00000000      -0.80365795
2
Properties=species:S:1:pos:R:3:forces:R:3 energy=2.9166850580057955 pbc="F F F"
He       0.00000000       0.00000000       0.00000000       0.00000000       0.00000000       3.13206553
He       0.00000000       0.00000000       0.57676768       0.00000000       0.00000000      -3.13206553
2
Properties=species:S:1:pos:R:3:forces:R:3 energy=3.163665785308674 pbc="F F F"
He       0.00000000       0.00000000       0.00000000       0.00000000       0.00000000       5.64973783
He       0.00000000       0.00000000       0.63636364       0.00000000       0.00000000      -5.64973783
2
Properties=species:S:1:pos:R:3:forces:R:3 energy=3.6181510595250463 pbc="F F F"
He       0.00000000       0.00000000       0.00000000       0.00000000       0.00000000       9.49340820
He       0.00000000       0.00000000       0.69595960       0.00000000       0.00000000      -9.49340820
2
Properties=species:S:1:pos:R:3:forces:R:3 energy=4.234770794268329 pbc="F F F"
He       0.00000000       0.00000000       0.00000000       0.00000000       0.00000000      10.34476376
He       0.00000000       0.00000000       0.75555556       0.00000000       0.00000000     -10.34476376
2
Properties=species:S:1:pos:R:3:forces:R:3 energy=4.736447573286243 pbc="F F F"
He       0.00000000       0.00000000       0.00000000       0.00000000       0.00000000       5.65563631
He       0.00000000       0.00000000       0.81515152       0.00000000       0.00000000      -5.65563631
2
Properties=species:S:1:pos:R:3:forces:R:3 energy=4.856137831474708 pbc="F F F"
He       0.00000000       0.00000000       0.00000000       0.00000000       0.00000000      -1.64890873
He       0.00000000       0.00000000       0.87474747       0.00000000       0.00000000       1.64890873
2
Properties=species:S:1:pos:R:3:forces:R:3 energy=4.575347948861156 pbc="F F F"
He       0.00000000       0.00000000       0.00000000       0.00000000       0.00000000      -7.30074406
He       0.00000000       0.00000000       0.93434343       0.00000000       0.00000000       7.30074406
2
Properties=species:S:1:pos:R:3:forces:R:3 energy=4.044908710740383 pbc="F F F"
He       0.00000000       0.00000000       0.00000000       0.00000000       0.00000000     -10.04484653
He       0.00000000       0.00000000       0.99393939       0.00000000       0.00000000      10.04484653
2
Properties=species:S:1:pos:R:3:forces:R:3 energy=3.4228816687957497 pbc="F F F"
He       0.00000000       0.00000000       0.00000000       0.00000000       0.00000000     -10.53980541
He       0.00000000       0.00000000       1.05353535       0.00000000       0.00000000      10.53980541
2
Properties=species:S:1:pos:R:3:forces:R:3 energy=2.8137781417273415 pbc="F F F"
He       0.00000000       0.00000000       0.00000000       0.00000000       0.00000000      -9.76044655
He       0.00000000       0.00000000       1.11313131       0.00000000       0.00000000       9.76044655
2
Properties=species:S:1:pos:R:3:forces:R:3 energy=2.2698583575945306 pbc="F F F"
He       0.00000000       0.00000000       0.00000000       0.00000000       0.00000000      -8.44977283
He       0.00000000       0.00000000       1.17272727       0.00000000       0.00000000       8.44977283
2
Properties=species:S:1:pos:R:3:forces:R:3 energy=1.8084050012590454 pbc="F F F"
He       0.00000000       0.00000000       0.00000000       0.00000000       0.00000000      -7.04222918
He       0.00000000       0.00000000       1.23232323       0.00000000       0.00000000       7.04222918
2
Properties=species:S:1:pos:R:3:forces:R:3 energy=1.4282846036513792 pbc="F F F"
He       0.00000000       0.00000000       0.00000000       0.00000000       0.00000000      -5.74074936
He       0.00000000       0.00000000       1.29191919       0.00000000       0.00000000       5.74074936
2
Properties=species:S:1:pos:R:3:forces:R:3 energy=1.1206033040207806 pbc="F F F"
He       0.00000000       0.00000000       0.00000000       0.00000000       0.00000000      -4.61609364
He       0.00000000       0.00000000       1.35151515       0.00000000       0.00000000       4.61609364
2
Properties=species:S:1:pos:R:3:forces:R:3 energy=0.8743798413100352 pbc="F F F"
He       0.00000000       0.00000000       0.00000000       0.00000000       0.00000000      -3.67723775
He       0.00000000       0.00000000       1.41111111       0.00000000       0.00000000       3.67723775
2
Properties=species:S:1:pos:R:3:forces:R:3 energy=0.6789236613616536 pbc="F F F"
He       0.00000000       0.00000000       0.00000000       0.00000000       0.00000000      -2.90864038
He       0.00000000       0.00000000       1.47070707       0.00000000       0.00000000       2.90864038
2
Properties=species:S:1:pos:R:3:forces:R:3 energy=0.5247657029516891 pbc="F F F"
He       0.00000000       0.00000000       0.00000000       0.00000000       0.00000000      -2.28725791
He       0.00000000       0.00000000       1.53030303       0.00000000       0.00000000       2.28725791
2
Properties=species:S:1:pos:R:3:forces:R:3 energy=0.40384925156532553 pbc="F F F"
He       0.00000000       0.00000000       0.00000000       0.00000000       0.00000000      -1.78938830
He       0.00000000       0.00000000       1.58989899       0.00000000       0.00000000       1.78938830
2
Properties=species:S:1:pos:R:3:forces:R:3 energy=0.30946711451737247 pbc="F F F"
He       0.00000000       0.00000000       0.00000000       0.00000000       0.00000000      -1.39325142
He       0.00000000       0.00000000       1.64949495       0.00000000       0.00000000       1.39325142
2
Properties=species:S:1:pos:R:3:forces:R:3 energy=0.23613919311089143 pbc="F F F"
He       0.00000000       0.00000000       0.00000000       0.00000000       0.00000000      -1.07991004
He       0.00000000       0.00000000       1.70909091       0.00000000       0.00000000       1.07991004
2
Properties=species:S:1:pos:R:3:forces:R:3 energy=0.17942531939986212 pbc="F F F"
He       0.00000000       0.00000000       0.00000000       0.00000000       0.00000000      -0.83335567
He       0.00000000       0.00000000       1.76868687       0.00000000       0.00000000       0.83335567
2
Properties=species:S:1:pos:R:3:forces:R:3 energy=0.13575064269940745 pbc="F F F"
He       0.00000000       0.00000000       0.00000000       0.00000000       0.00000000      -0.64030474
He       0.00000000       0.00000000       1.82828283       0.00000000       0.00000000       0.64030474
2
Properties=species:S:1:pos:R:3:forces:R:3 energy=0.10226098562399354 pbc="F F F"
He       0.00000000       0.00000000       0.00000000       0.00000000       0.00000000      -0.48989776
He       0.00000000       0.00000000       1.88787879       0.00000000       0.00000000       0.48989776
2
Properties=species:S:1:pos:R:3:forces:R:3 energy=0.07668703015257548 pbc="F F F"
He       0.00000000       0.00000000       0.00000000       0.00000000       0.00000000      -0.37333107
He       0.00000000       0.00000000       1.94747475       0.00000000       0.00000000       0.37333107
2
Properties=species:S:1:pos:R:3:forces:R:3 energy=0.057232059756741165 pbc="F F F"
He       0.00000000       0.00000000       0.00000000       0.00000000       0.00000000      -0.28350964
He       0.00000000       0.00000000       2.00707071       0.00000000       0.00000000       0.28350964
2
Properties=species:S:1:pos:R:3:forces:R:3 energy=0.0424785553220497 pbc="F F F"
He       0.00000000       0.00000000       0.00000000       0.00000000       0.00000000      -0.21473104
He       0.00000000       0.00000000       2.06666667       0.00000000       0.00000000       0.21473104
2
Properties=species:S:1:pos:R:3:forces:R:3 energy=0.03131140408220118 pbc="F F F"
He       0.00000000       0.00000000       0.00000000       0.00000000       0.00000000      -0.16241387
He       0.00000000       0.00000000       2.12626263       0.00000000       0.00000000       0.16241387
2
Properties=species:S:1:pos:R:3:forces:R:3 energy=0.022865683996322037 pbc="F F F"
He       0.00000000       0.00000000       0.00000000       0.00000000       0.00000000      -0.12290010
He       0.00000000       0.00000000       2.18585859       0.00000000       0.00000000       0.12290010
2
Properties=species:S:1:pos:R:3:forces:R:3 energy=0.016467598802308147 pbc="F F F"
He       0.00000000       0.00000000       0.00000000       0.00000000       0.00000000      -0.09324592
He       0.00000000       0.00000000       2.24545455       0.00000000       0.00000000       0.09324592
2
Properties=species:S:1:pos:R:3:forces:R:3 energy=0.011602557321056589 pbc="F F F"
He       0.00000000       0.00000000       0.00000000       0.00000000       0.00000000      -0.07109980
He       0.00000000       0.00000000       2.30505051       0.00000000       0.00000000       0.07109980
2
Properties=species:S:1:pos:R:3:forces:R:3 energy=0.007881526084769974 pbc="F F F"
He       0.00000000       0.00000000       0.00000000       0.00000000       0.00000000      -0.05458636
He       0.00000000       0.00000000       2.36464646       0.00000000       0.00000000       0.05458636
2
Properties=species:S:1:pos:R:3:forces:R:3 energy=0.0050141906666149065 pbc="F F F"
He       0.00000000       0.00000000       0.00000000       0.00000000       0.00000000      -0.04221731
He       0.00000000       0.00000000       2.42424242       0.00000000       0.00000000       0.04221731
2
Properties=species:S:1:pos:R:3:forces:R:3 energy=0.00279025773750365 pbc="F F F"
He       0.00000000       0.00000000       0.00000000       0.00000000       0.00000000      -0.03283219
He       0.00000000       0.00000000       2.48383838       0.00000000       0.00000000       0.03283219
2
Properties=species:S:1:pos:R:3:forces:R:3 energy=0.0010593990637607137 pbc="F F F"
He       0.00000000       0.00000000       0.00000000       0.00000000       0.00000000      -0.02554188
He       0.00000000       0.00000000       2.54343434       0.00000000       0.00000000       0.02554188
2
Properties=species:S:1:pos:R:3:forces:R:3 energy=-0.0002826028054677941 pbc="F F F"
He       0.00000000       0.00000000       0.00000000       0.00000000       0.00000000      -0.01969169
He       0.00000000       0.00000000       2.60303030       0.00000000       0.00000000       0.01969169
2
Properties=species:S:1:pos:R:3:forces:R:3 energy=-0.0013071732324856369 pbc="F F F"
He       0.00000000       0.00000000       0.00000000       0.00000000       0.00000000      -0.01482532
He       0.00000000       0.00000000       2.66262626       0.00000000       0.00000000       0.01482532
2
Properties=species:S:1:pos:R:3:forces:R:3 energy=-0.0020633385051332886 pbc="F F F"
He       0.00000000       0.00000000       0.00000000       0.00000000       0.00000000      -0.01065481
He       0.00000000       0.00000000       2.72222222       0.00000000       0.00000000       0.01065481
2
Properties=species:S:1:pos:R:3:forces:R:3 energy=-0.0025878691850845137 pbc="F F F"
He       0.00000000       0.00000000       0.00000000       0.00000000       0.00000000      -0.00702685
He       0.00000000       0.00000000       2.78181818       0.00000000       0.00000000       0.00702685
2
Properties=species:S:1:pos:R:3:forces:R:3 energy=-0.002910701759089018 pbc="F F F"
He       0.00000000       0.00000000       0.00000000       0.00000000       0.00000000      -0.00389025
He       0.00000000       0.00000000       2.84141414       0.00000000       0.00000000       0.00389025
2
Properties=species:S:1:pos:R:3:forces:R:3 energy=-0.003061378023926174 pbc="F F F"
He       0.00000000       0.00000000       0.00000000       0.00000000       0.00000000      -0.00125725
He       0.00000000       0.00000000       2.90101010       0.00000000       0.00000000       0.00125725
2
Properties=species:S:1:pos:R:3:forces:R:3 energy=-0.0030712851417439044 pbc="F F F"
He       0.00000000       0.00000000       0.00000000       0.00000000       0.00000000       0.00083359
He       0.00000000       0.00000000       2.96060606       0.00000000       0.00000000      -0.00083359
2
Properties=species:S:1:pos:R:3:forces:R:3 energy=-0.0029735971799414312 pbc="F F F"
He       0.00000000       0.00000000       0.00000000       0.00000000       0.00000000       0.00235307
He       0.00000000       0.00000000       3.02020202       0.00000000       0.00000000      -0.00235307
2
Properties=species:S:1:pos:R:3:forces:R:3 energy=-0.0028020381925762668 pbc="F F F"
He       0.00000000       0.00000000       0.00000000       0.00000000       0.00000000       0.00330997
He       0.00000000       0.00000000       3.07979798       0.00000000       0.00000000      -0.00330997
2
Properties=species:S:1:pos:R:3:forces:R:3 energy=-0.002588812024397348 pbc="F F F"
He       0.00000000       0.00000000       0.00000000       0.00000000       0.00000000       0.00376800
He       0.00000000       0.00000000       3.13939394       0.00000000       0.00000000      -0.00376800
2
Properties=species:S:1:pos:R:3:forces:R:3 energy=-0.0023605863729692454 pbc="F F F"
He       0.00000000       0.00000000       0.00000000       0.00000000       0.00000000       0.00384345
He       0.00000000       0.00000000       3.19898990       0.00000000       0.00000000      -0.00384345
2
Properties=species:S:1:pos:R:3:forces:R:3 energy=-0.0021353872147389583 pbc="F F F"
He       0.00000000       0.00000000       0.00000000       0.00000000       0.00000000       0.00368865
He       0.00000000       0.00000000       3.25858586       0.00000000       0.00000000      -0.00368865
2
Properties=species:S:1:pos:R:3:forces:R:3 energy=-0.0019223315317692118 pbc="F F F"
He       0.00000000       0.00000000       0.00000000       0.00000000       0.00000000       0.00346224
He       0.00000000       0.00000000       3.31818182       0.00000000       0.00000000      -0.00346224
2
Properties=species:S:1:pos:R:3:forces:R:3 energy=-0.0017214709466033108 pbc="F F F"
He       0.00000000       0.00000000       0.00000000       0.00000000       0.00000000       0.00329567
He       0.00000000       0.00000000       3.37777778       0.00000000       0.00000000      -0.00329567
2
Properties=species:S:1:pos:R:3:forces:R:3 energy=-0.0015266533278390382 pbc="F F F"
He       0.00000000       0.00000000       0.00000000       0.00000000       0.00000000       0.00326883
He       0.00000000       0.00000000       3.43737374       0.00000000       0.00000000      -0.00326883
2
Properties=species:S:1:pos:R:3:forces:R:3 energy=-0.0013286473881478585 pbc="F F F"
He       0.00000000       0.00000000       0.00000000       0.00000000       0.00000000       0.00339850
He       0.00000000       0.00000000       3.49696970       0.00000000       0.00000000      -0.00339850
2
Properties=species:S:1:pos:R:3:forces:R:3 energy=-0.001119122277478432 pbc="F F F"
He       0.00000000       0.00000000       0.00000000       0.00000000       0.00000000       0.00364868
He       0.00000000       0.00000000       3.55656566       0.00000000       0.00000000      -0.00364868
2
Properties=species:S:1:pos:R:3:forces:R:3 energy=-0.0008927943060594104 pbc="F F F"
He       0.00000000       0.00000000       0.00000000       0.00000000       0.00000000       0.00394936
He       0.00000000       0.00000000       3.61616162       0.00000000       0.00000000      -0.00394936
2
Properties=species:S:1:pos:R:3:forces:R:3 energy=-0.000648859824272775 pbc="F F F"
He       0.00000000       0.00000000       0.00000000       0.00000000       0.00000000       0.00422460
He       0.00000000       0.00000000       3.67575758       0.00000000       0.00000000      -0.00422460
2
Properties=species:S:1:pos:R:3:forces:R:3 energy=-0.00039099985880010807 pbc="F F F"
He       0.00000000       0.00000000       0.00000000       0.00000000       0.00000000       0.00441293
He       0.00000000       0.00000000       3.73535354       0.00000000       0.00000000      -0.00441293
2
Properties=species:S:1:pos:R:3:forces:R:3 energy=-0.00012543450440971376 pbc="F F F"
He       0.00000000       0.00000000       0.00000000       0.00000000       0.00000000       0.00447915
He       0.00000000       0.00000000       3.79494949       0.00000000       0.00000000      -0.00447915
2
Properties=species:S:1:pos:R:3:forces:R:3 energy=0.00014027336099915034 pbc="F F F"
He       0.00000000       0.00000000       0.00000000       0.00000000       0.00000000       0.00441657
He       0.00000000       0.00000000       3.85454545       0.00000000       0.00000000      -0.00441657
2
Properties=species:S:1:pos:R:3:forces:R:3 energy=0.0003987522370515324 pbc="F F F"
He       0.00000000       0.00000000       0.00000000       0.00000000       0.00000000       0.00424036
He       0.00000000       0.00000000       3.91414141       0.00000000       0.00000000      -0.00424036
2
Properties=species:S:1:pos:R:3:forces:R:3 energy=0.0006440619204434198 pbc="F F F"
He       0.00000000       0.00000000       0.00000000       0.00000000       0.00000000       0.00397899
He       0.00000000       0.00000000       3.97373737       0.00000000       0.00000000      -0.00397899
2
Properties=species:S:1:pos:R:3:forces:R:3 energy=0.0008719547277212414 pbc="F F F"
He       0.00000000       0.00000000       0.00000000       0.00000000       0.00000000       0.00366416
He       0.00000000       0.00000000       4.03333333       0.00000000       0.00000000      -0.00366416
2
Properties=species:S:1:pos:R:3:forces:R:3 energy=0.0010802872448693879 pbc="F F F"
He       0.00000000       0.00000000       0.00000000       0.00000000       0.00000000       0.00332309
He       0.00000000       0.00000000       4.09292929       0.00000000       0.00000000      -0.00332309
2
Properties=species:S:1:pos:R:3:forces:R:3 energy=0.0012677973037493809 pbc="F F F"
He       0.00000000       0.00000000       0.00000000       0.00000000       0.00000000       0.00297078
He       0.00000000       0.00000000       4.15252525       0.00000000       0.00000000      -0.00297078
2
Properties=species:S:1:pos:R:3:forces:R:3 energy=0.0014342442405794814 pbc="F F F"
He       0.00000000       0.00000000       0.00000000       0.00000000       0.00000000       0.00261045
He       0.00000000       0.00000000       4.21212121       0.00000000       0.00000000      -0.00261045
2
Properties=species:S:1:pos:R:3:forces:R:3 energy=0.0015787363968943365 pbc="F F F"
He       0.00000000       0.00000000       0.00000000       0.00000000       0.00000000       0.00223533
He       0.00000000       0.00000000       4.27171717       0.00000000       0.00000000      -0.00223533
2
Properties=species:S:1:pos:R:3:forces:R:3 energy=0.001700200979595865 pbc="F F F"
He       0.00000000       0.00000000       0.00000000       0.00000000       0.00000000       0.00183807
He       0.00000000       0.00000000       4.33131313       0.00000000       0.00000000      -0.00183807
2
Properties=species:S:1:pos:R:3:forces:R:3 energy=0.0017974008073387213 pbc="F F F"
He       0.00000000       0.00000000       0.00000000       0.00000000       0.00000000       0.00142089
He       0.00000000       0.00000000       4.39090909       0.00000000       0.00000000      -0.00142089
2
Properties=species:S:1:pos:R:3:forces:R:3 energy=0.0018694616742193273 pbc="F F F"
He       0.00000000       0.00000000       0.00000000       0.00000000       0.00000000       0.00100001
He       0.00000000       0.00000000       4.45050505       0.00000000       0.00000000      -0.00100001
2
Properties=species:S:1:pos:R:3:forces:R:3 energy=0.0019171584072569744 pbc="F F F"
He       0.00000000       0.00000000       0.00000000       0.00000000       0.00000000       0.00060751
He       0.00000000       0.00000000       4.51010101       0.00000000       0.00000000      -0.00060751
2
Properties=species:S:1:pos:R:3:forces:R:3 energy=0.0019432263162995215 pbc="F F F"
He       0.00000000       0.00000000       0.00000000       0.00000000       0.00000000       0.00028174
He       0.00000000       0.00000000       4.56969697       0.00000000       0.00000000      -0.00028174
2
Properties=species:S:1:pos:R:3:forces:R:3 energy=0.0019528265684205246 pbc="F F F"
He       0.00000000       0.00000000       0.00000000       0.00000000       0.00000000       0.00005995
He       0.00000000       0.00000000       4.62929293       0.00000000       0.00000000      -0.00005995
2
Properties=species:S:1:pos:R:3:forces:R:3 energy=0.0019528535382532977 pbc="F F F"
He       0.00000000       0.00000000       0.00000000       0.00000000       0.00000000      -0.00003520
He       0.00000000       0.00000000       4.68888889       0.00000000       0.00000000       0.00003520
2
Properties=species:S:1:pos:R:3:forces:R:3 energy=0.0019512509039575168 pbc="F F F"
He       0.00000000       0.00000000       0.00000000       0.00000000       0.00000000       0.00000006
He       0.00000000       0.00000000       4.74848485       0.00000000       0.00000000      -0.00000006
2
Properties=species:S:1:pos:R:3:forces:R:3 energy=0.001955203816922007 pbc="F F F"
He       0.00000000       0.00000000       0.00000000       0.00000000       0.00000000       0.00015098
He       0.00000000       0.00000000       4.80808081       0.00000000       0.00000000      -0.00015098
2
Properties=species:S:1:pos:R:3:forces:R:3 energy=0.0019708589937398454 pbc="F F F"
He       0.00000000       0.00000000       0.00000000       0.00000000       0.00000000       0.00038474
He       0.00000000       0.00000000       4.86767677       0.00000000       0.00000000      -0.00038474
2
Properties=species:S:1:pos:R:3:forces:R:3 energy=0.0020018380870177946 pbc="F F F"
He       0.00000000       0.00000000       0.00000000       0.00000000       0.00000000       0.00065526
He       0.00000000       0.00000000       4.92727273       0.00000000       0.00000000      -0.00065526
2
Properties=species:S:1:pos:R:3:forces:R:3 energy=0.002048457686439761 pbc="F F F"
He       0.00000000       0.00000000       0.00000000       0.00000000       0.00000000       0.00090086
He       0.00000000       0.00000000       4.98686869       0.00000000       0.00000000      -0.00090086
2
Properties=species:S:1:pos:R:3:forces:R:3 energy=0.0021070396148099224 pbc="F F F"
He       0.00000000       0.00000000       0.00000000       0.00000000       0.00000000       0.00103742
He       0.00000000       0.00000000       5.04646465       0.00000000       0.00000000      -0.00103742
2
Properties=species:S:1:pos:R:3:forces:R:3 energy=0.0021679765941890216 pbc="F F F"
He       0.00000000       0.00000000       0.00000000       0.00000000       0.00000000       0.00096246
He       0.00000000       0.00000000       5.10606061       0.00000000       0.00000000      -0.00096246
2
Properties=species:S:1:pos:R:3:forces:R:3 energy=0.0022156018050495485 pbc="F F F"
He       0.00000000       0.00000000       0.00000000       0.00000000       0.00000000       0.00058074
He       0.00000000       0.00000000       5.16565657       0.00000000       0.00000000      -0.00058074
2
Properties=species:S:1:pos:R:3:forces:R:3 energy=0.0022306025656878246 pbc="F F F"
He       0.00000000       0.00000000       0.00000000       0.00000000       0.00000000      -0.00012705
He       0.00000000       0.00000000       5.22525253       0.00000000       0.00000000       0.00012705
2
Properties=species:S:1:pos:R:3:forces:R:3 energy=0.002196639026680194 pbc="F F F"
He       0.00000000       0.00000000       0.00000000       0.00000000       0.00000000      -0.00102112
He       0.00000000       0.00000000       5.28484848       0.00000000       0.00000000       0.00102112
2
Properties=species:S:1:pos:R:3:forces:R:3 energy=0.002111634861315066 pbc="F F F"
He       0.00000000       0.00000000       0.00000000       0.00000000       0.00000000      -0.00177336
He       0.00000000       0.00000000       5.34444444       0.00000000       0.00000000       0.00177336
2
Properties=species:S:1:pos:R:3:forces:R:3 energy=0.0019960116151954872 pbc="F F F"
He       0.00000000       0.00000000       0.00000000       0.00000000       0.00000000      -0.00199228
He       0.00000000       0.00000000       5.40404040       0.00000000       0.00000000       0.00199228
2
Properties=species:S:1:pos:R:3:forces:R:3 energy=0.0018882929781492786 pbc="F F F"
He       0.00000000       0.00000000       0.00000000       0.00000000       0.00000000      -0.00151564
He       0.00000000       0.00000000       5.46363636       0.00000000       0.00000000       0.00151564
2
Properties=species:S:1:pos:R:3:forces:R:3 energy=0.0018238742704791207 pbc="F F F"
He       0.00000000       0.00000000       0.00000000       0.00000000       0.00000000      -0.00062116
He       0.00000000       0.00000000       5.52323232       0.00000000       0.00000000       0.00062116
2
Properties=species:S:1:pos:R:3:forces:R:3 energy=0.001810238283455193 pbc="F F F"
He       0.00000000       0.00000000       0.00000000       0.00000000       0.00000000       0.00006334
He       0.00000000       0.00000000       5.58282828       0.00000000       0.00000000      -0.00006334
2
Properties=species:S:1:pos:R:3:forces:R:3 energy=0.0018163619839071297 pbc="F F F"
He       0.00000000       0.00000000       0.00000000       0.00000000       0.00000000       0.00005553
He       0.00000000       0.00000000       5.64242424       0.00000000       0.00000000      -0.00005553
2
Properties=species:S:1:pos:R:3:forces:R:3 energy=0.001819103188165908 pbc="F F F"
He       0.00000000       0.00000000       0.00000000       0.00000000       0.00000000       0.00013207
He       0.00000000       0.00000000       5.70202020       0.00000000       0.00000000      -0.00013207
2
Properties=species:S:1:pos:R:3:forces:R:3 energy=0.0018393388389797744 pbc="F F F"
He       0.00000000       0.00000000       0.00000000       0.00000000       0.00000000       0.00052663
He       0.00000000       0.00000000       5.76161616       0.00000000       0.00000000      -0.00052663
2
Properties=species:S:1:pos:R:3:forces:R:3 energy=0.0018733590390758485 pbc="F F F"
He       0.00000000       0.00000000       0.00000000       0.00000000       0.00000000       0.00054234
He       0.00000000       0.00000000       5.82121212       0.00000000       0.00000000      -0.00054234
2
Properties=species:S:1:pos:R:3:forces:R:3 energy=0.0018993016582287965 pbc="F F F"
He       0.00000000       0.00000000       0.00000000       0.00000000       0.00000000       0.00031900
He       0.00000000       0.00000000       5.88080808       0.00000000       0.00000000      -0.00031900
2
Properties=species:S:1:pos:R:3:forces:R:3 energy=0.001911698616729677 pbc="F F F"
He       0.00000000       0.00000000       0.00000000       0.00000000       0.00000000       0.00010592
He       0.00000000       0.00000000       5.94040404       0.00000000       0.00000000      -0.00010592
2
Properties=species:S:1:pos:R:3:forces:R:3 energy=0.0019146129817079068 pbc="F F F"
He       0.00000000       0.00000000       0.00000000       0.00000000       0.00000000       0.00002058
He       0.00000000       0.00000000       6.00000000       0.00000000       0.00000000      -0.00002058
