2
Properties=species:S:1:pos:R:3:forces:R:3 energy=67388.98736569205 pbc="F F F"
Ho       0.00000000       0.00000000       0.00000000       0.00000000       0.00000000 -1664658.25000000
Ho       0.00000000       0.00000000       0.10000000       0.00000000       0.00000000 1664658.25000000
2
Properties=species:S:1:pos:R:3:forces:R:3 energy=19316.94049069206 pbc="F F F"
Ho       0.00000000       0.00000000       0.00000000       0.00000000       0.00000000 -347632.78125000
Ho       0.00000000       0.00000000       0.15959596       0.00000000       0.00000000  347632.78125000
2
Properties=species:S:1:pos:R:3:forces:R:3 energy=7472.42486569206 pbc="F F F"
Ho       0.00000000       0.00000000       0.00000000       0.00000000       0.00000000 -105650.28906250
Ho       0.00000000       0.00000000       0.21919192       0.00000000       0.00000000  105650.28906250
2
Properties=species:S:1:pos:R:3:forces:R:3 energy=3512.98541256706 pbc="F F F"
Ho       0.00000000       0.00000000       0.00000000       0.00000000       0.00000000  -39681.23046875
Ho       0.00000000       0.00000000       0.27878788       0.00000000       0.00000000   39681.23046875
2
Properties=species:S:1:pos:R:3:forces:R:3 energy=1921.1007690123722 pbc="F F F"
Ho       0.00000000       0.00000000       0.00000000       0.00000000       0.00000000  -17444.64843750
Ho       0.00000000       0.00000000       0.33838384       0.00000000       0.00000000   17444.64843750
2
Properties=species:S:1:pos:R:3:forces:R:3 energy=1167.4033813170597 pbc="F F F"
Ho       0.00000000       0.00000000       0.00000000       0.00000000       0.00000000   -9156.15917969
Ho       0.00000000       0.00000000       0.39797980       0.00000000       0.00000000    9156.15917969
2
Properties=species:S:1:pos:R:3:forces:R:3 energy=732.6066894351998 pbc="F F F"
Ho       0.00000000       0.00000000       0.00000000       0.00000000       0.00000000   -5912.12597656
Ho       0.00000000       0.00000000       0.45757576       0.00000000       0.00000000    5912.12597656
2
Properties=species:S:1:pos:R:3:forces:R:3 energy=430.2672424263867 pbc="F F F"
Ho       0.00000000       0.00000000       0.00000000       0.00000000       0.00000000   -4355.45654297
Ho       0.00000000       0.00000000       0.51717172       0.00000000       0.00000000    4355.45654297
2
Properties=species:S:1:pos:R:3:forces:R:3 energy=210.39108278376054 pbc="F F F"
Ho       0.00000000       0.00000000       0.00000000       0.00000000       0.00000000   -2982.33911133
Ho       0.00000000       0.00000000       0.57676768       0.00000000       0.00000000    2982.33911133
2
Properties=species:S:1:pos:R:3:forces:R:3 energy=62.22791677563182 pbc="F F F"
Ho       0.00000000       0.00000000       0.00000000       0.00000000       0.00000000   -2207.55322266
Ho       0.00000000       0.00000000       0.63636364       0.00000000       0.00000000    2207.55322266
2
Properties=species:S:1:pos:R:3:forces:R:3 energy=-0.1262748814974245 pbc="F F F"
Ho       0.00000000       0.00000000       0.00000000       0.00000000       0.00000000      16.64533043
Ho       0.00000000       0.00000000       0.69595960       0.00000000       0.00000000     -16.64533043
2
Properties=species:S:1:pos:R:3:forces:R:3 energy=43.39865133320486 pbc="F F F"
Ho       0.00000000       0.00000000       0.00000000       0.00000000       0.00000000     700.69464111
Ho       0.00000000       0.00000000       0.75555556       0.00000000       0.00000000    -700.69464111
2
Properties=species:S:1:pos:R:3:forces:R:3 energy=138.31652868252596 pbc="F F F"
Ho       0.00000000       0.00000000       0.00000000       0.00000000       0.00000000    1201.58935547
Ho       0.00000000       0.00000000       0.81515152       0.00000000       0.00000000   -1201.58935547
2
Properties=species:S:1:pos:R:3:forces:R:3 energy=179.81254635399253 pbc="F F F"
Ho       0.00000000       0.00000000       0.00000000       0.00000000       0.00000000     303.27728271
Ho       0.00000000       0.00000000       0.87474747       0.00000000       0.00000000    -303.27728271
2
Properties=species:S:1:pos:R:3:forces:R:3 energy=173.48556607995445 pbc="F F F"
Ho       0.00000000       0.00000000       0.00000000       0.00000000       0.00000000    -322.13726807
Ho       0.00000000       0.00000000       0.93434343       0.00000000       0.00000000     322.13726807
2
Properties=species:S:1:pos:R:3:forces:R:3 energy=148.5379651670763 pbc="F F F"
Ho       0.00000000       0.00000000       0.00000000       0.00000000       0.00000000    -465.04803467
Ho       0.00000000       0.00000000       0.99393939       0.00000000       0.00000000     465.04803467
2
Properties=species:S:1:pos:R:3:forces:R:3 energy=122.5611362084757 pbc="F F F"
Ho       0.00000000       0.00000000       0.00000000       0.00000000       0.00000000    -363.07025146
Ho       0.00000000       0.00000000       1.05353535       0.00000000       0.00000000     363.07025146
2
Properties=species:S:1:pos:R:3:forces:R:3 energy=106.37533833640477 pbc="F F F"
Ho       0.00000000       0.00000000       0.00000000       0.00000000       0.00000000    -313.47567749
Ho       0.00000000       0.00000000       1.11313131       0.00000000       0.00000000     313.47567749
2
Properties=species:S:1:pos:R:3:forces:R:3 energy=86.13328916653813 pbc="F F F"
Ho       0.00000000       0.00000000       0.00000000       0.00000000       0.00000000    -315.32037354
Ho       0.00000000       0.00000000       1.17272727       0.00000000       0.00000000     315.32037354
2
Properties=species:S:1:pos:R:3:forces:R:3 energy=69.93665045703241 pbc="F F F"
Ho       0.00000000       0.00000000       0.00000000       0.00000000       0.00000000    -230.43826294
Ho       0.00000000       0.00000000       1.23232323       0.00000000       0.00000000     230.43826294
2
Properties=species:S:1:pos:R:3:forces:R:3 energy=57.909060424320245 pbc="F F F"
Ho       0.00000000       0.00000000       0.00000000       0.00000000       0.00000000    -179.15504456
Ho       0.00000000       0.00000000       1.29191919       0.00000000       0.00000000     179.15504456
2
Properties=species:S:1:pos:R:3:forces:R:3 energy=48.116273093868216 pbc="F F F"
Ho       0.00000000       0.00000000       0.00000000       0.00000000       0.00000000    -151.70925903
Ho       0.00000000       0.00000000       1.35151515       0.00000000       0.00000000     151.70925903
2
Properties=species:S:1:pos:R:3:forces:R:3 energy=39.69791027632319 pbc="F F F"
Ho       0.00000000       0.00000000       0.00000000       0.00000000       0.00000000    -131.10043335
Ho       0.00000000       0.00000000       1.41111111       0.00000000       0.00000000     131.10043335
2
Properties=species:S:1:pos:R:3:forces:R:3 energy=32.475638828598655 pbc="F F F"
Ho       0.00000000       0.00000000       0.00000000       0.00000000       0.00000000    -111.55960846
Ho       0.00000000       0.00000000       1.47070707       0.00000000       0.00000000     111.55960846
2
Properties=species:S:1:pos:R:3:forces:R:3 energy=26.331685808705927 pbc="F F F"
Ho       0.00000000       0.00000000       0.00000000       0.00000000       0.00000000     -95.35465240
Ho       0.00000000       0.00000000       1.53030303       0.00000000       0.00000000      95.35465240
2
Properties=species:S:1:pos:R:3:forces:R:3 energy=21.04375750226941 pbc="F F F"
Ho       0.00000000       0.00000000       0.00000000       0.00000000       0.00000000     -82.37063599
Ho       0.00000000       0.00000000       1.58989899       0.00000000       0.00000000      82.37063599
2
Properties=species:S:1:pos:R:3:forces:R:3 energy=16.509292148674845 pbc="F F F"
Ho       0.00000000       0.00000000       0.00000000       0.00000000       0.00000000     -69.75614929
Ho       0.00000000       0.00000000       1.64949495       0.00000000       0.00000000      69.75614929
2
Properties=species:S:1:pos:R:3:forces:R:3 energy=12.723168668898593 pbc="F F F"
Ho       0.00000000       0.00000000       0.00000000       0.00000000       0.00000000     -57.49889374
Ho       0.00000000       0.00000000       1.70909091       0.00000000       0.00000000      57.49889374
2
Properties=species:S:1:pos:R:3:forces:R:3 energy=9.619518938680878 pbc="F F F"
Ho       0.00000000       0.00000000       0.00000000       0.00000000       0.00000000     -47.01937103
Ho       0.00000000       0.00000000       1.76868687       0.00000000       0.00000000      47.01937103
2
Properties=species:S:1:pos:R:3:forces:R:3 energy=7.07728281470597 pbc="F F F"
Ho       0.00000000       0.00000000       0.00000000       0.00000000       0.00000000     -38.60195923
Ho       0.00000000       0.00000000       1.82828283       0.00000000       0.00000000      38.60195923
2
Properties=species:S:1:pos:R:3:forces:R:3 energy=4.989329584080008 pbc="F F F"
Ho       0.00000000       0.00000000       0.00000000       0.00000000       0.00000000     -31.65366364
Ho       0.00000000       0.00000000       1.88787879       0.00000000       0.00000000      31.65366364
2
Properties=species:S:1:pos:R:3:forces:R:3 energy=3.2877505232672664 pbc="F F F"
Ho       0.00000000       0.00000000       0.00000000       0.00000000       0.00000000     -25.55869675
Ho       0.00000000       0.00000000       1.94747475       0.00000000       0.00000000      25.55869675
2
Properties=species:S:1:pos:R:3:forces:R:3 energy=1.9313892436075735 pbc="F F F"
Ho       0.00000000       0.00000000       0.00000000       0.00000000       0.00000000     -20.05505180
Ho       0.00000000       0.00000000       2.00707071       0.00000000       0.00000000      20.05505180
2
Properties=species:S:1:pos:R:3:forces:R:3 energy=0.885160255653779 pbc="F F F"
Ho       0.00000000       0.00000000       0.00000000       0.00000000       0.00000000     -15.16703033
Ho       0.00000000       0.00000000       2.06666667       0.00000000       0.00000000      15.16703033
2
Properties=species:S:1:pos:R:3:forces:R:3 energy=0.10920636426839088 pbc="F F F"
Ho       0.00000000       0.00000000       0.00000000       0.00000000       0.00000000     -11.00357533
Ho       0.00000000       0.00000000       2.12626263       0.00000000       0.00000000      11.00357533
2
Properties=species:S:1:pos:R:3:forces:R:3 energy=-0.44291441080377786 pbc="F F F"
Ho       0.00000000       0.00000000       0.00000000       0.00000000       0.00000000      -7.67040491
Ho       0.00000000       0.00000000       2.18585859       0.00000000       0.00000000       7.67040491
2
Properties=species:S:1:pos:R:3:forces:R:3 energy=-0.8225264629243817 pbc="F F F"
Ho       0.00000000       0.00000000       0.00000000       0.00000000       0.00000000      -5.21332693
Ho       0.00000000       0.00000000       2.24545455       0.00000000       0.00000000       5.21332693
2
Properties=species:S:1:pos:R:3:forces:R:3 energy=-1.080596429457643 pbc="F F F"
Ho       0.00000000       0.00000000       0.00000000       0.00000000       0.00000000      -3.57408261
Ho       0.00000000       0.00000000       2.30505051       0.00000000       0.00000000       3.57408261
2
Properties=species:S:1:pos:R:3:forces:R:3 energy=-1.2621489748173074 pbc="F F F"
Ho       0.00000000       0.00000000       0.00000000       0.00000000       0.00000000      -2.61929917
Ho       0.00000000       0.00000000       2.36464646       0.00000000       0.00000000       2.61929917
2
Properties=species:S:1:pos:R:3:forces:R:3 energy=-1.402953532990333 pbc="F F F"
Ho       0.00000000       0.00000000       0.00000000       0.00000000       0.00000000      -2.17484736
Ho       0.00000000       0.00000000       2.42424242       0.00000000       0.00000000       2.17484736
2
Properties=species:S:1:pos:R:3:forces:R:3 energy=-1.5275466305909344 pbc="F F F"
Ho       0.00000000       0.00000000       0.00000000       0.00000000       0.00000000      -2.04161334
Ho       0.00000000       0.00000000       2.48383838       0.00000000       0.00000000       2.04161334
2
Properties=species:S:1:pos:R:3:forces:R:3 energy=-1.6487148925948867 pbc="F F F"
Ho       0.00000000       0.00000000       0.00000000       0.00000000       0.00000000      -2.03201199
Ho       0.00000000       0.00000000       2.54343434       0.00000000       0.00000000       2.03201199
2
Properties=species:S:1:pos:R:3:forces:R:3 energy=-1.7695144223619403 pbc="F F F"
Ho       0.00000000       0.00000000       0.00000000       0.00000000       0.00000000      -2.01306462
Ho       0.00000000       0.00000000       2.60303030       0.00000000       0.00000000       2.01306462
2
Properties=species:S:1:pos:R:3:forces:R:3 energy=-1.8871443502766172 pbc="F F F"
Ho       0.00000000       0.00000000       0.00000000       0.00000000       0.00000000      -1.91991854
Ho       0.00000000       0.00000000       2.66262626       0.00000000       0.00000000       1.91991854
2
Properties=species:S:1:pos:R:3:forces:R:3 energy=-1.9966200295871397 pbc="F F F"
Ho       0.00000000       0.00000000       0.00000000       0.00000000       0.00000000      -1.74044871
Ho       0.00000000       0.00000000       2.72222222       0.00000000       0.00000000       1.74044871
2
Properties=species:S:1:pos:R:3:forces:R:3 energy=-2.0932043605509723 pbc="F F F"
Ho       0.00000000       0.00000000       0.00000000       0.00000000       0.00000000      -1.49137664
Ho       0.00000000       0.00000000       2.78181818       0.00000000       0.00000000       1.49137664
2
Properties=species:S:1:pos:R:3:forces:R:3 energy=-2.173525037735473 pbc="F F F"
Ho       0.00000000       0.00000000       0.00000000       0.00000000       0.00000000      -1.19925570
Ho       0.00000000       0.00000000       2.84141414       0.00000000       0.00000000       1.19925570
2
Properties=species:S:1:pos:R:3:forces:R:3 energy=-2.2357988155377124 pbc="F F F"
Ho       0.00000000       0.00000000       0.00000000       0.00000000       0.00000000      -0.88946462
Ho       0.00000000       0.00000000       2.90101010       0.00000000       0.00000000       0.88946462
2
Properties=species:S:1:pos:R:3:forces:R:3 energy=-2.2795914436819893 pbc="F F F"
Ho       0.00000000       0.00000000       0.00000000       0.00000000       0.00000000      -0.58193135
Ho       0.00000000       0.00000000       2.96060606       0.00000000       0.00000000       0.58193135
2
Properties=species:S:1:pos:R:3:forces:R:3 energy=-2.3054938464401635 pbc="F F F"
Ho       0.00000000       0.00000000       0.00000000       0.00000000       0.00000000      -0.29112953
Ho       0.00000000       0.00000000       3.02020202       0.00000000       0.00000000       0.29112953
2
Properties=species:S:1:pos:R:3:forces:R:3 energy=-2.3148309121762614 pbc="F F F"
Ho       0.00000000       0.00000000       0.00000000       0.00000000       0.00000000      -0.02732638
Ho       0.00000000       0.00000000       3.07979798       0.00000000       0.00000000       0.02732638
2
Properties=species:S:1:pos:R:3:forces:R:3 energy=-2.309424028441693 pbc="F F F"
Ho       0.00000000       0.00000000       0.00000000       0.00000000       0.00000000       0.20278963
Ho       0.00000000       0.00000000       3.13939394       0.00000000       0.00000000      -0.20278963
2
Properties=species:S:1:pos:R:3:forces:R:3 energy=-2.2913877869550086 pbc="F F F"
Ho       0.00000000       0.00000000       0.00000000       0.00000000       0.00000000       0.39633483
Ho       0.00000000       0.00000000       3.19898990       0.00000000       0.00000000      -0.39633483
2
Properties=species:S:1:pos:R:3:forces:R:3 energy=-2.2628963183871864 pbc="F F F"
Ho       0.00000000       0.00000000       0.00000000       0.00000000       0.00000000       0.55408430
Ho       0.00000000       0.00000000       3.25858586       0.00000000       0.00000000      -0.55408430
2
Properties=species:S:1:pos:R:3:forces:R:3 energy=-2.22598869678774 pbc="F F F"
Ho       0.00000000       0.00000000       0.00000000       0.00000000       0.00000000       0.67947197
Ho       0.00000000       0.00000000       3.31818182       0.00000000       0.00000000      -0.67947197
2
Properties=species:S:1:pos:R:3:forces:R:3 energy=-2.182461471490179 pbc="F F F"
Ho       0.00000000       0.00000000       0.00000000       0.00000000       0.00000000       0.77705437
Ho       0.00000000       0.00000000       3.37777778       0.00000000       0.00000000      -0.77705437
2
Properties=species:S:1:pos:R:3:forces:R:3 energy=-2.133836457597155 pbc="F F F"
Ho       0.00000000       0.00000000       0.00000000       0.00000000       0.00000000       0.85117292
Ho       0.00000000       0.00000000       3.43737374       0.00000000       0.00000000      -0.85117292
2
Properties=species:S:1:pos:R:3:forces:R:3 energy=-2.0814051071787545 pbc="F F F"
Ho       0.00000000       0.00000000       0.00000000       0.00000000       0.00000000       0.90528888
Ho       0.00000000       0.00000000       3.49696970       0.00000000       0.00000000      -0.90528888
2
Properties=species:S:1:pos:R:3:forces:R:3 energy=-2.026279442149405 pbc="F F F"
Ho       0.00000000       0.00000000       0.00000000       0.00000000       0.00000000       0.94192499
Ho       0.00000000       0.00000000       3.55656566       0.00000000       0.00000000      -0.94192499
2
Properties=species:S:1:pos:R:3:forces:R:3 energy=-1.9694444326634484 pbc="F F F"
Ho       0.00000000       0.00000000       0.00000000       0.00000000       0.00000000       0.96296412
Ho       0.00000000       0.00000000       3.61616162       0.00000000       0.00000000      -0.96296412
2
Properties=species:S:1:pos:R:3:forces:R:3 energy=-1.9117809716618546 pbc="F F F"
Ho       0.00000000       0.00000000       0.00000000       0.00000000       0.00000000       0.97001725
Ho       0.00000000       0.00000000       3.67575758       0.00000000       0.00000000      -0.97001725
2
Properties=species:S:1:pos:R:3:forces:R:3 energy=-1.8540716476032708 pbc="F F F"
Ho       0.00000000       0.00000000       0.00000000       0.00000000       0.00000000       0.96476406
Ho       0.00000000       0.00000000       3.73535354       0.00000000       0.00000000      -0.96476406
2
Properties=species:S:1:pos:R:3:forces:R:3 energy=-1.7969939316955383 pbc="F F F"
Ho       0.00000000       0.00000000       0.00000000       0.00000000       0.00000000       0.94917387
Ho       0.00000000       0.00000000       3.79494949       0.00000000       0.00000000      -0.94917387
2
Properties=species:S:1:pos:R:3:forces:R:3 energy=-1.741095996248893 pbc="F F F"
Ho       0.00000000       0.00000000       0.00000000       0.00000000       0.00000000       0.92560208
Ho       0.00000000       0.00000000       3.85454545       0.00000000       0.00000000      -0.92560208
2
Properties=species:S:1:pos:R:3:forces:R:3 energy=-1.6867755967927354 pbc="F F F"
Ho       0.00000000       0.00000000       0.00000000       0.00000000       0.00000000       0.89671499
Ho       0.00000000       0.00000000       3.91414141       0.00000000       0.00000000      -0.89671499
2
Properties=species:S:1:pos:R:3:forces:R:3 energy=-1.6342659673655973 pbc="F F F"
Ho       0.00000000       0.00000000       0.00000000       0.00000000       0.00000000       0.86523926
Ho       0.00000000       0.00000000       3.97373737       0.00000000       0.00000000      -0.86523926
2
Properties=species:S:1:pos:R:3:forces:R:3 energy=-1.5836482637987173 pbc="F F F"
Ho       0.00000000       0.00000000       0.00000000       0.00000000       0.00000000       0.83362776
Ho       0.00000000       0.00000000       4.03333333       0.00000000       0.00000000      -0.83362776
2
Properties=species:S:1:pos:R:3:forces:R:3 energy=-1.534869569486455 pbc="F F F"
Ho       0.00000000       0.00000000       0.00000000       0.00000000       0.00000000       0.80372661
Ho       0.00000000       0.00000000       4.09292929       0.00000000       0.00000000      -0.80372661
2
Properties=species:S:1:pos:R:3:forces:R:3 energy=-1.4877941502131058 pbc="F F F"
Ho       0.00000000       0.00000000       0.00000000       0.00000000       0.00000000       0.77660179
Ho       0.00000000       0.00000000       4.15252525       0.00000000       0.00000000      -0.77660179
2
Properties=species:S:1:pos:R:3:forces:R:3 energy=-1.4422438039135677 pbc="F F F"
Ho       0.00000000       0.00000000       0.00000000       0.00000000       0.00000000       0.75255829
Ho       0.00000000       0.00000000       4.21212121       0.00000000       0.00000000      -0.75255829
2
Properties=species:S:1:pos:R:3:forces:R:3 energy=-1.398039326499172 pbc="F F F"
Ho       0.00000000       0.00000000       0.00000000       0.00000000       0.00000000       0.73130053
Ho       0.00000000       0.00000000       4.27171717       0.00000000       0.00000000      -0.73130053
2
Properties=species:S:1:pos:R:3:forces:R:3 energy=-1.3550367463140147 pbc="F F F"
Ho       0.00000000       0.00000000       0.00000000       0.00000000       0.00000000       0.71216023
Ho       0.00000000       0.00000000       4.33131313       0.00000000       0.00000000      -0.71216023
2
Properties=species:S:1:pos:R:3:forces:R:3 energy=-1.313130793875642 pbc="F F F"
Ho       0.00000000       0.00000000       0.00000000       0.00000000       0.00000000       0.69430900
Ho       0.00000000       0.00000000       4.39090909       0.00000000       0.00000000      -0.69430900
2
Properties=species:S:1:pos:R:3:forces:R:3 energy=-1.2722702176849112 pbc="F F F"
Ho       0.00000000       0.00000000       0.00000000       0.00000000       0.00000000       0.67694342
Ho       0.00000000       0.00000000       4.45050505       0.00000000       0.00000000      -0.67694342
2
Properties=species:S:1:pos:R:3:forces:R:3 energy=-1.2324484237129154 pbc="F F F"
Ho       0.00000000       0.00000000       0.00000000       0.00000000       0.00000000       0.65939122
Ho       0.00000000       0.00000000       4.51010101       0.00000000       0.00000000      -0.65939122
2
Properties=species:S:1:pos:R:3:forces:R:3 energy=-1.1936895089071722 pbc="F F F"
Ho       0.00000000       0.00000000       0.00000000       0.00000000       0.00000000       0.64114833
Ho       0.00000000       0.00000000       4.56969697       0.00000000       0.00000000      -0.64114833
2
Properties=species:S:1:pos:R:3:forces:R:3 energy=-1.1560485768058877 pbc="F F F"
Ho       0.00000000       0.00000000       0.00000000       0.00000000       0.00000000       0.62186736
Ho       0.00000000       0.00000000       4.62929293       0.00000000       0.00000000      -0.62186736
2
Properties=species:S:1:pos:R:3:forces:R:3 energy=-1.1195941872618624 pbc="F F F"
Ho       0.00000000       0.00000000       0.00000000       0.00000000       0.00000000       0.60131562
Ho       0.00000000       0.00000000       4.68888889       0.00000000       0.00000000      -0.60131562
2
Properties=species:S:1:pos:R:3:forces:R:3 energy=-1.0844050704354904 pbc="F F F"
Ho       0.00000000       0.00000000       0.00000000       0.00000000       0.00000000       0.57933444
Ho       0.00000000       0.00000000       4.74848485       0.00000000       0.00000000      -0.57933444
2
Properties=species:S:1:pos:R:3:forces:R:3 energy=-1.0505718072281498 pbc="F F F"
Ho       0.00000000       0.00000000       0.00000000       0.00000000       0.00000000       0.55587173
Ho       0.00000000       0.00000000       4.80808081       0.00000000       0.00000000      -0.55587173
2
Properties=species:S:1:pos:R:3:forces:R:3 energy=-1.0181778076489805 pbc="F F F"
Ho       0.00000000       0.00000000       0.00000000       0.00000000       0.00000000       0.53101140
Ho       0.00000000       0.00000000       4.86767677       0.00000000       0.00000000      -0.53101140
2
Properties=species:S:1:pos:R:3:forces:R:3 energy=-0.9872988328097752 pbc="F F F"
Ho       0.00000000       0.00000000       0.00000000       0.00000000       0.00000000       0.50514483
Ho       0.00000000       0.00000000       4.92727273       0.00000000       0.00000000      -0.50514483
2
Properties=species:S:1:pos:R:3:forces:R:3 energy=-0.9579732775498119 pbc="F F F"
Ho       0.00000000       0.00000000       0.00000000       0.00000000       0.00000000       0.47905165
Ho       0.00000000       0.00000000       4.98686869       0.00000000       0.00000000      -0.47905165
2
Properties=species:S:1:pos:R:3:forces:R:3 energy=-0.9301839440858425 pbc="F F F"
Ho       0.00000000       0.00000000       0.00000000       0.00000000       0.00000000       0.45390013
Ho       0.00000000       0.00000000       5.04646465       0.00000000       0.00000000      -0.45390013
2
Properties=species:S:1:pos:R:3:forces:R:3 energy=-0.9038310145974798 pbc="F F F"
Ho       0.00000000       0.00000000       0.00000000       0.00000000       0.00000000       0.43091846
Ho       0.00000000       0.00000000       5.10606061       0.00000000       0.00000000      -0.43091846
2
Properties=species:S:1:pos:R:3:forces:R:3 energy=-0.8787595707341032 pbc="F F F"
Ho       0.00000000       0.00000000       0.00000000       0.00000000       0.00000000       0.41082448
Ho       0.00000000       0.00000000       5.16565657       0.00000000       0.00000000      -0.41082448
2
Properties=species:S:1:pos:R:3:forces:R:3 energy=-0.8548185757026567 pbc="F F F"
Ho       0.00000000       0.00000000       0.00000000       0.00000000       0.00000000       0.39284000
Ho       0.00000000       0.00000000       5.22525253       0.00000000       0.00000000      -0.39284000
2
Properties=species:S:1:pos:R:3:forces:R:3 energy=-0.8319559019104019 pbc="F F F"
Ho       0.00000000       0.00000000       0.00000000       0.00000000       0.00000000       0.37392110
Ho       0.00000000       0.00000000       5.28484848       0.00000000       0.00000000      -0.37392110
2
Properties=species:S:1:pos:R:3:forces:R:3 energy=-0.8103525542893081 pbc="F F F"
Ho       0.00000000       0.00000000       0.00000000       0.00000000       0.00000000       0.35001248
Ho       0.00000000       0.00000000       5.34444444       0.00000000       0.00000000      -0.35001248
2
Properties=species:S:1:pos:R:3:forces:R:3 energy=-0.7903164599867543 pbc="F F F"
Ho       0.00000000       0.00000000       0.00000000       0.00000000       0.00000000       0.32251740
Ho       0.00000000       0.00000000       5.40404040       0.00000000       0.00000000      -0.32251740
2
Properties=species:S:1:pos:R:3:forces:R:3 energy=-0.7717470982782046 pbc="F F F"
Ho       0.00000000       0.00000000       0.00000000       0.00000000       0.00000000       0.30268803
Ho       0.00000000       0.00000000       5.46363636       0.00000000       0.00000000      -0.30268803
2
Properties=species:S:1:pos:R:3:forces:R:3 energy=-0.7540689970387746 pbc="F F F"
Ho       0.00000000       0.00000000       0.00000000       0.00000000       0.00000000       0.29059362
Ho       0.00000000       0.00000000       5.52323232       0.00000000       0.00000000      -0.29059362
2
Properties=species:S:1:pos:R:3:forces:R:3 energy=-0.737371993772408 pbc="F F F"
Ho       0.00000000       0.00000000       0.00000000       0.00000000       0.00000000       0.26660001
Ho       0.00000000       0.00000000       5.58282828       0.00000000       0.00000000      -0.26660001
2
Properties=species:S:1:pos:R:3:forces:R:3 energy=-0.7225532216272714 pbc="F F F"
Ho       0.00000000       0.00000000       0.00000000       0.00000000       0.00000000       0.23034245
Ho       0.00000000       0.00000000       5.64242424       0.00000000       0.00000000      -0.23034245
2
Properties=species:S:1:pos:R:3:forces:R:3 energy=-0.7096603893747313 pbc="F F F"
Ho       0.00000000       0.00000000       0.00000000       0.00000000       0.00000000       0.20671271
Ho       0.00000000       0.00000000       5.70202020       0.00000000       0.00000000      -0.20671271
2
Properties=species:S:1:pos:R:3:forces:R:3 energy=-0.6972657932550377 pbc="F F F"
Ho       0.00000000       0.00000000       0.00000000       0.00000000       0.00000000       0.21348549
Ho       0.00000000       0.00000000       5.76161616       0.00000000       0.00000000      -0.21348549
2
Properties=species:S:1:pos:R:3:forces:R:3 energy=-0.6844128310294469 pbc="F F F"
Ho       0.00000000       0.00000000       0.00000000       0.00000000       0.00000000       0.20973590
Ho       0.00000000       0.00000000       5.82121212       0.00000000       0.00000000      -0.20973590
2
Properties=species:S:1:pos:R:3:forces:R:3 energy=-0.673523931201032 pbc="F F F"
Ho       0.00000000       0.00000000       0.00000000       0.00000000       0.00000000       0.14787933
Ho       0.00000000       0.00000000       5.88080808       0.00000000       0.00000000      -0.14787933
2
Properties=species:S:1:pos:R:3:forces:R:3 energy=-0.667134502664975 pbc="F F F"
Ho       0.00000000       0.00000000       0.00000000       0.00000000       0.00000000       0.06783332
Ho       0.00000000       0.00000000       5.94040404       0.00000000       0.00000000      -0.06783332
2
Properties=species:S:1:pos:R:3:forces:R:3 energy=-0.6644688583583755 pbc="F F F"
Ho       0.00000000       0.00000000       0.00000000       0.00000000       0.00000000       0.03309826
Ho       0.00000000       0.00000000       6.00000000       0.00000000       0.00000000      -0.03309826
