2
Properties=species:S:1:pos:R:3:forces:R:3 energy=25065.337977383697 pbc="F F F"
Kr       0.00000000       0.00000000       0.00000000       0.00000000       0.00000000 -582234.12500000
Kr       0.00000000       0.00000000       0.10000000       0.00000000       0.00000000  582234.12500000
2
Properties=species:S:1:pos:R:3:forces:R:3 energy=7649.671473477446 pbc="F F F"
Kr       0.00000000       0.00000000       0.00000000       0.00000000       0.00000000 -132507.35937500
Kr       0.00000000       0.00000000       0.15959596       0.00000000       0.00000000  132507.35937500
2
Properties=species:S:1:pos:R:3:forces:R:3 energy=3015.678065274321 pbc="F F F"
Kr       0.00000000       0.00000000       0.00000000       0.00000000       0.00000000  -42825.62500000
Kr       0.00000000       0.00000000       0.21919192       0.00000000       0.00000000   42825.62500000
2
Properties=species:S:1:pos:R:3:forces:R:3 energy=1375.2010144962387 pbc="F F F"
Kr       0.00000000       0.00000000       0.00000000       0.00000000       0.00000000  -16889.80859375
Kr       0.00000000       0.00000000       0.27878788       0.00000000       0.00000000   16889.80859375
2
Properties=species:S:1:pos:R:3:forces:R:3 energy=690.4213514134689 pbc="F F F"
Kr       0.00000000       0.00000000       0.00000000       0.00000000       0.00000000   -7522.33496094
Kr       0.00000000       0.00000000       0.33838384       0.00000000       0.00000000    7522.33496094
2
Properties=species:S:1:pos:R:3:forces:R:3 energy=374.0454358987965 pbc="F F F"
Kr       0.00000000       0.00000000       0.00000000       0.00000000       0.00000000   -3621.43432617
Kr       0.00000000       0.00000000       0.39797980       0.00000000       0.00000000    3621.43432617
2
Properties=species:S:1:pos:R:3:forces:R:3 energy=217.93821241022903 pbc="F F F"
Kr       0.00000000       0.00000000       0.00000000       0.00000000       0.00000000   -1836.34741211
Kr       0.00000000       0.00000000       0.45757576       0.00000000       0.00000000    1836.34741211
2
Properties=species:S:1:pos:R:3:forces:R:3 energy=137.43780046410603 pbc="F F F"
Kr       0.00000000       0.00000000       0.00000000       0.00000000       0.00000000    -964.73004150
Kr       0.00000000       0.00000000       0.51717172       0.00000000       0.00000000     964.73004150
2
Properties=species:S:1:pos:R:3:forces:R:3 energy=94.58766473374328 pbc="F F F"
Kr       0.00000000       0.00000000       0.00000000       0.00000000       0.00000000    -522.30926514
Kr       0.00000000       0.00000000       0.57676768       0.00000000       0.00000000     522.30926514
2
Properties=species:S:1:pos:R:3:forces:R:3 energy=70.93515326060866 pbc="F F F"
Kr       0.00000000       0.00000000       0.00000000       0.00000000       0.00000000    -295.85455322
Kr       0.00000000       0.00000000       0.63636364       0.00000000       0.00000000     295.85455322
2
Properties=species:S:1:pos:R:3:forces:R:3 energy=57.64308879026559 pbc="F F F"
Kr       0.00000000       0.00000000       0.00000000       0.00000000       0.00000000    -161.26792908
Kr       0.00000000       0.00000000       0.69595960       0.00000000       0.00000000     161.26792908
2
Properties=species:S:1:pos:R:3:forces:R:3 energy=50.1118963148355 pbc="F F F"
Kr       0.00000000       0.00000000       0.00000000       0.00000000       0.00000000    -100.78101349
Kr       0.00000000       0.00000000       0.75555556       0.00000000       0.00000000     100.78101349
2
Properties=species:S:1:pos:R:3:forces:R:3 energy=45.063640844256085 pbc="F F F"
Kr       0.00000000       0.00000000       0.00000000       0.00000000       0.00000000     -70.59580231
Kr       0.00000000       0.00000000       0.81515152       0.00000000       0.00000000      70.59580231
2
Properties=species:S:1:pos:R:3:forces:R:3 energy=41.535473778553715 pbc="F F F"
Kr       0.00000000       0.00000000       0.00000000       0.00000000       0.00000000     -49.11983109
Kr       0.00000000       0.00000000       0.87474747       0.00000000       0.00000000      49.11983109
2
Properties=species:S:1:pos:R:3:forces:R:3 energy=39.04167358661442 pbc="F F F"
Kr       0.00000000       0.00000000       0.00000000       0.00000000       0.00000000     -36.16019058
Kr       0.00000000       0.00000000       0.93434343       0.00000000       0.00000000      36.16019058
2
Properties=species:S:1:pos:R:3:forces:R:3 energy=36.99792410981077 pbc="F F F"
Kr       0.00000000       0.00000000       0.00000000       0.00000000       0.00000000     -34.67214203
Kr       0.00000000       0.00000000       0.99393939       0.00000000       0.00000000      34.67214203
2
Properties=species:S:1:pos:R:3:forces:R:3 energy=34.647843451484185 pbc="F F F"
Kr       0.00000000       0.00000000       0.00000000       0.00000000       0.00000000     -45.68814468
Kr       0.00000000       0.00000000       1.05353535       0.00000000       0.00000000      45.68814468
2
Properties=species:S:1:pos:R:3:forces:R:3 energy=31.522929703173308 pbc="F F F"
Kr       0.00000000       0.00000000       0.00000000       0.00000000       0.00000000     -58.46020508
Kr       0.00000000       0.00000000       1.11313131       0.00000000       0.00000000      58.46020508
2
Properties=species:S:1:pos:R:3:forces:R:3 energy=27.811085461159475 pbc="F F F"
Kr       0.00000000       0.00000000       0.00000000       0.00000000       0.00000000     -64.93057251
Kr       0.00000000       0.00000000       1.17272727       0.00000000       0.00000000      64.93057251
2
Properties=species:S:1:pos:R:3:forces:R:3 energy=23.89313213720371 pbc="F F F"
Kr       0.00000000       0.00000000       0.00000000       0.00000000       0.00000000     -65.94187927
Kr       0.00000000       0.00000000       1.23232323       0.00000000       0.00000000      65.94187927
2
Properties=species:S:1:pos:R:3:forces:R:3 energy=20.004696154749762 pbc="F F F"
Kr       0.00000000       0.00000000       0.00000000       0.00000000       0.00000000     -64.13141632
Kr       0.00000000       0.00000000       1.29191919       0.00000000       0.00000000      64.13141632
2
Properties=species:S:1:pos:R:3:forces:R:3 energy=16.3128023859858 pbc="F F F"
Kr       0.00000000       0.00000000       0.00000000       0.00000000       0.00000000     -59.10993958
Kr       0.00000000       0.00000000       1.35151515       0.00000000       0.00000000      59.10993958
2
Properties=species:S:1:pos:R:3:forces:R:3 energy=13.03443586168833 pbc="F F F"
Kr       0.00000000       0.00000000       0.00000000       0.00000000       0.00000000     -50.45143509
Kr       0.00000000       0.00000000       1.41111111       0.00000000       0.00000000      50.45143509
2
Properties=species:S:1:pos:R:3:forces:R:3 energy=10.319978009071155 pbc="F F F"
Kr       0.00000000       0.00000000       0.00000000       0.00000000       0.00000000     -40.72068024
Kr       0.00000000       0.00000000       1.47070707       0.00000000       0.00000000      40.72068024
2
Properties=species:S:1:pos:R:3:forces:R:3 energy=8.158087156460095 pbc="F F F"
Kr       0.00000000       0.00000000       0.00000000       0.00000000       0.00000000     -32.06442642
Kr       0.00000000       0.00000000       1.53030303       0.00000000       0.00000000      32.06442642
2
Properties=species:S:1:pos:R:3:forces:R:3 energy=6.469641207183108 pbc="F F F"
Kr       0.00000000       0.00000000       0.00000000       0.00000000       0.00000000     -24.84173393
Kr       0.00000000       0.00000000       1.58989899       0.00000000       0.00000000      24.84173393
2
Properties=species:S:1:pos:R:3:forces:R:3 energy=5.1682115394781665 pbc="F F F"
Kr       0.00000000       0.00000000       0.00000000       0.00000000       0.00000000     -19.06991005
Kr       0.00000000       0.00000000       1.64949495       0.00000000       0.00000000      19.06991005
2
Properties=species:S:1:pos:R:3:forces:R:3 energy=4.170342210455209 pbc="F F F"
Kr       0.00000000       0.00000000       0.00000000       0.00000000       0.00000000     -14.61841488
Kr       0.00000000       0.00000000       1.70909091       0.00000000       0.00000000      14.61841488
2
Properties=species:S:1:pos:R:3:forces:R:3 energy=3.4045688319316434 pbc="F F F"
Kr       0.00000000       0.00000000       0.00000000       0.00000000       0.00000000     -11.23711300
Kr       0.00000000       0.00000000       1.76868687       0.00000000       0.00000000      11.23711300
2
Properties=species:S:1:pos:R:3:forces:R:3 energy=2.8145843335073466 pbc="F F F"
Kr       0.00000000       0.00000000       0.00000000       0.00000000       0.00000000      -8.68252850
Kr       0.00000000       0.00000000       1.82828283       0.00000000       0.00000000       8.68252850
2
Properties=species:S:1:pos:R:3:forces:R:3 energy=2.3570824411741094 pbc="F F F"
Kr       0.00000000       0.00000000       0.00000000       0.00000000       0.00000000      -6.76340294
Kr       0.00000000       0.00000000       1.88787879       0.00000000       0.00000000       6.76340294
2
Properties=species:S:1:pos:R:3:forces:R:3 energy=1.9987903481905414 pbc="F F F"
Kr       0.00000000       0.00000000       0.00000000       0.00000000       0.00000000      -5.33106375
Kr       0.00000000       0.00000000       1.94747475       0.00000000       0.00000000       5.33106375
2
Properties=species:S:1:pos:R:3:forces:R:3 energy=1.7143868282102444 pbc="F F F"
Kr       0.00000000       0.00000000       0.00000000       0.00000000       0.00000000      -4.26584053
Kr       0.00000000       0.00000000       2.00707071       0.00000000       0.00000000       4.26584053
2
Properties=species:S:1:pos:R:3:forces:R:3 energy=1.484944546502185 pbc="F F F"
Kr       0.00000000       0.00000000       0.00000000       0.00000000       0.00000000      -3.47278690
Kr       0.00000000       0.00000000       2.06666667       0.00000000       0.00000000       3.47278690
2
Properties=species:S:1:pos:R:3:forces:R:3 energy=1.296491197490172 pbc="F F F"
Kr       0.00000000       0.00000000       0.00000000       0.00000000       0.00000000      -2.88008761
Kr       0.00000000       0.00000000       2.12626263       0.00000000       0.00000000       2.88008761
2
Properties=species:S:1:pos:R:3:forces:R:3 energy=1.1387314746308723 pbc="F F F"
Kr       0.00000000       0.00000000       0.00000000       0.00000000       0.00000000      -2.43542886
Kr       0.00000000       0.00000000       2.18585859       0.00000000       0.00000000       2.43542886
2
Properties=species:S:1:pos:R:3:forces:R:3 energy=1.004030795381278 pbc="F F F"
Kr       0.00000000       0.00000000       0.00000000       0.00000000       0.00000000      -2.10076141
Kr       0.00000000       0.00000000       2.24545455       0.00000000       0.00000000       2.10076141
2
Properties=species:S:1:pos:R:3:forces:R:3 energy=0.886723959595247 pbc="F F F"
Kr       0.00000000       0.00000000       0.00000000       0.00000000       0.00000000      -1.84750593
Kr       0.00000000       0.00000000       2.30505051       0.00000000       0.00000000       1.84750593
2
Properties=species:S:1:pos:R:3:forces:R:3 energy=0.7826523695579993 pbc="F F F"
Kr       0.00000000       0.00000000       0.00000000       0.00000000       0.00000000      -1.65329981
Kr       0.00000000       0.00000000       2.36464646       0.00000000       0.00000000       1.65329981
2
Properties=species:S:1:pos:R:3:forces:R:3 energy=0.6888483010149201 pbc="F F F"
Kr       0.00000000       0.00000000       0.00000000       0.00000000       0.00000000      -1.50026083
Kr       0.00000000       0.00000000       2.42424242       0.00000000       0.00000000       1.50026083
2
Properties=species:S:1:pos:R:3:forces:R:3 energy=0.6032978364923549 pbc="F F F"
Kr       0.00000000       0.00000000       0.00000000       0.00000000       0.00000000      -1.37426960
Kr       0.00000000       0.00000000       2.48383838       0.00000000       0.00000000       1.37426960
2
Properties=species:S:1:pos:R:3:forces:R:3 energy=0.5247262885764182 pbc="F F F"
Kr       0.00000000       0.00000000       0.00000000       0.00000000       0.00000000      -1.26452184
Kr       0.00000000       0.00000000       2.54343434       0.00000000       0.00000000       1.26452184
2
Properties=species:S:1:pos:R:3:forces:R:3 energy=0.45240903952907774 pbc="F F F"
Kr       0.00000000       0.00000000       0.00000000       0.00000000       0.00000000      -1.16334772
Kr       0.00000000       0.00000000       2.60303030       0.00000000       0.00000000       1.16334772
2
Properties=species:S:1:pos:R:3:forces:R:3 energy=0.3859899823723462 pbc="F F F"
Kr       0.00000000       0.00000000       0.00000000       0.00000000       0.00000000      -1.06599820
Kr       0.00000000       0.00000000       2.66262626       0.00000000       0.00000000       1.06599820
2
Properties=species:S:1:pos:R:3:forces:R:3 energy=0.3253193221026599 pbc="F F F"
Kr       0.00000000       0.00000000       0.00000000       0.00000000       0.00000000      -0.97028714
Kr       0.00000000       0.00000000       2.72222222       0.00000000       0.00000000       0.97028714
2
Properties=species:S:1:pos:R:3:forces:R:3 energy=0.2703117838685255 pbc="F F F"
Kr       0.00000000       0.00000000       0.00000000       0.00000000       0.00000000      -0.87603259
Kr       0.00000000       0.00000000       2.78181818       0.00000000       0.00000000       0.87603259
2
Properties=species:S:1:pos:R:3:forces:R:3 energy=0.2208524826892317 pbc="F F F"
Kr       0.00000000       0.00000000       0.00000000       0.00000000       0.00000000      -0.78433716
Kr       0.00000000       0.00000000       2.84141414       0.00000000       0.00000000       0.78433716
2
Properties=species:S:1:pos:R:3:forces:R:3 energy=0.17674255263944894 pbc="F F F"
Kr       0.00000000       0.00000000       0.00000000       0.00000000       0.00000000      -0.69681245
Kr       0.00000000       0.00000000       2.90101010       0.00000000       0.00000000       0.69681245
2
Properties=species:S:1:pos:R:3:forces:R:3 energy=0.13768562868217768 pbc="F F F"
Kr       0.00000000       0.00000000       0.00000000       0.00000000       0.00000000      -0.61494100
Kr       0.00000000       0.00000000       2.96060606       0.00000000       0.00000000       0.61494100
2
Properties=species:S:1:pos:R:3:forces:R:3 energy=0.10331429787576411 pbc="F F F"
Kr       0.00000000       0.00000000       0.00000000       0.00000000       0.00000000      -0.53969711
Kr       0.00000000       0.00000000       3.02020202       0.00000000       0.00000000       0.53969711
2
Properties=species:S:1:pos:R:3:forces:R:3 energy=0.07321911844737566 pbc="F F F"
Kr       0.00000000       0.00000000       0.00000000       0.00000000       0.00000000      -0.47143993
Kr       0.00000000       0.00000000       3.07979798       0.00000000       0.00000000       0.47143993
2
Properties=species:S:1:pos:R:3:forces:R:3 energy=0.04698639875835808 pbc="F F F"
Kr       0.00000000       0.00000000       0.00000000       0.00000000       0.00000000      -0.41001919
Kr       0.00000000       0.00000000       3.13939394       0.00000000       0.00000000       0.41001919
2
Properties=species:S:1:pos:R:3:forces:R:3 energy=0.02422146629038786 pbc="F F F"
Kr       0.00000000       0.00000000       0.00000000       0.00000000       0.00000000      -0.35496560
Kr       0.00000000       0.00000000       3.19898990       0.00000000       0.00000000       0.35496560
2
Properties=species:S:1:pos:R:3:forces:R:3 energy=0.004562784796791151 pbc="F F F"
Kr       0.00000000       0.00000000       0.00000000       0.00000000       0.00000000      -0.30567506
Kr       0.00000000       0.00000000       3.25858586       0.00000000       0.00000000       0.30567506
2
Properties=species:S:1:pos:R:3:forces:R:3 energy=-0.012314967138759944 pbc="F F F"
Kr       0.00000000       0.00000000       0.00000000       0.00000000       0.00000000      -0.26154324
Kr       0.00000000       0.00000000       3.31818182       0.00000000       0.00000000       0.26154324
2
Properties=species:S:1:pos:R:3:forces:R:3 energy=-0.026702896317657498 pbc="F F F"
Kr       0.00000000       0.00000000       0.00000000       0.00000000       0.00000000      -0.22203843
Kr       0.00000000       0.00000000       3.37777778       0.00000000       0.00000000       0.22203843
2
Properties=species:S:1:pos:R:3:forces:R:3 energy=-0.038863301172037 pbc="F F F"
Kr       0.00000000       0.00000000       0.00000000       0.00000000       0.00000000      -0.18672323
Kr       0.00000000       0.00000000       3.43737374       0.00000000       0.00000000       0.18672323
2
Properties=species:S:1:pos:R:3:forces:R:3 energy=-0.04903523110133233 pbc="F F F"
Kr       0.00000000       0.00000000       0.00000000       0.00000000       0.00000000      -0.15525435
Kr       0.00000000       0.00000000       3.49696970       0.00000000       0.00000000       0.15525435
2
Properties=species:S:1:pos:R:3:forces:R:3 energy=-0.057439398926749784 pbc="F F F"
Kr       0.00000000       0.00000000       0.00000000       0.00000000       0.00000000      -0.12735648
Kr       0.00000000       0.00000000       3.55656566       0.00000000       0.00000000       0.12735648
2
Properties=species:S:1:pos:R:3:forces:R:3 energy=-0.06428144999723773 pbc="F F F"
Kr       0.00000000       0.00000000       0.00000000       0.00000000       0.00000000      -0.10279812
Kr       0.00000000       0.00000000       3.61616162       0.00000000       0.00000000       0.10279812
2
Properties=species:S:1:pos:R:3:forces:R:3 energy=-0.06975415374861058 pbc="F F F"
Kr       0.00000000       0.00000000       0.00000000       0.00000000       0.00000000      -0.08136721
Kr       0.00000000       0.00000000       3.67575758       0.00000000       0.00000000       0.08136721
2
Properties=species:S:1:pos:R:3:forces:R:3 energy=-0.07403767664967556 pbc="F F F"
Kr       0.00000000       0.00000000       0.00000000       0.00000000       0.00000000      -0.06285284
Kr       0.00000000       0.00000000       3.73535354       0.00000000       0.00000000       0.06285284
2
Properties=species:S:1:pos:R:3:forces:R:3 energy=-0.07729940157438482 pbc="F F F"
Kr       0.00000000       0.00000000       0.00000000       0.00000000       0.00000000      -0.04704019
Kr       0.00000000       0.00000000       3.79494949       0.00000000       0.00000000       0.04704019
2
Properties=species:S:1:pos:R:3:forces:R:3 energy=-0.07969375667745397 pbc="F F F"
Kr       0.00000000       0.00000000       0.00000000       0.00000000       0.00000000      -0.03370706
Kr       0.00000000       0.00000000       3.85454545       0.00000000       0.00000000       0.03370706
2
Properties=species:S:1:pos:R:3:forces:R:3 energy=-0.08136177250077552 pbc="F F F"
Kr       0.00000000       0.00000000       0.00000000       0.00000000       0.00000000      -0.02262745
Kr       0.00000000       0.00000000       3.91414141       0.00000000       0.00000000       0.02262745
2
Properties=species:S:1:pos:R:3:forces:R:3 energy=-0.08243104783532228 pbc="F F F"
Kr       0.00000000       0.00000000       0.00000000       0.00000000       0.00000000      -0.01357495
Kr       0.00000000       0.00000000       3.97373737       0.00000000       0.00000000       0.01357495
2
Properties=species:S:1:pos:R:3:forces:R:3 energy=-0.08301566735777152 pbc="F F F"
Kr       0.00000000       0.00000000       0.00000000       0.00000000       0.00000000      -0.00632793
Kr       0.00000000       0.00000000       4.03333333       0.00000000       0.00000000       0.00632793
2
Properties=species:S:1:pos:R:3:forces:R:3 energy=-0.08321681457798406 pbc="F F F"
Kr       0.00000000       0.00000000       0.00000000       0.00000000       0.00000000      -0.00066981
Kr       0.00000000       0.00000000       4.09292929       0.00000000       0.00000000       0.00066981
2
Properties=species:S:1:pos:R:3:forces:R:3 energy=-0.08312292994709326 pbc="F F F"
Kr       0.00000000       0.00000000       0.00000000       0.00000000       0.00000000       0.00360786
Kr       0.00000000       0.00000000       4.15252525       0.00000000       0.00000000      -0.00360786
2
Properties=species:S:1:pos:R:3:forces:R:3 energy=-0.08281020676358164 pbc="F F F"
Kr       0.00000000       0.00000000       0.00000000       0.00000000       0.00000000       0.00670686
Kr       0.00000000       0.00000000       4.21212121       0.00000000       0.00000000      -0.00670686
2
Properties=species:S:1:pos:R:3:forces:R:3 energy=-0.08234309913567733 pbc="F F F"
Kr       0.00000000       0.00000000       0.00000000       0.00000000       0.00000000       0.00882068
Kr       0.00000000       0.00000000       4.27171717       0.00000000       0.00000000      -0.00882068
2
Properties=species:S:1:pos:R:3:forces:R:3 energy=-0.08177477297596752 pbc="F F F"
Kr       0.00000000       0.00000000       0.00000000       0.00000000       0.00000000       0.01013357
Kr       0.00000000       0.00000000       4.33131313       0.00000000       0.00000000      -0.01013357
2
Properties=species:S:1:pos:R:3:forces:R:3 energy=-0.0811476995259856 pbc="F F F"
Kr       0.00000000       0.00000000       0.00000000       0.00000000       0.00000000       0.01081832
Kr       0.00000000       0.00000000       4.39090909       0.00000000       0.00000000      -0.01081832
2
Properties=species:S:1:pos:R:3:forces:R:3 energy=-0.08049463264319964 pbc="F F F"
Kr       0.00000000       0.00000000       0.00000000       0.00000000       0.00000000       0.01103375
Kr       0.00000000       0.00000000       4.45050505       0.00000000       0.00000000      -0.01103375
2
Properties=species:S:1:pos:R:3:forces:R:3 energy=-0.07983905818072214 pbc="F F F"
Kr       0.00000000       0.00000000       0.00000000       0.00000000       0.00000000       0.01092252
Kr       0.00000000       0.00000000       4.51010101       0.00000000       0.00000000      -0.01092252
2
Properties=species:S:1:pos:R:3:forces:R:3 energy=-0.07919674054025198 pbc="F F F"
Kr       0.00000000       0.00000000       0.00000000       0.00000000       0.00000000       0.01061019
Kr       0.00000000       0.00000000       4.56969697       0.00000000       0.00000000      -0.01061019
2
Properties=species:S:1:pos:R:3:forces:R:3 energy=-0.07857624588063583 pbc="F F F"
Kr       0.00000000       0.00000000       0.00000000       0.00000000       0.00000000       0.01020554
Kr       0.00000000       0.00000000       4.62929293       0.00000000       0.00000000      -0.01020554
2
Properties=species:S:1:pos:R:3:forces:R:3 energy=-0.0779802805235282 pbc="F F F"
Kr       0.00000000       0.00000000       0.00000000       0.00000000       0.00000000       0.00980036
Kr       0.00000000       0.00000000       4.68888889       0.00000000       0.00000000      -0.00980036
2
Properties=species:S:1:pos:R:3:forces:R:3 energy=-0.07740664139790022 pbc="F F F"
Kr       0.00000000       0.00000000       0.00000000       0.00000000       0.00000000       0.00946826
Kr       0.00000000       0.00000000       4.74848485       0.00000000       0.00000000      -0.00946826
2
Properties=species:S:1:pos:R:3:forces:R:3 energy=-0.07684928003514793 pbc="F F F"
Kr       0.00000000       0.00000000       0.00000000       0.00000000       0.00000000       0.00925932
Kr       0.00000000       0.00000000       4.80808081       0.00000000       0.00000000      -0.00925932
2
Properties=species:S:1:pos:R:3:forces:R:3 energy=-0.07630018876492811 pbc="F F F"
Kr       0.00000000       0.00000000       0.00000000       0.00000000       0.00000000       0.00919137
Kr       0.00000000       0.00000000       4.86767677       0.00000000       0.00000000      -0.00919137
2
Properties=species:S:1:pos:R:3:forces:R:3 energy=-0.07575144430012469 pbc="F F F"
Kr       0.00000000       0.00000000       0.00000000       0.00000000       0.00000000       0.00923852
Kr       0.00000000       0.00000000       4.92727273       0.00000000       0.00000000      -0.00923852
2
Properties=species:S:1:pos:R:3:forces:R:3 energy=-0.07519821496857283 pbc="F F F"
Kr       0.00000000       0.00000000       0.00000000       0.00000000       0.00000000       0.00932503
Kr       0.00000000       0.00000000       4.98686869       0.00000000       0.00000000      -0.00932503
2
Properties=species:S:1:pos:R:3:forces:R:3 energy=-0.07464151944977278 pbc="F F F"
Kr       0.00000000       0.00000000       0.00000000       0.00000000       0.00000000       0.00933318
Kr       0.00000000       0.00000000       5.04646465       0.00000000       0.00000000      -0.00933318
2
Properties=species:S:1:pos:R:3:forces:R:3 energy=-0.07408986241181842 pbc="F F F"
Kr       0.00000000       0.00000000       0.00000000       0.00000000       0.00000000       0.00913739
Kr       0.00000000       0.00000000       5.10606061       0.00000000       0.00000000      -0.00913739
2
Properties=species:S:1:pos:R:3:forces:R:3 energy=-0.07355800995933612 pbc="F F F"
Kr       0.00000000       0.00000000       0.00000000       0.00000000       0.00000000       0.00866352
Kr       0.00000000       0.00000000       5.16565657       0.00000000       0.00000000      -0.00866352
2
Properties=species:S:1:pos:R:3:forces:R:3 energy=-0.07306192410363146 pbc="F F F"
Kr       0.00000000       0.00000000       0.00000000       0.00000000       0.00000000       0.00795822
Kr       0.00000000       0.00000000       5.22525253       0.00000000       0.00000000      -0.00795822
2
Properties=species:S:1:pos:R:3:forces:R:3 energy=-0.07261023112894721 pbc="F F F"
Kr       0.00000000       0.00000000       0.00000000       0.00000000       0.00000000       0.00721764
Kr       0.00000000       0.00000000       5.28484848       0.00000000       0.00000000      -0.00721764
2
Properties=species:S:1:pos:R:3:forces:R:3 energy=-0.07219689170107725 pbc="F F F"
Kr       0.00000000       0.00000000       0.00000000       0.00000000       0.00000000       0.00671132
Kr       0.00000000       0.00000000       5.34444444       0.00000000       0.00000000      -0.00671132
2
Properties=species:S:1:pos:R:3:forces:R:3 energy=-0.0718033042339645 pbc="F F F"
Kr       0.00000000       0.00000000       0.00000000       0.00000000       0.00000000       0.00653955
Kr       0.00000000       0.00000000       5.40404040       0.00000000       0.00000000      -0.00653955
2
Properties=species:S:1:pos:R:3:forces:R:3 energy=-0.07141697777458196 pbc="F F F"
Kr       0.00000000       0.00000000       0.00000000       0.00000000       0.00000000       0.00638477
Kr       0.00000000       0.00000000       5.46363636       0.00000000       0.00000000      -0.00638477
2
Properties=species:S:1:pos:R:3:forces:R:3 energy=-0.07104910950647185 pbc="F F F"
Kr       0.00000000       0.00000000       0.00000000       0.00000000       0.00000000       0.00592166
Kr       0.00000000       0.00000000       5.52323232       0.00000000       0.00000000      -0.00592166
2
Properties=species:S:1:pos:R:3:forces:R:3 energy=-0.0707110939340761 pbc="F F F"
Kr       0.00000000       0.00000000       0.00000000       0.00000000       0.00000000       0.00545215
Kr       0.00000000       0.00000000       5.58282828       0.00000000       0.00000000      -0.00545215
2
Properties=species:S:1:pos:R:3:forces:R:3 energy=-0.07039562734538997 pbc="F F F"
Kr       0.00000000       0.00000000       0.00000000       0.00000000       0.00000000       0.00515417
Kr       0.00000000       0.00000000       5.64242424       0.00000000       0.00000000      -0.00515417
2
Properties=species:S:1:pos:R:3:forces:R:3 energy=-0.07009788171605706 pbc="F F F"
Kr       0.00000000       0.00000000       0.00000000       0.00000000       0.00000000       0.00477779
Kr       0.00000000       0.00000000       5.70202020       0.00000000       0.00000000      -0.00477779
2
Properties=species:S:1:pos:R:3:forces:R:3 energy=-0.0698387008676259 pbc="F F F"
Kr       0.00000000       0.00000000       0.00000000       0.00000000       0.00000000       0.00381201
Kr       0.00000000       0.00000000       5.76161616       0.00000000       0.00000000      -0.00381201
2
Properties=species:S:1:pos:R:3:forces:R:3 energy=-0.069647608194067 pbc="F F F"
Kr       0.00000000       0.00000000       0.00000000       0.00000000       0.00000000       0.00266844
Kr       0.00000000       0.00000000       5.82121212       0.00000000       0.00000000      -0.00266844
2
Properties=species:S:1:pos:R:3:forces:R:3 energy=-0.06950611546499658 pbc="F F F"
Kr       0.00000000       0.00000000       0.00000000       0.00000000       0.00000000       0.00219745
Kr       0.00000000       0.00000000       5.88080808       0.00000000       0.00000000      -0.00219745
2
Properties=species:S:1:pos:R:3:forces:R:3 energy=-0.06937723291851308 pbc="F F F"
Kr       0.00000000       0.00000000       0.00000000       0.00000000       0.00000000       0.00215668
Kr       0.00000000       0.00000000       5.94040404       0.00000000       0.00000000      -0.00215668
2
Properties=species:S:1:pos:R:3:forces:R:3 energy=-0.06924976731860122 pbc="F F F"
Kr       0.00000000       0.00000000       0.00000000       0.00000000       0.00000000       0.00209550
Kr       0.00000000       0.00000000       6.00000000       0.00000000       0.00000000      -0.00209550
