2
Properties=species:S:1:pos:R:3:forces:R:3 energy=3988.659026837192 pbc="F F F"
Na       0.00000000       0.00000000       0.00000000       0.00000000       0.00000000  -72181.03906250
Na       0.00000000       0.00000000       0.10000000       0.00000000       0.00000000   72181.03906250
2
Properties=species:S:1:pos:R:3:forces:R:3 energy=1693.4899594543792 pbc="F F F"
Na       0.00000000       0.00000000       0.00000000       0.00000000       0.00000000  -19118.98828125
Na       0.00000000       0.00000000       0.15959596       0.00000000       0.00000000   19118.98828125
2
Properties=species:S:1:pos:R:3:forces:R:3 energy=989.2679745910981 pbc="F F F"
Na       0.00000000       0.00000000       0.00000000       0.00000000       0.00000000   -6984.10449219
Na       0.00000000       0.00000000       0.21919192       0.00000000       0.00000000    6984.10449219
2
Properties=species:S:1:pos:R:3:forces:R:3 energy=706.8068539856293 pbc="F F F"
Na       0.00000000       0.00000000       0.00000000       0.00000000       0.00000000   -3154.67211914
Na       0.00000000       0.00000000       0.27878788       0.00000000       0.00000000    3154.67211914
2
Properties=species:S:1:pos:R:3:forces:R:3 energy=566.7934872864106 pbc="F F F"
Na       0.00000000       0.00000000       0.00000000       0.00000000       0.00000000   -1771.23828125
Na       0.00000000       0.00000000       0.33838384       0.00000000       0.00000000    1771.23828125
2
Properties=species:S:1:pos:R:3:forces:R:3 energy=478.16754124148866 pbc="F F F"
Na       0.00000000       0.00000000       0.00000000       0.00000000       0.00000000   -1297.13586426
Na       0.00000000       0.00000000       0.39797980       0.00000000       0.00000000    1297.13586426
2
Properties=species:S:1:pos:R:3:forces:R:3 energy=404.584167221219 pbc="F F F"
Na       0.00000000       0.00000000       0.00000000       0.00000000       0.00000000   -1213.46569824
Na       0.00000000       0.00000000       0.45757576       0.00000000       0.00000000    1213.46569824
2
Properties=species:S:1:pos:R:3:forces:R:3 energy=330.58322118263277 pbc="F F F"
Na       0.00000000       0.00000000       0.00000000       0.00000000       0.00000000   -1280.36572266
Na       0.00000000       0.00000000       0.51717172       0.00000000       0.00000000    1280.36572266
2
Properties=species:S:1:pos:R:3:forces:R:3 energy=252.11302160717528 pbc="F F F"
Na       0.00000000       0.00000000       0.00000000       0.00000000       0.00000000   -1342.31494141
Na       0.00000000       0.00000000       0.57676768       0.00000000       0.00000000    1342.31494141
2
Properties=species:S:1:pos:R:3:forces:R:3 energy=172.67376686385612 pbc="F F F"
Na       0.00000000       0.00000000       0.00000000       0.00000000       0.00000000   -1299.60925293
Na       0.00000000       0.00000000       0.63636364       0.00000000       0.00000000    1299.60925293
2
Properties=species:S:1:pos:R:3:forces:R:3 energy=101.27526072623183 pbc="F F F"
Na       0.00000000       0.00000000       0.00000000       0.00000000       0.00000000   -1007.41870117
Na       0.00000000       0.00000000       0.69595960       0.00000000       0.00000000    1007.41870117
2
Properties=species:S:1:pos:R:3:forces:R:3 energy=51.001453244946575 pbc="F F F"
Na       0.00000000       0.00000000       0.00000000       0.00000000       0.00000000    -683.67730713
Na       0.00000000       0.00000000       0.75555556       0.00000000       0.00000000     683.67730713
2
Properties=species:S:1:pos:R:3:forces:R:3 energy=20.886131195265907 pbc="F F F"
Na       0.00000000       0.00000000       0.00000000       0.00000000       0.00000000    -342.95001221
Na       0.00000000       0.00000000       0.81515152       0.00000000       0.00000000     342.95001221
2
Properties=species:S:1:pos:R:3:forces:R:3 energy=7.397711274351891 pbc="F F F"
Na       0.00000000       0.00000000       0.00000000       0.00000000       0.00000000    -122.60922241
Na       0.00000000       0.00000000       0.87474747       0.00000000       0.00000000     122.60922241
2
Properties=species:S:1:pos:R:3:forces:R:3 energy=3.1893178288877015 pbc="F F F"
Na       0.00000000       0.00000000       0.00000000       0.00000000       0.00000000     -43.82621765
Na       0.00000000       0.00000000       0.93434343       0.00000000       0.00000000      43.82621765
2
Properties=species:S:1:pos:R:3:forces:R:3 energy=2.3007376856040276 pbc="F F F"
Na       0.00000000       0.00000000       0.00000000       0.00000000       0.00000000       1.66734827
Na       0.00000000       0.00000000       0.99393939       0.00000000       0.00000000      -1.66734827
2
Properties=species:S:1:pos:R:3:forces:R:3 energy=2.7410324305241605 pbc="F F F"
Na       0.00000000       0.00000000       0.00000000       0.00000000       0.00000000      11.27158642
Na       0.00000000       0.00000000       1.05353535       0.00000000       0.00000000     -11.27158642
2
Properties=species:S:1:pos:R:3:forces:R:3 energy=3.526309166605887 pbc="F F F"
Na       0.00000000       0.00000000       0.00000000       0.00000000       0.00000000      14.78010559
Na       0.00000000       0.00000000       1.11313131       0.00000000       0.00000000     -14.78010559
2
Properties=species:S:1:pos:R:3:forces:R:3 energy=4.4169543798361195 pbc="F F F"
Na       0.00000000       0.00000000       0.00000000       0.00000000       0.00000000      13.81671810
Na       0.00000000       0.00000000       1.17272727       0.00000000       0.00000000     -13.81671810
2
Properties=species:S:1:pos:R:3:forces:R:3 energy=5.032333312442862 pbc="F F F"
Na       0.00000000       0.00000000       0.00000000       0.00000000       0.00000000       6.17279387
Na       0.00000000       0.00000000       1.23232323       0.00000000       0.00000000      -6.17279387
2
Properties=species:S:1:pos:R:3:forces:R:3 energy=5.140449219846961 pbc="F F F"
Na       0.00000000       0.00000000       0.00000000       0.00000000       0.00000000      -2.26720738
Na       0.00000000       0.00000000       1.29191919       0.00000000       0.00000000       2.26720738
2
Properties=species:S:1:pos:R:3:forces:R:3 energy=4.812883497404618 pbc="F F F"
Na       0.00000000       0.00000000       0.00000000       0.00000000       0.00000000      -8.24133396
Na       0.00000000       0.00000000       1.35151515       0.00000000       0.00000000       8.24133396
2
Properties=species:S:1:pos:R:3:forces:R:3 energy=4.213672937090978 pbc="F F F"
Na       0.00000000       0.00000000       0.00000000       0.00000000       0.00000000     -11.44780922
Na       0.00000000       0.00000000       1.41111111       0.00000000       0.00000000      11.44780922
2
Properties=species:S:1:pos:R:3:forces:R:3 energy=3.49153737718885 pbc="F F F"
Na       0.00000000       0.00000000       0.00000000       0.00000000       0.00000000     -12.47517776
Na       0.00000000       0.00000000       1.47070707       0.00000000       0.00000000      12.47517776
2
Properties=species:S:1:pos:R:3:forces:R:3 energy=2.7591913990047763 pbc="F F F"
Na       0.00000000       0.00000000       0.00000000       0.00000000       0.00000000     -11.87264824
Na       0.00000000       0.00000000       1.53030303       0.00000000       0.00000000      11.87264824
2
Properties=species:S:1:pos:R:3:forces:R:3 energy=2.096364382930063 pbc="F F F"
Na       0.00000000       0.00000000       0.00000000       0.00000000       0.00000000     -10.27366543
Na       0.00000000       0.00000000       1.58989899       0.00000000       0.00000000      10.27366543
2
Properties=species:S:1:pos:R:3:forces:R:3 energy=1.5389808349025733 pbc="F F F"
Na       0.00000000       0.00000000       0.00000000       0.00000000       0.00000000      -8.44203854
Na       0.00000000       0.00000000       1.64949495       0.00000000       0.00000000       8.44203854
2
Properties=species:S:1:pos:R:3:forces:R:3 energy=1.0860051485619773 pbc="F F F"
Na       0.00000000       0.00000000       0.00000000       0.00000000       0.00000000      -6.80757236
Na       0.00000000       0.00000000       1.70909091       0.00000000       0.00000000       6.80757236
2
Properties=species:S:1:pos:R:3:forces:R:3 energy=0.7214233134862014 pbc="F F F"
Na       0.00000000       0.00000000       0.00000000       0.00000000       0.00000000      -5.47969294
Na       0.00000000       0.00000000       1.76868687       0.00000000       0.00000000       5.47969294
2
Properties=species:S:1:pos:R:3:forces:R:3 energy=0.42681274278314235 pbc="F F F"
Na       0.00000000       0.00000000       0.00000000       0.00000000       0.00000000      -4.45655870
Na       0.00000000       0.00000000       1.82828283       0.00000000       0.00000000       4.45655870
2
Properties=species:S:1:pos:R:3:forces:R:3 energy=0.18463667349249335 pbc="F F F"
Na       0.00000000       0.00000000       0.00000000       0.00000000       0.00000000      -3.71412945
Na       0.00000000       0.00000000       1.88787879       0.00000000       0.00000000       3.71412945
2
Properties=species:S:1:pos:R:3:forces:R:3 energy=-0.02034927825511385 pbc="F F F"
Na       0.00000000       0.00000000       0.00000000       0.00000000       0.00000000      -3.19508791
Na       0.00000000       0.00000000       1.94747475       0.00000000       0.00000000       3.19508791
2
Properties=species:S:1:pos:R:3:forces:R:3 energy=-0.1988202778284225 pbc="F F F"
Na       0.00000000       0.00000000       0.00000000       0.00000000       0.00000000      -2.80933094
Na       0.00000000       0.00000000       2.00707071       0.00000000       0.00000000       2.80933094
2
Properties=species:S:1:pos:R:3:forces:R:3 energy=-0.3564493933628694 pbc="F F F"
Na       0.00000000       0.00000000       0.00000000       0.00000000       0.00000000      -2.48809862
Na       0.00000000       0.00000000       2.06666667       0.00000000       0.00000000       2.48809862
2
Properties=species:S:1:pos:R:3:forces:R:3 energy=-0.49608474481797366 pbc="F F F"
Na       0.00000000       0.00000000       0.00000000       0.00000000       0.00000000      -2.20278835
Na       0.00000000       0.00000000       2.12626263       0.00000000       0.00000000       2.20278835
2
Properties=species:S:1:pos:R:3:forces:R:3 energy=-0.6194915267485634 pbc="F F F"
Na       0.00000000       0.00000000       0.00000000       0.00000000       0.00000000      -1.94204998
Na       0.00000000       0.00000000       2.18585859       0.00000000       0.00000000       1.94204998
2
Properties=species:S:1:pos:R:3:forces:R:3 energy=-0.7279181627311875 pbc="F F F"
Na       0.00000000       0.00000000       0.00000000       0.00000000       0.00000000      -1.69940901
Na       0.00000000       0.00000000       2.24545455       0.00000000       0.00000000       1.69940901
2
Properties=species:S:1:pos:R:3:forces:R:3 energy=-0.8223711192064842 pbc="F F F"
Na       0.00000000       0.00000000       0.00000000       0.00000000       0.00000000      -1.47320366
Na       0.00000000       0.00000000       2.30505051       0.00000000       0.00000000       1.47320366
2
Properties=species:S:1:pos:R:3:forces:R:3 energy=-0.9038729606209146 pbc="F F F"
Na       0.00000000       0.00000000       0.00000000       0.00000000       0.00000000      -1.26515961
Na       0.00000000       0.00000000       2.36464646       0.00000000       0.00000000       1.26515961
2
Properties=species:S:1:pos:R:3:forces:R:3 energy=-0.9735748439822974 pbc="F F F"
Na       0.00000000       0.00000000       0.00000000       0.00000000       0.00000000      -1.07752979
Na       0.00000000       0.00000000       2.42424242       0.00000000       0.00000000       1.07752979
2
Properties=species:S:1:pos:R:3:forces:R:3 energy=-1.032731805106982 pbc="F F F"
Na       0.00000000       0.00000000       0.00000000       0.00000000       0.00000000      -0.91130394
Na       0.00000000       0.00000000       2.48383838       0.00000000       0.00000000       0.91130394
2
Properties=species:S:1:pos:R:3:forces:R:3 energy=-1.082607311576696 pbc="F F F"
Na       0.00000000       0.00000000       0.00000000       0.00000000       0.00000000      -0.76581645
Na       0.00000000       0.00000000       2.54343434       0.00000000       0.00000000       0.76581645
2
Properties=species:S:1:pos:R:3:forces:R:3 energy=-1.124383191200798 pbc="F F F"
Na       0.00000000       0.00000000       0.00000000       0.00000000       0.00000000      -0.63907242
Na       0.00000000       0.00000000       2.60303030       0.00000000       0.00000000       0.63907242
2
Properties=species:S:1:pos:R:3:forces:R:3 energy=-1.1590948518548503 pbc="F F F"
Na       0.00000000       0.00000000       0.00000000       0.00000000       0.00000000      -0.52816033
Na       0.00000000       0.00000000       2.66262626       0.00000000       0.00000000       0.52816033
2
Properties=species:S:1:pos:R:3:forces:R:3 energy=-1.1875858528218737 pbc="F F F"
Na       0.00000000       0.00000000       0.00000000       0.00000000       0.00000000      -0.42976755
Na       0.00000000       0.00000000       2.72222222       0.00000000       0.00000000       0.42976755
2
Properties=species:S:1:pos:R:3:forces:R:3 energy=-1.2105068394123384 pbc="F F F"
Na       0.00000000       0.00000000       0.00000000       0.00000000       0.00000000      -0.34080833
Na       0.00000000       0.00000000       2.78181818       0.00000000       0.00000000       0.34080833
2
Properties=species:S:1:pos:R:3:forces:R:3 energy=-1.2283475967598472 pbc="F F F"
Na       0.00000000       0.00000000       0.00000000       0.00000000       0.00000000      -0.25898278
Na       0.00000000       0.00000000       2.84141414       0.00000000       0.00000000       0.25898278
2
Properties=species:S:1:pos:R:3:forces:R:3 energy=-1.241490248010577 pbc="F F F"
Na       0.00000000       0.00000000       0.00000000       0.00000000       0.00000000      -0.18302241
Na       0.00000000       0.00000000       2.90101010       0.00000000       0.00000000       0.18302241
2
Properties=species:S:1:pos:R:3:forces:R:3 energy=-1.2502710299979196 pbc="F F F"
Na       0.00000000       0.00000000       0.00000000       0.00000000       0.00000000      -0.11255439
Na       0.00000000       0.00000000       2.96060606       0.00000000       0.00000000       0.11255439
2
Properties=species:S:1:pos:R:3:forces:R:3 energy=-1.2550192052441869 pbc="F F F"
Na       0.00000000       0.00000000       0.00000000       0.00000000       0.00000000      -0.04776207
Na       0.00000000       0.00000000       3.02020202       0.00000000       0.00000000       0.04776207
2
Properties=species:S:1:pos:R:3:forces:R:3 energy=-1.2560843757352596 pbc="F F F"
Na       0.00000000       0.00000000       0.00000000       0.00000000       0.00000000       0.01098231
Na       0.00000000       0.00000000       3.07979798       0.00000000       0.00000000      -0.01098231
2
Properties=species:S:1:pos:R:3:forces:R:3 energy=-1.2538370758155482 pbc="F F F"
Na       0.00000000       0.00000000       0.00000000       0.00000000       0.00000000       0.06337399
Na       0.00000000       0.00000000       3.13939394       0.00000000       0.00000000      -0.06337399
2
Properties=species:S:1:pos:R:3:forces:R:3 energy=-1.2486594922309413 pbc="F F F"
Na       0.00000000       0.00000000       0.00000000       0.00000000       0.00000000       0.10928372
Na       0.00000000       0.00000000       3.19898990       0.00000000       0.00000000      -0.10928372
2
Properties=species:S:1:pos:R:3:forces:R:3 energy=-1.2409395060492345 pbc="F F F"
Na       0.00000000       0.00000000       0.00000000       0.00000000       0.00000000       0.14871459
Na       0.00000000       0.00000000       3.25858586       0.00000000       0.00000000      -0.14871459
2
Properties=species:S:1:pos:R:3:forces:R:3 energy=-1.2310632841030542 pbc="F F F"
Na       0.00000000       0.00000000       0.00000000       0.00000000       0.00000000       0.18161556
Na       0.00000000       0.00000000       3.31818182       0.00000000       0.00000000      -0.18161556
2
Properties=species:S:1:pos:R:3:forces:R:3 energy=-1.219430972349856 pbc="F F F"
Na       0.00000000       0.00000000       0.00000000       0.00000000       0.00000000       0.20752333
Na       0.00000000       0.00000000       3.37777778       0.00000000       0.00000000      -0.20752333
2
Properties=species:S:1:pos:R:3:forces:R:3 energy=-1.2064932694030592 pbc="F F F"
Na       0.00000000       0.00000000       0.00000000       0.00000000       0.00000000       0.22506258
Na       0.00000000       0.00000000       3.43737374       0.00000000       0.00000000      -0.22506258
2
Properties=species:S:1:pos:R:3:forces:R:3 energy=-1.1928253813382146 pbc="F F F"
Na       0.00000000       0.00000000       0.00000000       0.00000000       0.00000000       0.23147246
Na       0.00000000       0.00000000       3.49696970       0.00000000       0.00000000      -0.23147246
2
Properties=species:S:1:pos:R:3:forces:R:3 energy=-1.1792025972089029 pbc="F F F"
Na       0.00000000       0.00000000       0.00000000       0.00000000       0.00000000       0.22289549
Na       0.00000000       0.00000000       3.55656566       0.00000000       0.00000000      -0.22289549
2
Properties=species:S:1:pos:R:3:forces:R:3 energy=-1.1666009700940816 pbc="F F F"
Na       0.00000000       0.00000000       0.00000000       0.00000000       0.00000000       0.19734830
Na       0.00000000       0.00000000       3.61616162       0.00000000       0.00000000      -0.19734830
2
Properties=species:S:1:pos:R:3:forces:R:3 energy=-1.1558869304110937 pbc="F F F"
Na       0.00000000       0.00000000       0.00000000       0.00000000       0.00000000       0.16193236
Na       0.00000000       0.00000000       3.67575758       0.00000000       0.00000000      -0.16193236
2
Properties=species:S:1:pos:R:3:forces:R:3 energy=-1.1470858409493987 pbc="F F F"
Na       0.00000000       0.00000000       0.00000000       0.00000000       0.00000000       0.13736431
Na       0.00000000       0.00000000       3.73535354       0.00000000       0.00000000      -0.13736431
2
Properties=species:S:1:pos:R:3:forces:R:3 energy=-1.1388626716112322 pbc="F F F"
Na       0.00000000       0.00000000       0.00000000       0.00000000       0.00000000       0.14475910
Na       0.00000000       0.00000000       3.79494949       0.00000000       0.00000000      -0.14475910
2
Properties=species:S:1:pos:R:3:forces:R:3 energy=-1.129177161765572 pbc="F F F"
Na       0.00000000       0.00000000       0.00000000       0.00000000       0.00000000       0.18440983
Na       0.00000000       0.00000000       3.85454545       0.00000000       0.00000000      -0.18440983
2
Properties=species:S:1:pos:R:3:forces:R:3 energy=-1.1166062916486441 pbc="F F F"
Na       0.00000000       0.00000000       0.00000000       0.00000000       0.00000000       0.23805973
Na       0.00000000       0.00000000       3.91414141       0.00000000       0.00000000      -0.23805973
2
Properties=species:S:1:pos:R:3:forces:R:3 energy=-1.1008831599501132 pbc="F F F"
Na       0.00000000       0.00000000       0.00000000       0.00000000       0.00000000       0.28800160
Na       0.00000000       0.00000000       3.97373737       0.00000000       0.00000000      -0.28800160
2
Properties=species:S:1:pos:R:3:forces:R:3 energy=-1.0825149562850749 pbc="F F F"
Na       0.00000000       0.00000000       0.00000000       0.00000000       0.00000000       0.32628894
Na       0.00000000       0.00000000       4.03333333       0.00000000       0.00000000      -0.32628894
2
Properties=species:S:1:pos:R:3:forces:R:3 energy=-1.0622379214272084 pbc="F F F"
Na       0.00000000       0.00000000       0.00000000       0.00000000       0.00000000       0.35229775
Na       0.00000000       0.00000000       4.09292929       0.00000000       0.00000000      -0.35229775
2
Properties=species:S:1:pos:R:3:forces:R:3 energy=-1.0407233662295508 pbc="F F F"
Na       0.00000000       0.00000000       0.00000000       0.00000000       0.00000000       0.36827150
Na       0.00000000       0.00000000       4.15252525       0.00000000       0.00000000      -0.36827150
2
Properties=species:S:1:pos:R:3:forces:R:3 energy=-1.0184893579433718 pbc="F F F"
Na       0.00000000       0.00000000       0.00000000       0.00000000       0.00000000       0.37686205
Na       0.00000000       0.00000000       4.21212121       0.00000000       0.00000000      -0.37686205
2
Properties=species:S:1:pos:R:3:forces:R:3 energy=-0.995906242844708 pbc="F F F"
Na       0.00000000       0.00000000       0.00000000       0.00000000       0.00000000       0.38030848
Na       0.00000000       0.00000000       4.27171717       0.00000000       0.00000000      -0.38030848
2
Properties=species:S:1:pos:R:3:forces:R:3 energy=-0.973227219150187 pbc="F F F"
Na       0.00000000       0.00000000       0.00000000       0.00000000       0.00000000       0.38034374
Na       0.00000000       0.00000000       4.33131313       0.00000000       0.00000000      -0.38034374
2
Properties=species:S:1:pos:R:3:forces:R:3 energy=-0.9506144162254551 pbc="F F F"
Na       0.00000000       0.00000000       0.00000000       0.00000000       0.00000000       0.37827006
Na       0.00000000       0.00000000       4.39090909       0.00000000       0.00000000      -0.37827006
2
Properties=species:S:1:pos:R:3:forces:R:3 energy=-0.9281629691852499 pbc="F F F"
Na       0.00000000       0.00000000       0.00000000       0.00000000       0.00000000       0.37504160
Na       0.00000000       0.00000000       4.45050505       0.00000000       0.00000000      -0.37504160
2
Properties=species:S:1:pos:R:3:forces:R:3 energy=-0.9059222196621383 pbc="F F F"
Na       0.00000000       0.00000000       0.00000000       0.00000000       0.00000000       0.37129965
Na       0.00000000       0.00000000       4.51010101       0.00000000       0.00000000      -0.37129965
2
Properties=species:S:1:pos:R:3:forces:R:3 energy=-0.8839104025411526 pbc="F F F"
Na       0.00000000       0.00000000       0.00000000       0.00000000       0.00000000       0.36736107
Na       0.00000000       0.00000000       4.56969697       0.00000000       0.00000000      -0.36736107
2
Properties=species:S:1:pos:R:3:forces:R:3 energy=-0.8621392220412815 pbc="F F F"
Na       0.00000000       0.00000000       0.00000000       0.00000000       0.00000000       0.36322638
Na       0.00000000       0.00000000       4.62929293       0.00000000       0.00000000      -0.36322638
2
Properties=species:S:1:pos:R:3:forces:R:3 energy=-0.8406268209619481 pbc="F F F"
Na       0.00000000       0.00000000       0.00000000       0.00000000       0.00000000       0.35861635
Na       0.00000000       0.00000000       4.68888889       0.00000000       0.00000000      -0.35861635
2
Properties=species:S:1:pos:R:3:forces:R:3 energy=-0.8194136525419178 pbc="F F F"
Na       0.00000000       0.00000000       0.00000000       0.00000000       0.00000000       0.35306826
Na       0.00000000       0.00000000       4.74848485       0.00000000       0.00000000      -0.35306826
2
Properties=species:S:1:pos:R:3:forces:R:3 energy=-0.7985716839254028 pbc="F F F"
Na       0.00000000       0.00000000       0.00000000       0.00000000       0.00000000       0.34613892
Na       0.00000000       0.00000000       4.80808081       0.00000000       0.00000000      -0.34613892
2
Properties=species:S:1:pos:R:3:forces:R:3 energy=-0.7781878299987972 pbc="F F F"
Na       0.00000000       0.00000000       0.00000000       0.00000000       0.00000000       0.33766454
Na       0.00000000       0.00000000       4.86767677       0.00000000       0.00000000      -0.33766454
2
Properties=species:S:1:pos:R:3:forces:R:3 energy=-0.758347820706827 pbc="F F F"
Na       0.00000000       0.00000000       0.00000000       0.00000000       0.00000000       0.32801718
Na       0.00000000       0.00000000       4.92727273       0.00000000       0.00000000      -0.32801718
2
Properties=species:S:1:pos:R:3:forces:R:3 energy=-0.7390934792814982 pbc="F F F"
Na       0.00000000       0.00000000       0.00000000       0.00000000       0.00000000       0.31824762
Na       0.00000000       0.00000000       4.98686869       0.00000000       0.00000000      -0.31824762
2
Properties=species:S:1:pos:R:3:forces:R:3 energy=-0.7203880499298749 pbc="F F F"
Na       0.00000000       0.00000000       0.00000000       0.00000000       0.00000000       0.30994660
Na       0.00000000       0.00000000       5.04646465       0.00000000       0.00000000      -0.30994660
2
Properties=species:S:1:pos:R:3:forces:R:3 energy=-0.7020902102089586 pbc="F F F"
Na       0.00000000       0.00000000       0.00000000       0.00000000       0.00000000       0.30471057
Na       0.00000000       0.00000000       5.10606061       0.00000000       0.00000000      -0.30471057
2
Properties=species:S:1:pos:R:3:forces:R:3 energy=-0.6839919323984661 pbc="F F F"
Na       0.00000000       0.00000000       0.00000000       0.00000000       0.00000000       0.30313426
Na       0.00000000       0.00000000       5.16565657       0.00000000       0.00000000      -0.30313426
2
Properties=species:S:1:pos:R:3:forces:R:3 energy=-0.6659188476351898 pbc="F F F"
Na       0.00000000       0.00000000       0.00000000       0.00000000       0.00000000       0.30337834
Na       0.00000000       0.00000000       5.22525253       0.00000000       0.00000000      -0.30337834
2
Properties=species:S:1:pos:R:3:forces:R:3 energy=-0.6479035140315125 pbc="F F F"
Na       0.00000000       0.00000000       0.00000000       0.00000000       0.00000000       0.29997262
Na       0.00000000       0.00000000       5.28484848       0.00000000       0.00000000      -0.29997262
2
Properties=species:S:1:pos:R:3:forces:R:3 energy=-0.6303851440885124 pbc="F F F"
Na       0.00000000       0.00000000       0.00000000       0.00000000       0.00000000       0.28573868
Na       0.00000000       0.00000000       5.34444444       0.00000000       0.00000000      -0.28573868
2
Properties=species:S:1:pos:R:3:forces:R:3 energy=-0.6140259437784767 pbc="F F F"
Na       0.00000000       0.00000000       0.00000000       0.00000000       0.00000000       0.26332232
Na       0.00000000       0.00000000       5.40404040       0.00000000       0.00000000      -0.26332232
2
Properties=species:S:1:pos:R:3:forces:R:3 energy=-0.598681892385094 pbc="F F F"
Na       0.00000000       0.00000000       0.00000000       0.00000000       0.00000000       0.25627151
Na       0.00000000       0.00000000       5.46363636       0.00000000       0.00000000      -0.25627151
2
Properties=species:S:1:pos:R:3:forces:R:3 energy=-0.583025517961935 pbc="F F F"
Na       0.00000000       0.00000000       0.00000000       0.00000000       0.00000000       0.26982778
Na       0.00000000       0.00000000       5.52323232       0.00000000       0.00000000      -0.26982778
2
Properties=species:S:1:pos:R:3:forces:R:3 energy=-0.5669893218048611 pbc="F F F"
Na       0.00000000       0.00000000       0.00000000       0.00000000       0.00000000       0.26195738
Na       0.00000000       0.00000000       5.58282828       0.00000000       0.00000000      -0.26195738
2
Properties=species:S:1:pos:R:3:forces:R:3 energy=-0.5523685602246373 pbc="F F F"
Na       0.00000000       0.00000000       0.00000000       0.00000000       0.00000000       0.22741374
Na       0.00000000       0.00000000       5.64242424       0.00000000       0.00000000      -0.22741374
2
Properties=species:S:1:pos:R:3:forces:R:3 energy=-0.5394706693952992 pbc="F F F"
Na       0.00000000       0.00000000       0.00000000       0.00000000       0.00000000       0.21333593
Na       0.00000000       0.00000000       5.70202020       0.00000000       0.00000000      -0.21333593
2
Properties=species:S:1:pos:R:3:forces:R:3 energy=-0.525800088283207 pbc="F F F"
Na       0.00000000       0.00000000       0.00000000       0.00000000       0.00000000       0.25214422
Na       0.00000000       0.00000000       5.76161616       0.00000000       0.00000000      -0.25214422
2
Properties=species:S:1:pos:R:3:forces:R:3 energy=-0.5098904877658073 pbc="F F F"
Na       0.00000000       0.00000000       0.00000000       0.00000000       0.00000000       0.26688233
Na       0.00000000       0.00000000       5.82121212       0.00000000       0.00000000      -0.26688233
2
Properties=species:S:1:pos:R:3:forces:R:3 energy=-0.4961015945120542 pbc="F F F"
Na       0.00000000       0.00000000       0.00000000       0.00000000       0.00000000       0.18369000
Na       0.00000000       0.00000000       5.88080808       0.00000000       0.00000000      -0.18369000
2
Properties=species:S:1:pos:R:3:forces:R:3 energy=-0.4884998324852408 pbc="F F F"
Na       0.00000000       0.00000000       0.00000000       0.00000000       0.00000000       0.07349630
Na       0.00000000       0.00000000       5.94040404       0.00000000       0.00000000      -0.07349630
2
Properties=species:S:1:pos:R:3:forces:R:3 energy=-0.4859983915830012 pbc="F F F"
Na       0.00000000       0.00000000       0.00000000       0.00000000       0.00000000       0.02602784
Na       0.00000000       0.00000000       6.00000000       0.00000000       0.00000000      -0.02602784
