2
Properties=species:S:1:pos:R:3:forces:R:3 energy=3022.650364468362 pbc="F F F"
Ne       0.00000000       0.00000000       0.00000000       0.00000000       0.00000000  -60786.88671875
Ne       0.00000000       0.00000000       0.10000000       0.00000000       0.00000000   60786.88671875
2
Properties=species:S:1:pos:R:3:forces:R:3 energy=1081.536350796487 pbc="F F F"
Ne       0.00000000       0.00000000       0.00000000       0.00000000       0.00000000  -16268.58886719
Ne       0.00000000       0.00000000       0.15959596       0.00000000       0.00000000   16268.58886719
2
Properties=species:S:1:pos:R:3:forces:R:3 energy=481.0415998199246 pbc="F F F"
Ne       0.00000000       0.00000000       0.00000000       0.00000000       0.00000000   -5954.72607422
Ne       0.00000000       0.00000000       0.21919192       0.00000000       0.00000000    5954.72607422
2
Properties=species:S:1:pos:R:3:forces:R:3 energy=242.43210275080003 pbc="F F F"
Ne       0.00000000       0.00000000       0.00000000       0.00000000       0.00000000   -2604.05639648
Ne       0.00000000       0.00000000       0.27878788       0.00000000       0.00000000    2604.05639648
2
Properties=species:S:1:pos:R:3:forces:R:3 energy=132.1680036328741 pbc="F F F"
Ne       0.00000000       0.00000000       0.00000000       0.00000000       0.00000000   -1282.05187988
Ne       0.00000000       0.00000000       0.33838384       0.00000000       0.00000000    1282.05187988
2
Properties=species:S:1:pos:R:3:forces:R:3 energy=75.75077494127122 pbc="F F F"
Ne       0.00000000       0.00000000       0.00000000       0.00000000       0.00000000    -684.08618164
Ne       0.00000000       0.00000000       0.39797980       0.00000000       0.00000000     684.08618164
2
Properties=species:S:1:pos:R:3:forces:R:3 energy=44.86610469993796 pbc="F F F"
Ne       0.00000000       0.00000000       0.00000000       0.00000000       0.00000000    -384.24188232
Ne       0.00000000       0.00000000       0.45757576       0.00000000       0.00000000     384.24188232
2
Properties=species:S:1:pos:R:3:forces:R:3 energy=27.251036294363317 pbc="F F F"
Ne       0.00000000       0.00000000       0.00000000       0.00000000       0.00000000    -223.24520874
Ne       0.00000000       0.00000000       0.51717172       0.00000000       0.00000000     223.24520874
2
Properties=species:S:1:pos:R:3:forces:R:3 energy=16.848900499217272 pbc="F F F"
Ne       0.00000000       0.00000000       0.00000000       0.00000000       0.00000000    -133.69265747
Ne       0.00000000       0.00000000       0.57676768       0.00000000       0.00000000     133.69265747
2
Properties=species:S:1:pos:R:3:forces:R:3 energy=10.603414330435731 pbc="F F F"
Ne       0.00000000       0.00000000       0.00000000       0.00000000       0.00000000     -81.28851318
Ne       0.00000000       0.00000000       0.63636364       0.00000000       0.00000000      81.28851318
2
Properties=species:S:1:pos:R:3:forces:R:3 energy=6.676318108877248 pbc="F F F"
Ne       0.00000000       0.00000000       0.00000000       0.00000000       0.00000000     -52.79113388
Ne       0.00000000       0.00000000       0.69595960       0.00000000       0.00000000      52.79113388
2
Properties=species:S:1:pos:R:3:forces:R:3 energy=4.132511778529791 pbc="F F F"
Ne       0.00000000       0.00000000       0.00000000       0.00000000       0.00000000     -33.82214355
Ne       0.00000000       0.00000000       0.75555556       0.00000000       0.00000000      33.82214355
2
Properties=species:S:1:pos:R:3:forces:R:3 energy=2.527127998954742 pbc="F F F"
Ne       0.00000000       0.00000000       0.00000000       0.00000000       0.00000000     -20.82988930
Ne       0.00000000       0.00000000       0.81515152       0.00000000       0.00000000      20.82988930
2
Properties=species:S:1:pos:R:3:forces:R:3 energy=1.5670812338541629 pbc="F F F"
Ne       0.00000000       0.00000000       0.00000000       0.00000000       0.00000000     -12.00955677
Ne       0.00000000       0.00000000       0.87474747       0.00000000       0.00000000      12.00955677
2
Properties=species:S:1:pos:R:3:forces:R:3 energy=1.0318237362416256 pbc="F F F"
Ne       0.00000000       0.00000000       0.00000000       0.00000000       0.00000000      -6.40347433
Ne       0.00000000       0.00000000       0.93434343       0.00000000       0.00000000       6.40347433
2
Properties=species:S:1:pos:R:3:forces:R:3 energy=0.759136698761232 pbc="F F F"
Ne       0.00000000       0.00000000       0.00000000       0.00000000       0.00000000      -3.05691648
Ne       0.00000000       0.00000000       0.99393939       0.00000000       0.00000000       3.05691648
2
Properties=species:S:1:pos:R:3:forces:R:3 energy=0.6370609160853428 pbc="F F F"
Ne       0.00000000       0.00000000       0.00000000       0.00000000       0.00000000      -1.24754632
Ne       0.00000000       0.00000000       1.05353535       0.00000000       0.00000000       1.24754632
2
Properties=species:S:1:pos:R:3:forces:R:3 energy=0.5903733890444903 pbc="F F F"
Ne       0.00000000       0.00000000       0.00000000       0.00000000       0.00000000      -0.45347413
Ne       0.00000000       0.00000000       1.11313131       0.00000000       0.00000000       0.45347413
2
Properties=species:S:1:pos:R:3:forces:R:3 energy=0.5702548002468985 pbc="F F F"
Ne       0.00000000       0.00000000       0.00000000       0.00000000       0.00000000      -0.29976678
Ne       0.00000000       0.00000000       1.17272727       0.00000000       0.00000000       0.29976678
2
Properties=species:S:1:pos:R:3:forces:R:3 energy=0.5508559916840176 pbc="F F F"
Ne       0.00000000       0.00000000       0.00000000       0.00000000       0.00000000      -0.36455035
Ne       0.00000000       0.00000000       1.23232323       0.00000000       0.00000000       0.36455035
2
Properties=species:S:1:pos:R:3:forces:R:3 energy=0.525652905055775 pbc="F F F"
Ne       0.00000000       0.00000000       0.00000000       0.00000000       0.00000000      -0.48736694
Ne       0.00000000       0.00000000       1.29191919       0.00000000       0.00000000       0.48736694
2
Properties=species:S:1:pos:R:3:forces:R:3 energy=0.49243950153905053 pbc="F F F"
Ne       0.00000000       0.00000000       0.00000000       0.00000000       0.00000000      -0.62677372
Ne       0.00000000       0.00000000       1.35151515       0.00000000       0.00000000       0.62677372
2
Properties=species:S:1:pos:R:3:forces:R:3 energy=0.45133795646446134 pbc="F F F"
Ne       0.00000000       0.00000000       0.00000000       0.00000000       0.00000000      -0.74685258
Ne       0.00000000       0.00000000       1.41111111       0.00000000       0.00000000       0.74685258
2
Properties=species:S:1:pos:R:3:forces:R:3 energy=0.40430271807755286 pbc="F F F"
Ne       0.00000000       0.00000000       0.00000000       0.00000000       0.00000000      -0.82305533
Ne       0.00000000       0.00000000       1.47070707       0.00000000       0.00000000       0.82305533
2
Properties=species:S:1:pos:R:3:forces:R:3 energy=0.3542917375273637 pbc="F F F"
Ne       0.00000000       0.00000000       0.00000000       0.00000000       0.00000000      -0.84660965
Ne       0.00000000       0.00000000       1.53030303       0.00000000       0.00000000       0.84660965
2
Properties=species:S:1:pos:R:3:forces:R:3 energy=0.30434283687489716 pbc="F F F"
Ne       0.00000000       0.00000000       0.00000000       0.00000000       0.00000000      -0.82266462
Ne       0.00000000       0.00000000       1.58989899       0.00000000       0.00000000       0.82266462
2
Properties=species:S:1:pos:R:3:forces:R:3 energy=0.256928158612015 pbc="F F F"
Ne       0.00000000       0.00000000       0.00000000       0.00000000       0.00000000      -0.76398265
Ne       0.00000000       0.00000000       1.64949495       0.00000000       0.00000000       0.76398265
2
Properties=species:S:1:pos:R:3:forces:R:3 energy=0.21368812468523782 pbc="F F F"
Ne       0.00000000       0.00000000       0.00000000       0.00000000       0.00000000      -0.68479615
Ne       0.00000000       0.00000000       1.70909091       0.00000000       0.00000000       0.68479615
2
Properties=species:S:1:pos:R:3:forces:R:3 energy=0.17546938737743906 pbc="F F F"
Ne       0.00000000       0.00000000       0.00000000       0.00000000       0.00000000      -0.59724838
Ne       0.00000000       0.00000000       1.76868687       0.00000000       0.00000000       0.59724838
2
Properties=species:S:1:pos:R:3:forces:R:3 energy=0.1424892153543358 pbc="F F F"
Ne       0.00000000       0.00000000       0.00000000       0.00000000       0.00000000      -0.51017135
Ne       0.00000000       0.00000000       1.82828283       0.00000000       0.00000000       0.51017135
2
Properties=species:S:1:pos:R:3:forces:R:3 energy=0.11453823022517828 pbc="F F F"
Ne       0.00000000       0.00000000       0.00000000       0.00000000       0.00000000      -0.42918172
Ne       0.00000000       0.00000000       1.88787879       0.00000000       0.00000000       0.42918172
2
Properties=species:S:1:pos:R:3:forces:R:3 energy=0.09115255530226689 pbc="F F F"
Ne       0.00000000       0.00000000       0.00000000       0.00000000       0.00000000      -0.35727534
Ne       0.00000000       0.00000000       1.94747475       0.00000000       0.00000000       0.35727534
2
Properties=species:S:1:pos:R:3:forces:R:3 energy=0.07175101717769206 pbc="F F F"
Ne       0.00000000       0.00000000       0.00000000       0.00000000       0.00000000      -0.29553929
Ne       0.00000000       0.00000000       2.00707071       0.00000000       0.00000000       0.29553929
2
Properties=species:S:1:pos:R:3:forces:R:3 energy=0.05572782421433794 pbc="F F F"
Ne       0.00000000       0.00000000       0.00000000       0.00000000       0.00000000      -0.24379101
Ne       0.00000000       0.00000000       2.06666667       0.00000000       0.00000000       0.24379101
2
Properties=species:S:1:pos:R:3:forces:R:3 energy=0.0425129279090595 pbc="F F F"
Ne       0.00000000       0.00000000       0.00000000       0.00000000       0.00000000      -0.20110805
Ne       0.00000000       0.00000000       2.12626263       0.00000000       0.00000000       0.20110805
2
Properties=species:S:1:pos:R:3:forces:R:3 energy=0.03160228819300652 pbc="F F F"
Ne       0.00000000       0.00000000       0.00000000       0.00000000       0.00000000      -0.16622934
Ne       0.00000000       0.00000000       2.18585859       0.00000000       0.00000000       0.16622934
2
Properties=species:S:1:pos:R:3:forces:R:3 energy=0.02257094742641942 pbc="F F F"
Ne       0.00000000       0.00000000       0.00000000       0.00000000       0.00000000      -0.13783444
Ne       0.00000000       0.00000000       2.24545455       0.00000000       0.00000000       0.13783444
2
Properties=species:S:1:pos:R:3:forces:R:3 energy=0.015069183142693263 pbc="F F F"
Ne       0.00000000       0.00000000       0.00000000       0.00000000       0.00000000      -0.11470331
Ne       0.00000000       0.00000000       2.30505051       0.00000000       0.00000000       0.11470331
2
Properties=species:S:1:pos:R:3:forces:R:3 energy=0.008815446335888917 pbc="F F F"
Ne       0.00000000       0.00000000       0.00000000       0.00000000       0.00000000      -0.09579296
Ne       0.00000000       0.00000000       2.36464646       0.00000000       0.00000000       0.09579296
2
Properties=species:S:1:pos:R:3:forces:R:3 energy=0.0035846087428059413 pbc="F F F"
Ne       0.00000000       0.00000000       0.00000000       0.00000000       0.00000000      -0.08025105
Ne       0.00000000       0.00000000       2.42424242       0.00000000       0.00000000       0.08025105
2
Properties=species:S:1:pos:R:3:forces:R:3 energy=-0.0008030783887442239 pbc="F F F"
Ne       0.00000000       0.00000000       0.00000000       0.00000000       0.00000000      -0.06740021
Ne       0.00000000       0.00000000       2.48383838       0.00000000       0.00000000       0.06740021
2
Properties=species:S:1:pos:R:3:forces:R:3 energy=-0.004491754650205139 pbc="F F F"
Ne       0.00000000       0.00000000       0.00000000       0.00000000       0.00000000      -0.05670883
Ne       0.00000000       0.00000000       2.54343434       0.00000000       0.00000000       0.05670883
2
Properties=species:S:1:pos:R:3:forces:R:3 energy=-0.007597058589402527 pbc="F F F"
Ne       0.00000000       0.00000000       0.00000000       0.00000000       0.00000000      -0.04776334
Ne       0.00000000       0.00000000       2.60303030       0.00000000       0.00000000       0.04776334
2
Properties=species:S:1:pos:R:3:forces:R:3 energy=-0.01021303102519841 pbc="F F F"
Ne       0.00000000       0.00000000       0.00000000       0.00000000       0.00000000      -0.04024105
Ne       0.00000000       0.00000000       2.66262626       0.00000000       0.00000000       0.04024105
2
Properties=species:S:1:pos:R:3:forces:R:3 energy=-0.01241664784533542 pbc="F F F"
Ne       0.00000000       0.00000000       0.00000000       0.00000000       0.00000000      -0.03388861
Ne       0.00000000       0.00000000       2.72222222       0.00000000       0.00000000       0.03388861
2
Properties=species:S:1:pos:R:3:forces:R:3 energy=-0.014271436331994028 pbc="F F F"
Ne       0.00000000       0.00000000       0.00000000       0.00000000       0.00000000      -0.02850615
Ne       0.00000000       0.00000000       2.78181818       0.00000000       0.00000000       0.02850615
2
Properties=species:S:1:pos:R:3:forces:R:3 energy=-0.015830409730474844 pbc="F F F"
Ne       0.00000000       0.00000000       0.00000000       0.00000000       0.00000000      -0.02393381
Ne       0.00000000       0.00000000       2.84141414       0.00000000       0.00000000       0.02393381
2
Properties=species:S:1:pos:R:3:forces:R:3 energy=-0.017137728083831422 pbc="F F F"
Ne       0.00000000       0.00000000       0.00000000       0.00000000       0.00000000      -0.02004342
Ne       0.00000000       0.00000000       2.90101010       0.00000000       0.00000000       0.02004342
2
Properties=species:S:1:pos:R:3:forces:R:3 energy=-0.01823085389402062 pbc="F F F"
Ne       0.00000000       0.00000000       0.00000000       0.00000000       0.00000000      -0.01672978
Ne       0.00000000       0.00000000       2.96060606       0.00000000       0.00000000       0.01672978
2
Properties=species:S:1:pos:R:3:forces:R:3 energy=-0.019141525274369114 pbc="F F F"
Ne       0.00000000       0.00000000       0.00000000       0.00000000       0.00000000      -0.01390619
Ne       0.00000000       0.00000000       3.02020202       0.00000000       0.00000000       0.01390619
2
Properties=species:S:1:pos:R:3:forces:R:3 energy=-0.019896661130988296 pbc="F F F"
Ne       0.00000000       0.00000000       0.00000000       0.00000000       0.00000000      -0.01150030
Ne       0.00000000       0.00000000       3.07979798       0.00000000       0.00000000       0.01150030
2
Properties=species:S:1:pos:R:3:forces:R:3 energy=-0.02051933152902127 pbc="F F F"
Ne       0.00000000       0.00000000       0.00000000       0.00000000       0.00000000      -0.00945087
Ne       0.00000000       0.00000000       3.13939394       0.00000000       0.00000000       0.00945087
2
Properties=species:S:1:pos:R:3:forces:R:3 energy=-0.021029168854992078 pbc="F F F"
Ne       0.00000000       0.00000000       0.00000000       0.00000000       0.00000000      -0.00770606
Ne       0.00000000       0.00000000       3.19898990       0.00000000       0.00000000       0.00770606
2
Properties=species:S:1:pos:R:3:forces:R:3 energy=-0.021442989472432013 pbc="F F F"
Ne       0.00000000       0.00000000       0.00000000       0.00000000       0.00000000      -0.00622151
Ne       0.00000000       0.00000000       3.25858586       0.00000000       0.00000000       0.00622151
2
Properties=species:S:1:pos:R:3:forces:R:3 energy=-0.021775140233620427 pbc="F F F"
Ne       0.00000000       0.00000000       0.00000000       0.00000000       0.00000000      -0.00495954
Ne       0.00000000       0.00000000       3.31818182       0.00000000       0.00000000       0.00495954
2
Properties=species:S:1:pos:R:3:forces:R:3 energy=-0.022037907925282856 pbc="F F F"
Ne       0.00000000       0.00000000       0.00000000       0.00000000       0.00000000      -0.00388838
Ne       0.00000000       0.00000000       3.37777778       0.00000000       0.00000000       0.00388838
2
Properties=species:S:1:pos:R:3:forces:R:3 energy=-0.022241858197011175 pbc="F F F"
Ne       0.00000000       0.00000000       0.00000000       0.00000000       0.00000000      -0.00298148
Ne       0.00000000       0.00000000       3.43737374       0.00000000       0.00000000       0.00298148
2
Properties=species:S:1:pos:R:3:forces:R:3 energy=-0.022396116909174514 pbc="F F F"
Ne       0.00000000       0.00000000       0.00000000       0.00000000       0.00000000      -0.00221739
Ne       0.00000000       0.00000000       3.49696970       0.00000000       0.00000000       0.00221739
2
Properties=species:S:1:pos:R:3:forces:R:3 energy=-0.022508653148239306 pbc="F F F"
Ne       0.00000000       0.00000000       0.00000000       0.00000000       0.00000000      -0.00157930
Ne       0.00000000       0.00000000       3.55656566       0.00000000       0.00000000       0.00157930
2
Properties=species:S:1:pos:R:3:forces:R:3 energy=-0.022586601500878614 pbc="F F F"
Ne       0.00000000       0.00000000       0.00000000       0.00000000       0.00000000      -0.00105434
Ne       0.00000000       0.00000000       3.61616162       0.00000000       0.00000000       0.00105434
2
Properties=species:S:1:pos:R:3:forces:R:3 energy=-0.022636385871753758 pbc="F F F"
Ne       0.00000000       0.00000000       0.00000000       0.00000000       0.00000000      -0.00063324
Ne       0.00000000       0.00000000       3.67575758       0.00000000       0.00000000       0.00063324
2
Properties=species:S:1:pos:R:3:forces:R:3 energy=-0.022663995696968198 pbc="F F F"
Ne       0.00000000       0.00000000       0.00000000       0.00000000       0.00000000      -0.00030885
Ne       0.00000000       0.00000000       3.73535354       0.00000000       0.00000000       0.00030885
2
Properties=species:S:1:pos:R:3:forces:R:3 energy=-0.022675002952862316 pbc="F F F"
Ne       0.00000000       0.00000000       0.00000000       0.00000000       0.00000000      -0.00007516
Ne       0.00000000       0.00000000       3.79494949       0.00000000       0.00000000       0.00007516
2
Properties=species:S:1:pos:R:3:forces:R:3 energy=-0.022674629654216127 pbc="F F F"
Ne       0.00000000       0.00000000       0.00000000       0.00000000       0.00000000       0.00007413
Ne       0.00000000       0.00000000       3.85454545       0.00000000       0.00000000      -0.00007413
2
Properties=species:S:1:pos:R:3:forces:R:3 energy=-0.02266768984401664 pbc="F F F"
Ne       0.00000000       0.00000000       0.00000000       0.00000000       0.00000000       0.00014681
Ne       0.00000000       0.00000000       3.91414141       0.00000000       0.00000000      -0.00014681
2
Properties=species:S:1:pos:R:3:forces:R:3 energy=-0.022658458661330327 pbc="F F F"
Ne       0.00000000       0.00000000       0.00000000       0.00000000       0.00000000       0.00015263
Ne       0.00000000       0.00000000       3.97373737       0.00000000       0.00000000      -0.00015263
2
Properties=species:S:1:pos:R:3:forces:R:3 energy=-0.022650596973297493 pbc="F F F"
Ne       0.00000000       0.00000000       0.00000000       0.00000000       0.00000000       0.00010310
Ne       0.00000000       0.00000000       4.03333333       0.00000000       0.00000000      -0.00010310
2
Properties=species:S:1:pos:R:3:forces:R:3 energy=-0.022647031564127885 pbc="F F F"
Ne       0.00000000       0.00000000       0.00000000       0.00000000       0.00000000       0.00001034
Ne       0.00000000       0.00000000       4.09292929       0.00000000       0.00000000      -0.00001034
2
Properties=species:S:1:pos:R:3:forces:R:3 energy=-0.022650003803612487 pbc="F F F"
Ne       0.00000000       0.00000000       0.00000000       0.00000000       0.00000000      -0.00011478
Ne       0.00000000       0.00000000       4.15252525       0.00000000       0.00000000       0.00011478
2
Properties=species:S:1:pos:R:3:forces:R:3 energy=-0.022661195093062924 pbc="F F F"
Ne       0.00000000       0.00000000       0.00000000       0.00000000       0.00000000      -0.00026461
Ne       0.00000000       0.00000000       4.21212121       0.00000000       0.00000000       0.00026461
2
Properties=species:S:1:pos:R:3:forces:R:3 energy=-0.022681972145755045 pbc="F F F"
Ne       0.00000000       0.00000000       0.00000000       0.00000000       0.00000000      -0.00043605
Ne       0.00000000       0.00000000       4.27171717       0.00000000       0.00000000       0.00043605
2
Properties=species:S:1:pos:R:3:forces:R:3 energy=-0.022713626926923167 pbc="F F F"
Ne       0.00000000       0.00000000       0.00000000       0.00000000       0.00000000      -0.00063064
Ne       0.00000000       0.00000000       4.33131313       0.00000000       0.00000000       0.00063064
2
Properties=species:S:1:pos:R:3:forces:R:3 energy=-0.022757694014645762 pbc="F F F"
Ne       0.00000000       0.00000000       0.00000000       0.00000000       0.00000000      -0.00085305
Ne       0.00000000       0.00000000       4.39090909       0.00000000       0.00000000       0.00085305
2
Properties=species:S:1:pos:R:3:forces:R:3 energy=-0.022815960475789918 pbc="F F F"
Ne       0.00000000       0.00000000       0.00000000       0.00000000       0.00000000      -0.00110817
Ne       0.00000000       0.00000000       4.45050505       0.00000000       0.00000000       0.00110817
2
Properties=species:S:1:pos:R:3:forces:R:3 energy=-0.02289045269725286 pbc="F F F"
Ne       0.00000000       0.00000000       0.00000000       0.00000000       0.00000000      -0.00139716
Ne       0.00000000       0.00000000       4.51010101       0.00000000       0.00000000       0.00139716
2
Properties=species:S:1:pos:R:3:forces:R:3 energy=-0.022983046499159124 pbc="F F F"
Ne       0.00000000       0.00000000       0.00000000       0.00000000       0.00000000      -0.00171351
Ne       0.00000000       0.00000000       4.56969697       0.00000000       0.00000000       0.00171351
2
Properties=species:S:1:pos:R:3:forces:R:3 energy=-0.02309489290743504 pbc="F F F"
Ne       0.00000000       0.00000000       0.00000000       0.00000000       0.00000000      -0.00204017
Ne       0.00000000       0.00000000       4.62929293       0.00000000       0.00000000       0.00204017
2
Properties=species:S:1:pos:R:3:forces:R:3 energy=-0.023225859094528612 pbc="F F F"
Ne       0.00000000       0.00000000       0.00000000       0.00000000       0.00000000      -0.00234923
Ne       0.00000000       0.00000000       4.68888889       0.00000000       0.00000000       0.00234923
2
Properties=species:S:1:pos:R:3:forces:R:3 energy=-0.0233738460755675 pbc="F F F"
Ne       0.00000000       0.00000000       0.00000000       0.00000000       0.00000000      -0.00260466
Ne       0.00000000       0.00000000       4.74848485       0.00000000       0.00000000       0.00260466
2
Properties=species:S:1:pos:R:3:forces:R:3 energy=-0.023534509120097115 pbc="F F F"
Ne       0.00000000       0.00000000       0.00000000       0.00000000       0.00000000      -0.00276932
Ne       0.00000000       0.00000000       4.80808081       0.00000000       0.00000000       0.00276932
2
Properties=species:S:1:pos:R:3:forces:R:3 energy=-0.023701535131216814 pbc="F F F"
Ne       0.00000000       0.00000000       0.00000000       0.00000000       0.00000000      -0.00281425
Ne       0.00000000       0.00000000       4.86767677       0.00000000       0.00000000       0.00281425
2
Properties=species:S:1:pos:R:3:forces:R:3 energy=-0.02386735974571312 pbc="F F F"
Ne       0.00000000       0.00000000       0.00000000       0.00000000       0.00000000      -0.00272952
Ne       0.00000000       0.00000000       4.92727273       0.00000000       0.00000000       0.00272952
2
Properties=species:S:1:pos:R:3:forces:R:3 energy=-0.024024602691011462 pbc="F F F"
Ne       0.00000000       0.00000000       0.00000000       0.00000000       0.00000000      -0.00253124
Ne       0.00000000       0.00000000       4.98686869       0.00000000       0.00000000       0.00253124
2
Properties=species:S:1:pos:R:3:forces:R:3 energy=-0.024167627066652174 pbc="F F F"
Ne       0.00000000       0.00000000       0.00000000       0.00000000       0.00000000      -0.00226230
Ne       0.00000000       0.00000000       5.04646465       0.00000000       0.00000000       0.00226230
2
Properties=species:S:1:pos:R:3:forces:R:3 energy=-0.02429400694192719 pbc="F F F"
Ne       0.00000000       0.00000000       0.00000000       0.00000000       0.00000000      -0.00198203
Ne       0.00000000       0.00000000       5.10606061       0.00000000       0.00000000       0.00198203
2
Properties=species:S:1:pos:R:3:forces:R:3 energy=-0.024404768330065375 pbc="F F F"
Ne       0.00000000       0.00000000       0.00000000       0.00000000       0.00000000      -0.00174465
Ne       0.00000000       0.00000000       5.16565657       0.00000000       0.00000000       0.00174465
2
Properties=species:S:1:pos:R:3:forces:R:3 energy=-0.02450326662604787 pbc="F F F"
Ne       0.00000000       0.00000000       0.00000000       0.00000000       0.00000000      -0.00157045
Ne       0.00000000       0.00000000       5.22525253       0.00000000       0.00000000       0.00157045
2
Properties=species:S:1:pos:R:3:forces:R:3 energy=-0.024592475381351394 pbc="F F F"
Ne       0.00000000       0.00000000       0.00000000       0.00000000       0.00000000      -0.00142115
Ne       0.00000000       0.00000000       5.28484848       0.00000000       0.00000000       0.00142115
2
Properties=species:S:1:pos:R:3:forces:R:3 energy=-0.024671363743742018 pbc="F F F"
Ne       0.00000000       0.00000000       0.00000000       0.00000000       0.00000000      -0.00120734
Ne       0.00000000       0.00000000       5.34444444       0.00000000       0.00000000       0.00120734
2
Properties=species:S:1:pos:R:3:forces:R:3 energy=-0.024733812985890002 pbc="F F F"
Ne       0.00000000       0.00000000       0.00000000       0.00000000       0.00000000      -0.00087092
Ne       0.00000000       0.00000000       5.40404040       0.00000000       0.00000000       0.00087092
2
Properties=species:S:1:pos:R:3:forces:R:3 energy=-0.02477510762572601 pbc="F F F"
Ne       0.00000000       0.00000000       0.00000000       0.00000000       0.00000000      -0.00053641
Ne       0.00000000       0.00000000       5.46363636       0.00000000       0.00000000       0.00053641
2
Properties=species:S:1:pos:R:3:forces:R:3 energy=-0.02480203034443465 pbc="F F F"
Ne       0.00000000       0.00000000       0.00000000       0.00000000       0.00000000      -0.00039988
Ne       0.00000000       0.00000000       5.52323232       0.00000000       0.00000000       0.00039988
2
Properties=species:S:1:pos:R:3:forces:R:3 energy=-0.02482339383942901 pbc="F F F"
Ne       0.00000000       0.00000000       0.00000000       0.00000000       0.00000000      -0.00029754
Ne       0.00000000       0.00000000       5.58282828       0.00000000       0.00000000       0.00029754
2
Properties=species:S:1:pos:R:3:forces:R:3 energy=-0.024834997297795636 pbc="F F F"
Ne       0.00000000       0.00000000       0.00000000       0.00000000       0.00000000      -0.00008371
Ne       0.00000000       0.00000000       5.64242424       0.00000000       0.00000000       0.00008371
2
Properties=species:S:1:pos:R:3:forces:R:3 energy=-0.024835304305264195 pbc="F F F"
Ne       0.00000000       0.00000000       0.00000000       0.00000000       0.00000000       0.00002743
Ne       0.00000000       0.00000000       5.70202020       0.00000000       0.00000000      -0.00002743
2
Properties=species:S:1:pos:R:3:forces:R:3 energy=-0.024840024987734303 pbc="F F F"
Ne       0.00000000       0.00000000       0.00000000       0.00000000       0.00000000      -0.00025483
Ne       0.00000000       0.00000000       5.76161616       0.00000000       0.00000000       0.00025483
2
Properties=species:S:1:pos:R:3:forces:R:3 energy=-0.024867603592261284 pbc="F F F"
Ne       0.00000000       0.00000000       0.00000000       0.00000000       0.00000000      -0.00061655
Ne       0.00000000       0.00000000       5.82121212       0.00000000       0.00000000       0.00061655
2
Properties=species:S:1:pos:R:3:forces:R:3 energy=-0.0249025914575903 pbc="F F F"
Ne       0.00000000       0.00000000       0.00000000       0.00000000       0.00000000      -0.00047731
Ne       0.00000000       0.00000000       5.88080808       0.00000000       0.00000000       0.00047731
2
Properties=species:S:1:pos:R:3:forces:R:3 energy=-0.0249196316955892 pbc="F F F"
Ne       0.00000000       0.00000000       0.00000000       0.00000000       0.00000000      -0.00008944
Ne       0.00000000       0.00000000       5.94040404       0.00000000       0.00000000       0.00008944
2
Properties=species:S:1:pos:R:3:forces:R:3 energy=-0.02491790322534807 pbc="F F F"
Ne       0.00000000       0.00000000       0.00000000       0.00000000       0.00000000       0.00008638
Ne       0.00000000       0.00000000       6.00000000       0.00000000       0.00000000      -0.00008638
