2
Properties=species:S:1:pos:R:3:forces:R:3 energy=18887.776826337493 pbc="F F F"
Ni       0.00000000       0.00000000       0.00000000       0.00000000       0.00000000 -377244.46875000
Ni       0.00000000       0.00000000       0.10000000       0.00000000       0.00000000  377244.46875000
2
Properties=species:S:1:pos:R:3:forces:R:3 energy=7444.587861493744 pbc="F F F"
Ni       0.00000000       0.00000000       0.00000000       0.00000000       0.00000000  -88893.42187500
Ni       0.00000000       0.00000000       0.15959596       0.00000000       0.00000000   88893.42187500
2
Properties=species:S:1:pos:R:3:forces:R:3 energy=4296.659638837494 pbc="F F F"
Ni       0.00000000       0.00000000       0.00000000       0.00000000       0.00000000  -29664.83398438
Ni       0.00000000       0.00000000       0.21919192       0.00000000       0.00000000   29664.83398438
2
Properties=species:S:1:pos:R:3:forces:R:3 energy=3135.7189650093687 pbc="F F F"
Ni       0.00000000       0.00000000       0.00000000       0.00000000       0.00000000  -12428.44726562
Ni       0.00000000       0.00000000       0.27878788       0.00000000       0.00000000   12428.44726562
2
Properties=species:S:1:pos:R:3:forces:R:3 energy=2608.3337111031187 pbc="F F F"
Ni       0.00000000       0.00000000       0.00000000       0.00000000       0.00000000   -6202.49804688
Ni       0.00000000       0.00000000       0.33838384       0.00000000       0.00000000    6202.49804688
2
Properties=species:S:1:pos:R:3:forces:R:3 energy=2313.7030958750793 pbc="F F F"
Ni       0.00000000       0.00000000       0.00000000       0.00000000       0.00000000   -4106.44970703
Ni       0.00000000       0.00000000       0.39797980       0.00000000       0.00000000    4106.44970703
2
Properties=species:S:1:pos:R:3:forces:R:3 energy=2086.239472840876 pbc="F F F"
Ni       0.00000000       0.00000000       0.00000000       0.00000000       0.00000000   -3722.48364258
Ni       0.00000000       0.00000000       0.45757576       0.00000000       0.00000000    3722.48364258
2
Properties=species:S:1:pos:R:3:forces:R:3 energy=1852.6115431787182 pbc="F F F"
Ni       0.00000000       0.00000000       0.00000000       0.00000000       0.00000000   -4223.36083984
Ni       0.00000000       0.00000000       0.51717172       0.00000000       0.00000000    4223.36083984
2
Properties=species:S:1:pos:R:3:forces:R:3 energy=1574.7366652933804 pbc="F F F"
Ni       0.00000000       0.00000000       0.00000000       0.00000000       0.00000000   -5124.58935547
Ni       0.00000000       0.00000000       0.57676768       0.00000000       0.00000000    5124.58935547
2
Properties=species:S:1:pos:R:3:forces:R:3 energy=1236.9323440803455 pbc="F F F"
Ni       0.00000000       0.00000000       0.00000000       0.00000000       0.00000000   -6127.13281250
Ni       0.00000000       0.00000000       0.63636364       0.00000000       0.00000000    6127.13281250
2
Properties=species:S:1:pos:R:3:forces:R:3 energy=874.1411454639184 pbc="F F F"
Ni       0.00000000       0.00000000       0.00000000       0.00000000       0.00000000   -5746.80712891
Ni       0.00000000       0.00000000       0.69595960       0.00000000       0.00000000    5746.80712891
2
Properties=species:S:1:pos:R:3:forces:R:3 energy=579.9835528742145 pbc="F F F"
Ni       0.00000000       0.00000000       0.00000000       0.00000000       0.00000000   -4105.33984375
Ni       0.00000000       0.00000000       0.75555556       0.00000000       0.00000000    4105.33984375
2
Properties=species:S:1:pos:R:3:forces:R:3 energy=376.12744352750667 pbc="F F F"
Ni       0.00000000       0.00000000       0.00000000       0.00000000       0.00000000   -2840.80908203
Ni       0.00000000       0.00000000       0.81515152       0.00000000       0.00000000    2840.80908203
2
Properties=species:S:1:pos:R:3:forces:R:3 energy=235.4419123072735 pbc="F F F"
Ni       0.00000000       0.00000000       0.00000000       0.00000000       0.00000000   -1823.27099609
Ni       0.00000000       0.00000000       0.87474747       0.00000000       0.00000000    1823.27099609
2
Properties=species:S:1:pos:R:3:forces:R:3 energy=151.95550844586487 pbc="F F F"
Ni       0.00000000       0.00000000       0.00000000       0.00000000       0.00000000   -1101.34851074
Ni       0.00000000       0.00000000       0.93434343       0.00000000       0.00000000    1101.34851074
2
Properties=species:S:1:pos:R:3:forces:R:3 energy=99.66463091974722 pbc="F F F"
Ni       0.00000000       0.00000000       0.00000000       0.00000000       0.00000000    -682.12744141
Ni       0.00000000       0.00000000       0.99393939       0.00000000       0.00000000     682.12744141
2
Properties=species:S:1:pos:R:3:forces:R:3 energy=67.54350770388605 pbc="F F F"
Ni       0.00000000       0.00000000       0.00000000       0.00000000       0.00000000    -419.14630127
Ni       0.00000000       0.00000000       1.05353535       0.00000000       0.00000000     419.14630127
2
Properties=species:S:1:pos:R:3:forces:R:3 energy=47.26647052984469 pbc="F F F"
Ni       0.00000000       0.00000000       0.00000000       0.00000000       0.00000000    -277.33309937
Ni       0.00000000       0.00000000       1.11313131       0.00000000       0.00000000     277.33309937
2
Properties=species:S:1:pos:R:3:forces:R:3 energy=33.298210657934995 pbc="F F F"
Ni       0.00000000       0.00000000       0.00000000       0.00000000       0.00000000    -197.06713867
Ni       0.00000000       0.00000000       1.17272727       0.00000000       0.00000000     197.06713867
2
Properties=species:S:1:pos:R:3:forces:R:3 energy=23.279805234321092 pbc="F F F"
Ni       0.00000000       0.00000000       0.00000000       0.00000000       0.00000000    -142.57376099
Ni       0.00000000       0.00000000       1.23232323       0.00000000       0.00000000     142.57376099
2
Properties=species:S:1:pos:R:3:forces:R:3 energy=15.969503671720586 pbc="F F F"
Ni       0.00000000       0.00000000       0.00000000       0.00000000       0.00000000    -104.97768402
Ni       0.00000000       0.00000000       1.29191919       0.00000000       0.00000000     104.97768402
2
Properties=species:S:1:pos:R:3:forces:R:3 energy=10.556627617958528 pbc="F F F"
Ni       0.00000000       0.00000000       0.00000000       0.00000000       0.00000000     -78.07079315
Ni       0.00000000       0.00000000       1.35151515       0.00000000       0.00000000      78.07079315
2
Properties=species:S:1:pos:R:3:forces:R:3 energy=6.529079879058053 pbc="F F F"
Ni       0.00000000       0.00000000       0.00000000       0.00000000       0.00000000     -58.02712631
Ni       0.00000000       0.00000000       1.41111111       0.00000000       0.00000000      58.02712631
2
Properties=species:S:1:pos:R:3:forces:R:3 energy=3.543856285355393 pbc="F F F"
Ni       0.00000000       0.00000000       0.00000000       0.00000000       0.00000000     -42.85726929
Ni       0.00000000       0.00000000       1.47070707       0.00000000       0.00000000      42.85726929
2
Properties=species:S:1:pos:R:3:forces:R:3 energy=1.3483182647712728 pbc="F F F"
Ni       0.00000000       0.00000000       0.00000000       0.00000000       0.00000000     -31.34853172
Ni       0.00000000       0.00000000       1.53030303       0.00000000       0.00000000      31.34853172
2
Properties=species:S:1:pos:R:3:forces:R:3 energy=-0.2478177642908616 pbc="F F F"
Ni       0.00000000       0.00000000       0.00000000       0.00000000       0.00000000     -22.62967873
Ni       0.00000000       0.00000000       1.58989899       0.00000000       0.00000000      22.62967873
2
Properties=species:S:1:pos:R:3:forces:R:3 energy=-1.393240133023568 pbc="F F F"
Ni       0.00000000       0.00000000       0.00000000       0.00000000       0.00000000     -16.14095306
Ni       0.00000000       0.00000000       1.64949495       0.00000000       0.00000000      16.14095306
2
Properties=species:S:1:pos:R:3:forces:R:3 energy=-2.206458578708773 pbc="F F F"
Ni       0.00000000       0.00000000       0.00000000       0.00000000       0.00000000     -11.40381622
Ni       0.00000000       0.00000000       1.70909091       0.00000000       0.00000000      11.40381622
2
Properties=species:S:1:pos:R:3:forces:R:3 energy=-2.778447173032046 pbc="F F F"
Ni       0.00000000       0.00000000       0.00000000       0.00000000       0.00000000      -7.97548676
Ni       0.00000000       0.00000000       1.76868687       0.00000000       0.00000000       7.97548676
2
Properties=species:S:1:pos:R:3:forces:R:3 energy=-3.1753225531937983 pbc="F F F"
Ni       0.00000000       0.00000000       0.00000000       0.00000000       0.00000000      -5.46895790
Ni       0.00000000       0.00000000       1.82828283       0.00000000       0.00000000       5.46895790
2
Properties=species:S:1:pos:R:3:forces:R:3 energy=-3.4426219822122013 pbc="F F F"
Ni       0.00000000       0.00000000       0.00000000       0.00000000       0.00000000      -3.58635569
Ni       0.00000000       0.00000000       1.88787879       0.00000000       0.00000000       3.58635569
2
Properties=species:S:1:pos:R:3:forces:R:3 energy=-3.6113442903915947 pbc="F F F"
Ni       0.00000000       0.00000000       0.00000000       0.00000000       0.00000000      -2.13755369
Ni       0.00000000       0.00000000       1.94747475       0.00000000       0.00000000       2.13755369
2
Properties=species:S:1:pos:R:3:forces:R:3 energy=-3.7039701412674804 pbc="F F F"
Ni       0.00000000       0.00000000       0.00000000       0.00000000       0.00000000      -1.02099431
Ni       0.00000000       0.00000000       2.00707071       0.00000000       0.00000000       1.02099431
2
Properties=species:S:1:pos:R:3:forces:R:3 energy=-3.7385719334098746 pbc="F F F"
Ni       0.00000000       0.00000000       0.00000000       0.00000000       0.00000000      -0.18334880
Ni       0.00000000       0.00000000       2.06666667       0.00000000       0.00000000       0.18334880
2
Properties=species:S:1:pos:R:3:forces:R:3 energy=-3.7305842352332754 pbc="F F F"
Ni       0.00000000       0.00000000       0.00000000       0.00000000       0.00000000       0.41471025
Ni       0.00000000       0.00000000       2.12626263       0.00000000       0.00000000      -0.41471025
2
Properties=species:S:1:pos:R:3:forces:R:3 energy=-3.6931058882587657 pbc="F F F"
Ni       0.00000000       0.00000000       0.00000000       0.00000000       0.00000000       0.81317556
Ni       0.00000000       0.00000000       2.18585859       0.00000000       0.00000000      -0.81317556
2
Properties=species:S:1:pos:R:3:forces:R:3 energy=-3.6368360462551963 pbc="F F F"
Ni       0.00000000       0.00000000       0.00000000       0.00000000       0.00000000       1.05163503
Ni       0.00000000       0.00000000       2.24545455       0.00000000       0.00000000      -1.05163503
2
Properties=species:S:1:pos:R:3:forces:R:3 energy=-3.570220156574261 pbc="F F F"
Ni       0.00000000       0.00000000       0.00000000       0.00000000       0.00000000       1.16657448
Ni       0.00000000       0.00000000       2.30505051       0.00000000       0.00000000      -1.16657448
2
Properties=species:S:1:pos:R:3:forces:R:3 energy=-3.499273484017745 pbc="F F F"
Ni       0.00000000       0.00000000       0.00000000       0.00000000       0.00000000       1.20869982
Ni       0.00000000       0.00000000       2.36464646       0.00000000       0.00000000      -1.20869982
2
Properties=species:S:1:pos:R:3:forces:R:3 energy=-3.4258076434400135 pbc="F F F"
Ni       0.00000000       0.00000000       0.00000000       0.00000000       0.00000000       1.26649725
Ni       0.00000000       0.00000000       2.42424242       0.00000000       0.00000000      -1.26649725
2
Properties=species:S:1:pos:R:3:forces:R:3 energy=-3.3472659439743837 pbc="F F F"
Ni       0.00000000       0.00000000       0.00000000       0.00000000       0.00000000       1.37178385
Ni       0.00000000       0.00000000       2.48383838       0.00000000       0.00000000      -1.37178385
2
Properties=species:S:1:pos:R:3:forces:R:3 energy=-3.2629538075183557 pbc="F F F"
Ni       0.00000000       0.00000000       0.00000000       0.00000000       0.00000000       1.44734764
Ni       0.00000000       0.00000000       2.54343434       0.00000000       0.00000000      -1.44734764
2
Properties=species:S:1:pos:R:3:forces:R:3 energy=-3.1759844907742925 pbc="F F F"
Ni       0.00000000       0.00000000       0.00000000       0.00000000       0.00000000       1.46262848
Ni       0.00000000       0.00000000       2.60303030       0.00000000       0.00000000      -1.46262848
2
Properties=species:S:1:pos:R:3:forces:R:3 energy=-3.0893989938844646 pbc="F F F"
Ni       0.00000000       0.00000000       0.00000000       0.00000000       0.00000000       1.43827164
Ni       0.00000000       0.00000000       2.66262626       0.00000000       0.00000000      -1.43827164
2
Properties=species:S:1:pos:R:3:forces:R:3 energy=-3.0049985439575124 pbc="F F F"
Ni       0.00000000       0.00000000       0.00000000       0.00000000       0.00000000       1.39126992
Ni       0.00000000       0.00000000       2.72222222       0.00000000       0.00000000      -1.39126992
2
Properties=species:S:1:pos:R:3:forces:R:3 energy=-2.9238550732632453 pbc="F F F"
Ni       0.00000000       0.00000000       0.00000000       0.00000000       0.00000000       1.32992423
Ni       0.00000000       0.00000000       2.78181818       0.00000000       0.00000000      -1.32992423
2
Properties=species:S:1:pos:R:3:forces:R:3 energy=-2.8466586649483796 pbc="F F F"
Ni       0.00000000       0.00000000       0.00000000       0.00000000       0.00000000       1.25965989
Ni       0.00000000       0.00000000       2.84141414       0.00000000       0.00000000      -1.25965989
2
Properties=species:S:1:pos:R:3:forces:R:3 energy=-2.7737970110469137 pbc="F F F"
Ni       0.00000000       0.00000000       0.00000000       0.00000000       0.00000000       1.18521845
Ni       0.00000000       0.00000000       2.90101010       0.00000000       0.00000000      -1.18521845
2
Properties=species:S:1:pos:R:3:forces:R:3 energy=-2.7053920448230766 pbc="F F F"
Ni       0.00000000       0.00000000       0.00000000       0.00000000       0.00000000       1.11065984
Ni       0.00000000       0.00000000       2.96060606       0.00000000       0.00000000      -1.11065984
2
Properties=species:S:1:pos:R:3:forces:R:3 energy=-2.6413583020313247 pbc="F F F"
Ni       0.00000000       0.00000000       0.00000000       0.00000000       0.00000000       1.03888178
Ni       0.00000000       0.00000000       3.02020202       0.00000000       0.00000000      -1.03888178
2
Properties=species:S:1:pos:R:3:forces:R:3 energy=-2.581478968123894 pbc="F F F"
Ni       0.00000000       0.00000000       0.00000000       0.00000000       0.00000000       0.97141421
Ni       0.00000000       0.00000000       3.07979798       0.00000000       0.00000000      -0.97141421
2
Properties=species:S:1:pos:R:3:forces:R:3 energy=-2.5254811051522674 pbc="F F F"
Ni       0.00000000       0.00000000       0.00000000       0.00000000       0.00000000       0.90861344
Ni       0.00000000       0.00000000       3.13939394       0.00000000       0.00000000      -0.90861344
2
Properties=species:S:1:pos:R:3:forces:R:3 energy=-2.4730942860666034 pbc="F F F"
Ni       0.00000000       0.00000000       0.00000000       0.00000000       0.00000000       0.85010403
Ni       0.00000000       0.00000000       3.19898990       0.00000000       0.00000000      -0.85010403
2
Properties=species:S:1:pos:R:3:forces:R:3 energy=-2.4240834544660492 pbc="F F F"
Ni       0.00000000       0.00000000       0.00000000       0.00000000       0.00000000       0.79522234
Ni       0.00000000       0.00000000       3.25858586       0.00000000       0.00000000      -0.79522234
2
Properties=species:S:1:pos:R:3:forces:R:3 energy=-2.3782509966741228 pbc="F F F"
Ni       0.00000000       0.00000000       0.00000000       0.00000000       0.00000000       0.74333465
Ni       0.00000000       0.00000000       3.31818182       0.00000000       0.00000000      -0.74333465
2
Properties=species:S:1:pos:R:3:forces:R:3 energy=-2.335433441892472 pbc="F F F"
Ni       0.00000000       0.00000000       0.00000000       0.00000000       0.00000000       0.69398296
Ni       0.00000000       0.00000000       3.37777778       0.00000000       0.00000000      -0.69398296
2
Properties=species:S:1:pos:R:3:forces:R:3 energy=-2.2954887776669324 pbc="F F F"
Ni       0.00000000       0.00000000       0.00000000       0.00000000       0.00000000       0.64691281
Ni       0.00000000       0.00000000       3.43737374       0.00000000       0.00000000      -0.64691281
2
Properties=species:S:1:pos:R:3:forces:R:3 energy=-2.2582834319003395 pbc="F F F"
Ni       0.00000000       0.00000000       0.00000000       0.00000000       0.00000000       0.60202509
Ni       0.00000000       0.00000000       3.49696970       0.00000000       0.00000000      -0.60202509
2
Properties=species:S:1:pos:R:3:forces:R:3 energy=-2.223688289428774 pbc="F F F"
Ni       0.00000000       0.00000000       0.00000000       0.00000000       0.00000000       0.55932426
Ni       0.00000000       0.00000000       3.55656566       0.00000000       0.00000000      -0.55932426
2
Properties=species:S:1:pos:R:3:forces:R:3 energy=-2.1915726642008986 pbc="F F F"
Ni       0.00000000       0.00000000       0.00000000       0.00000000       0.00000000       0.51884061
Ni       0.00000000       0.00000000       3.61616162       0.00000000       0.00000000      -0.51884061
2
Properties=species:S:1:pos:R:3:forces:R:3 energy=-2.161803088178131 pbc="F F F"
Ni       0.00000000       0.00000000       0.00000000       0.00000000       0.00000000       0.48057640
Ni       0.00000000       0.00000000       3.67575758       0.00000000       0.00000000      -0.48057640
2
Properties=species:S:1:pos:R:3:forces:R:3 energy=-2.134248972360003 pbc="F F F"
Ni       0.00000000       0.00000000       0.00000000       0.00000000       0.00000000       0.44447058
Ni       0.00000000       0.00000000       3.73535354       0.00000000       0.00000000      -0.44447058
2
Properties=species:S:1:pos:R:3:forces:R:3 energy=-2.108785347429868 pbc="F F F"
Ni       0.00000000       0.00000000       0.00000000       0.00000000       0.00000000       0.41039538
Ni       0.00000000       0.00000000       3.79494949       0.00000000       0.00000000      -0.41039538
2
Properties=species:S:1:pos:R:3:forces:R:3 energy=-2.085296340999184 pbc="F F F"
Ni       0.00000000       0.00000000       0.00000000       0.00000000       0.00000000       0.37816823
Ni       0.00000000       0.00000000       3.85454545       0.00000000       0.00000000      -0.37816823
2
Properties=species:S:1:pos:R:3:forces:R:3 energy=-2.063678131329221 pbc="F F F"
Ni       0.00000000       0.00000000       0.00000000       0.00000000       0.00000000       0.34758270
Ni       0.00000000       0.00000000       3.91414141       0.00000000       0.00000000      -0.34758270
2
Properties=species:S:1:pos:R:3:forces:R:3 energy=-2.043838294263817 pbc="F F F"
Ni       0.00000000       0.00000000       0.00000000       0.00000000       0.00000000       0.31844717
Ni       0.00000000       0.00000000       3.97373737       0.00000000       0.00000000      -0.31844717
2
Properties=species:S:1:pos:R:3:forces:R:3 energy=-2.0256958147327127 pbc="F F F"
Ni       0.00000000       0.00000000       0.00000000       0.00000000       0.00000000       0.29062250
Ni       0.00000000       0.00000000       4.03333333       0.00000000       0.00000000      -0.29062250
2
Properties=species:S:1:pos:R:3:forces:R:3 energy=-2.0091742399689414 pbc="F F F"
Ni       0.00000000       0.00000000       0.00000000       0.00000000       0.00000000       0.26403359
Ni       0.00000000       0.00000000       4.09292929       0.00000000       0.00000000      -0.26403359
2
Properties=species:S:1:pos:R:3:forces:R:3 energy=-1.994200291010961 pbc="F F F"
Ni       0.00000000       0.00000000       0.00000000       0.00000000       0.00000000       0.23868525
Ni       0.00000000       0.00000000       4.15252525       0.00000000       0.00000000      -0.23868525
2
Properties=species:S:1:pos:R:3:forces:R:3 energy=-1.9806989359399627 pbc="F F F"
Ni       0.00000000       0.00000000       0.00000000       0.00000000       0.00000000       0.21464559
Ni       0.00000000       0.00000000       4.21212121       0.00000000       0.00000000      -0.21464559
2
Properties=species:S:1:pos:R:3:forces:R:3 energy=-1.9685880599718524 pbc="F F F"
Ni       0.00000000       0.00000000       0.00000000       0.00000000       0.00000000       0.19202872
Ni       0.00000000       0.00000000       4.27171717       0.00000000       0.00000000      -0.19202872
2
Properties=species:S:1:pos:R:3:forces:R:3 energy=-1.9577797070673484 pbc="F F F"
Ni       0.00000000       0.00000000       0.00000000       0.00000000       0.00000000       0.17096663
Ni       0.00000000       0.00000000       4.33131313       0.00000000       0.00000000      -0.17096663
2
Properties=species:S:1:pos:R:3:forces:R:3 energy=-1.9481770961958855 pbc="F F F"
Ni       0.00000000       0.00000000       0.00000000       0.00000000       0.00000000       0.15157405
Ni       0.00000000       0.00000000       4.39090909       0.00000000       0.00000000      -0.15157405
2
Properties=species:S:1:pos:R:3:forces:R:3 energy=-1.9396784570396843 pbc="F F F"
Ni       0.00000000       0.00000000       0.00000000       0.00000000       0.00000000       0.13392726
Ni       0.00000000       0.00000000       4.45050505       0.00000000       0.00000000      -0.13392726
2
Properties=species:S:1:pos:R:3:forces:R:3 energy=-1.9321791175722125 pbc="F F F"
Ni       0.00000000       0.00000000       0.00000000       0.00000000       0.00000000       0.11803988
Ni       0.00000000       0.00000000       4.51010101       0.00000000       0.00000000      -0.11803988
2
Properties=species:S:1:pos:R:3:forces:R:3 energy=-1.925575313251723 pbc="F F F"
Ni       0.00000000       0.00000000       0.00000000       0.00000000       0.00000000       0.10384518
Ni       0.00000000       0.00000000       4.56969697       0.00000000       0.00000000      -0.10384518
2
Properties=species:S:1:pos:R:3:forces:R:3 energy=-1.9197706971828012 pbc="F F F"
Ni       0.00000000       0.00000000       0.00000000       0.00000000       0.00000000       0.09119947
Ni       0.00000000       0.00000000       4.62929293       0.00000000       0.00000000      -0.09119947
2
Properties=species:S:1:pos:R:3:forces:R:3 energy=-1.9146786280995376 pbc="F F F"
Ni       0.00000000       0.00000000       0.00000000       0.00000000       0.00000000       0.07989022
Ni       0.00000000       0.00000000       4.68888889       0.00000000       0.00000000      -0.07989022
2
Properties=species:S:1:pos:R:3:forces:R:3 energy=-1.9102267700106184 pbc="F F F"
Ni       0.00000000       0.00000000       0.00000000       0.00000000       0.00000000       0.06966737
Ni       0.00000000       0.00000000       4.74848485       0.00000000       0.00000000      -0.06966737
2
Properties=species:S:1:pos:R:3:forces:R:3 energy=-1.9063579064894685 pbc="F F F"
Ni       0.00000000       0.00000000       0.00000000       0.00000000       0.00000000       0.06029627
Ni       0.00000000       0.00000000       4.80808081       0.00000000       0.00000000      -0.06029627
2
Properties=species:S:1:pos:R:3:forces:R:3 energy=-1.9030264479268912 pbc="F F F"
Ni       0.00000000       0.00000000       0.00000000       0.00000000       0.00000000       0.05161610
Ni       0.00000000       0.00000000       4.86767677       0.00000000       0.00000000      -0.05161610
2
Properties=species:S:1:pos:R:3:forces:R:3 energy=-1.9001923982066826 pbc="F F F"
Ni       0.00000000       0.00000000       0.00000000       0.00000000       0.00000000       0.04360963
Ni       0.00000000       0.00000000       4.92727273       0.00000000       0.00000000      -0.04360963
2
Properties=species:S:1:pos:R:3:forces:R:3 energy=-1.8978122737928222 pbc="F F F"
Ni       0.00000000       0.00000000       0.00000000       0.00000000       0.00000000       0.03642716
Ni       0.00000000       0.00000000       4.98686869       0.00000000       0.00000000      -0.03642716
2
Properties=species:S:1:pos:R:3:forces:R:3 energy=-1.8958285938891009 pbc="F F F"
Ni       0.00000000       0.00000000       0.00000000       0.00000000       0.00000000       0.03036143
Ni       0.00000000       0.00000000       5.04646465       0.00000000       0.00000000      -0.03036143
2
Properties=species:S:1:pos:R:3:forces:R:3 energy=-1.8941648974076248 pbc="F F F"
Ni       0.00000000       0.00000000       0.00000000       0.00000000       0.00000000       0.02572749
Ni       0.00000000       0.00000000       5.10606061       0.00000000       0.00000000      -0.02572749
2
Properties=species:S:1:pos:R:3:forces:R:3 energy=-1.8927301960621707 pbc="F F F"
Ni       0.00000000       0.00000000       0.00000000       0.00000000       0.00000000       0.02267830
Ni       0.00000000       0.00000000       5.16565657       0.00000000       0.00000000      -0.02267830
2
Properties=species:S:1:pos:R:3:forces:R:3 energy=-1.8914342996815114 pbc="F F F"
Ni       0.00000000       0.00000000       0.00000000       0.00000000       0.00000000       0.02099692
Ni       0.00000000       0.00000000       5.22525253       0.00000000       0.00000000      -0.02099692
2
Properties=species:S:1:pos:R:3:forces:R:3 energy=-1.890213849767961 pbc="F F F"
Ni       0.00000000       0.00000000       0.00000000       0.00000000       0.00000000       0.01999044
Ni       0.00000000       0.00000000       5.28484848       0.00000000       0.00000000      -0.01999044
2
Properties=species:S:1:pos:R:3:forces:R:3 energy=-1.8890574944162646 pbc="F F F"
Ni       0.00000000       0.00000000       0.00000000       0.00000000       0.00000000       0.01870307
Ni       0.00000000       0.00000000       5.34444444       0.00000000       0.00000000      -0.01870307
2
Properties=species:S:1:pos:R:3:forces:R:3 energy=-1.8879997163570301 pbc="F F F"
Ni       0.00000000       0.00000000       0.00000000       0.00000000       0.00000000       0.01671962
Ni       0.00000000       0.00000000       5.40404040       0.00000000       0.00000000      -0.01671962
2
Properties=species:S:1:pos:R:3:forces:R:3 energy=-1.8870571526053952 pbc="F F F"
Ni       0.00000000       0.00000000       0.00000000       0.00000000       0.00000000       0.01512112
Ni       0.00000000       0.00000000       5.46363636       0.00000000       0.00000000      -0.01512112
2
Properties=species:S:1:pos:R:3:forces:R:3 energy=-1.8861684381193131 pbc="F F F"
Ni       0.00000000       0.00000000       0.00000000       0.00000000       0.00000000       0.01483600
Ni       0.00000000       0.00000000       5.52323232       0.00000000       0.00000000      -0.01483600
2
Properties=species:S:1:pos:R:3:forces:R:3 energy=-1.8853013301853903 pbc="F F F"
Ni       0.00000000       0.00000000       0.00000000       0.00000000       0.00000000       0.01397401
Ni       0.00000000       0.00000000       5.58282828       0.00000000       0.00000000      -0.01397401
2
Properties=species:S:1:pos:R:3:forces:R:3 energy=-1.8845359085834368 pbc="F F F"
Ni       0.00000000       0.00000000       0.00000000       0.00000000       0.00000000       0.01156265
Ni       0.00000000       0.00000000       5.64242424       0.00000000       0.00000000      -0.01156265
2
Properties=species:S:1:pos:R:3:forces:R:3 energy=-1.883910774596144 pbc="F F F"
Ni       0.00000000       0.00000000       0.00000000       0.00000000       0.00000000       0.00984543
Ni       0.00000000       0.00000000       5.70202020       0.00000000       0.00000000      -0.00984543
2
Properties=species:S:1:pos:R:3:forces:R:3 energy=-1.8832844169409801 pbc="F F F"
Ni       0.00000000       0.00000000       0.00000000       0.00000000       0.00000000       0.01181266
Ni       0.00000000       0.00000000       5.76161616       0.00000000       0.00000000      -0.01181266
2
Properties=species:S:1:pos:R:3:forces:R:3 energy=-1.882478267669385 pbc="F F F"
Ni       0.00000000       0.00000000       0.00000000       0.00000000       0.00000000       0.01487790
Ni       0.00000000       0.00000000       5.82121212       0.00000000       0.00000000      -0.01487790
2
Properties=species:S:1:pos:R:3:forces:R:3 energy=-1.8815913572544267 pbc="F F F"
Ni       0.00000000       0.00000000       0.00000000       0.00000000       0.00000000       0.01424440
Ni       0.00000000       0.00000000       5.88080808       0.00000000       0.00000000      -0.01424440
2
Properties=species:S:1:pos:R:3:forces:R:3 energy=-1.8808232602854185 pbc="F F F"
Ni       0.00000000       0.00000000       0.00000000       0.00000000       0.00000000       0.01142918
Ni       0.00000000       0.00000000       5.94040404       0.00000000       0.00000000      -0.01142918
2
Properties=species:S:1:pos:R:3:forces:R:3 energy=-1.8802041386961525 pbc="F F F"
Ni       0.00000000       0.00000000       0.00000000       0.00000000       0.00000000       0.00971282
Ni       0.00000000       0.00000000       6.00000000       0.00000000       0.00000000      -0.00971282
