2
Properties=species:S:1:pos:R:3:forces:R:3 energy=82480.68847315571 pbc="F F F"
Re       0.00000000       0.00000000       0.00000000       0.00000000       0.00000000 -2007398.87500000
Re       0.00000000       0.00000000       0.10000000       0.00000000       0.00000000 2007398.87500000
2
Properties=species:S:1:pos:R:3:forces:R:3 energy=24878.358395030707 pbc="F F F"
Re       0.00000000       0.00000000       0.00000000       0.00000000       0.00000000 -412827.96875000
Re       0.00000000       0.00000000       0.15959596       0.00000000       0.00000000  412827.96875000
2
Properties=species:S:1:pos:R:3:forces:R:3 energy=10863.812496593206 pbc="F F F"
Re       0.00000000       0.00000000       0.00000000       0.00000000       0.00000000 -124598.60937500
Re       0.00000000       0.00000000       0.21919192       0.00000000       0.00000000  124598.60937500
2
Properties=species:S:1:pos:R:3:forces:R:3 energy=6181.100582530706 pbc="F F F"
Re       0.00000000       0.00000000       0.00000000       0.00000000       0.00000000  -46533.93359375
Re       0.00000000       0.00000000       0.27878788       0.00000000       0.00000000   46533.93359375
2
Properties=species:S:1:pos:R:3:forces:R:3 energy=4290.546871593206 pbc="F F F"
Re       0.00000000       0.00000000       0.00000000       0.00000000       0.00000000  -21328.56445312
Re       0.00000000       0.00000000       0.33838384       0.00000000       0.00000000   21328.56445312
2
Properties=species:S:1:pos:R:3:forces:R:3 energy=3317.189693861999 pbc="F F F"
Re       0.00000000       0.00000000       0.00000000       0.00000000       0.00000000  -12956.01171875
Re       0.00000000       0.00000000       0.39797980       0.00000000       0.00000000   12956.01171875
2
Properties=species:S:1:pos:R:3:forces:R:3 energy=2621.8889126183344 pbc="F F F"
Re       0.00000000       0.00000000       0.00000000       0.00000000       0.00000000  -11016.17382812
Re       0.00000000       0.00000000       0.45757576       0.00000000       0.00000000   11016.17382812
2
Properties=species:S:1:pos:R:3:forces:R:3 energy=1960.7877163387752 pbc="F F F"
Re       0.00000000       0.00000000       0.00000000       0.00000000       0.00000000  -11297.58984375
Re       0.00000000       0.00000000       0.51717172       0.00000000       0.00000000   11297.58984375
2
Properties=species:S:1:pos:R:3:forces:R:3 energy=1284.5342983922 pbc="F F F"
Re       0.00000000       0.00000000       0.00000000       0.00000000       0.00000000  -11136.48828125
Re       0.00000000       0.00000000       0.57676768       0.00000000       0.00000000   11136.48828125
2
Properties=species:S:1:pos:R:3:forces:R:3 energy=1235.588985927046 pbc="F F F"
Re       0.00000000       0.00000000       0.00000000       0.00000000       0.00000000    1264.95275879
Re       0.00000000       0.00000000       0.63636364       0.00000000       0.00000000   -1264.95275879
2
Properties=species:S:1:pos:R:3:forces:R:3 energy=1146.0642057074615 pbc="F F F"
Re       0.00000000       0.00000000       0.00000000       0.00000000       0.00000000   -4684.05615234
Re       0.00000000       0.00000000       0.69595960       0.00000000       0.00000000    4684.05615234
2
Properties=species:S:1:pos:R:3:forces:R:3 energy=894.597469953149 pbc="F F F"
Re       0.00000000       0.00000000       0.00000000       0.00000000       0.00000000   -3782.10351562
Re       0.00000000       0.00000000       0.75555556       0.00000000       0.00000000    3782.10351562
2
Properties=species:S:1:pos:R:3:forces:R:3 energy=692.4021575830297 pbc="F F F"
Re       0.00000000       0.00000000       0.00000000       0.00000000       0.00000000   -3014.96899414
Re       0.00000000       0.00000000       0.81515152       0.00000000       0.00000000    3014.96899414
2
Properties=species:S:1:pos:R:3:forces:R:3 energy=531.9020967284393 pbc="F F F"
Re       0.00000000       0.00000000       0.00000000       0.00000000       0.00000000   -2460.21972656
Re       0.00000000       0.00000000       0.87474747       0.00000000       0.00000000    2460.21972656
2
Properties=species:S:1:pos:R:3:forces:R:3 energy=399.37341046476325 pbc="F F F"
Re       0.00000000       0.00000000       0.00000000       0.00000000       0.00000000   -1973.86743164
Re       0.00000000       0.00000000       0.93434343       0.00000000       0.00000000    1973.86743164
2
Properties=species:S:1:pos:R:3:forces:R:3 energy=295.99169695870745 pbc="F F F"
Re       0.00000000       0.00000000       0.00000000       0.00000000       0.00000000   -1435.44775391
Re       0.00000000       0.00000000       0.99393939       0.00000000       0.00000000    1435.44775391
2
Properties=species:S:1:pos:R:3:forces:R:3 energy=226.69372381373958 pbc="F F F"
Re       0.00000000       0.00000000       0.00000000       0.00000000       0.00000000    -964.39538574
Re       0.00000000       0.00000000       1.05353535       0.00000000       0.00000000     964.39538574
2
Properties=species:S:1:pos:R:3:forces:R:3 energy=176.66494639013908 pbc="F F F"
Re       0.00000000       0.00000000       0.00000000       0.00000000       0.00000000    -712.38818359
Re       0.00000000       0.00000000       1.11313131       0.00000000       0.00000000     712.38818359
2
Properties=species:S:1:pos:R:3:forces:R:3 energy=143.28659031502514 pbc="F F F"
Re       0.00000000       0.00000000       0.00000000       0.00000000       0.00000000    -460.19995117
Re       0.00000000       0.00000000       1.17272727       0.00000000       0.00000000     460.19995117
2
Properties=species:S:1:pos:R:3:forces:R:3 energy=116.60822381852026 pbc="F F F"
Re       0.00000000       0.00000000       0.00000000       0.00000000       0.00000000    -441.84848022
Re       0.00000000       0.00000000       1.23232323       0.00000000       0.00000000     441.84848022
2
Properties=species:S:1:pos:R:3:forces:R:3 energy=91.13942184778197 pbc="F F F"
Re       0.00000000       0.00000000       0.00000000       0.00000000       0.00000000    -411.58731079
Re       0.00000000       0.00000000       1.29191919       0.00000000       0.00000000     411.58731079
2
Properties=species:S:1:pos:R:3:forces:R:3 energy=67.40021926254143 pbc="F F F"
Re       0.00000000       0.00000000       0.00000000       0.00000000       0.00000000    -384.44436646
Re       0.00000000       0.00000000       1.35151515       0.00000000       0.00000000     384.44436646
2
Properties=species:S:1:pos:R:3:forces:R:3 energy=45.75034210047825 pbc="F F F"
Re       0.00000000       0.00000000       0.00000000       0.00000000       0.00000000    -336.44696045
Re       0.00000000       0.00000000       1.41111111       0.00000000       0.00000000     336.44696045
2
Properties=species:S:1:pos:R:3:forces:R:3 energy=27.87018557980207 pbc="F F F"
Re       0.00000000       0.00000000       0.00000000       0.00000000       0.00000000    -261.00817871
Re       0.00000000       0.00000000       1.47070707       0.00000000       0.00000000     261.00817871
2
Properties=species:S:1:pos:R:3:forces:R:3 energy=14.639972128775474 pbc="F F F"
Re       0.00000000       0.00000000       0.00000000       0.00000000       0.00000000    -185.07643127
Re       0.00000000       0.00000000       1.53030303       0.00000000       0.00000000     185.07643127
2
Properties=species:S:1:pos:R:3:forces:R:3 energy=5.446749654421797 pbc="F F F"
Re       0.00000000       0.00000000       0.00000000       0.00000000       0.00000000    -126.81915283
Re       0.00000000       0.00000000       1.58989899       0.00000000       0.00000000     126.81915283
2
Properties=species:S:1:pos:R:3:forces:R:3 energy=-0.8472456619186343 pbc="F F F"
Re       0.00000000       0.00000000       0.00000000       0.00000000       0.00000000     -87.07450867
Re       0.00000000       0.00000000       1.64949495       0.00000000       0.00000000      87.07450867
2
Properties=species:S:1:pos:R:3:forces:R:3 energy=-5.189304212267648 pbc="F F F"
Re       0.00000000       0.00000000       0.00000000       0.00000000       0.00000000     -60.33718109
Re       0.00000000       0.00000000       1.70909091       0.00000000       0.00000000      60.33718109
2
Properties=species:S:1:pos:R:3:forces:R:3 energy=-8.199233924381845 pbc="F F F"
Re       0.00000000       0.00000000       0.00000000       0.00000000       0.00000000     -41.74394226
Re       0.00000000       0.00000000       1.76868687       0.00000000       0.00000000      41.74394226
2
Properties=species:S:1:pos:R:3:forces:R:3 energy=-10.269847394094532 pbc="F F F"
Re       0.00000000       0.00000000       0.00000000       0.00000000       0.00000000     -28.47316742
Re       0.00000000       0.00000000       1.82828283       0.00000000       0.00000000      28.47316742
2
Properties=species:S:1:pos:R:3:forces:R:3 energy=-11.66590659049887 pbc="F F F"
Re       0.00000000       0.00000000       0.00000000       0.00000000       0.00000000     -18.88873482
Re       0.00000000       0.00000000       1.88787879       0.00000000       0.00000000      18.88873482
2
Properties=species:S:1:pos:R:3:forces:R:3 energy=-12.572452041385827 pbc="F F F"
Re       0.00000000       0.00000000       0.00000000       0.00000000       0.00000000     -11.89381504
Re       0.00000000       0.00000000       1.94747475       0.00000000       0.00000000      11.89381504
2
Properties=species:S:1:pos:R:3:forces:R:3 energy=-13.119832411656017 pbc="F F F"
Re       0.00000000       0.00000000       0.00000000       0.00000000       0.00000000      -6.73415422
Re       0.00000000       0.00000000       2.00707071       0.00000000       0.00000000       6.73415422
2
Properties=species:S:1:pos:R:3:forces:R:3 energy=-13.401869122185191 pbc="F F F"
Re       0.00000000       0.00000000       0.00000000       0.00000000       0.00000000      -2.92792797
Re       0.00000000       0.00000000       2.06666667       0.00000000       0.00000000       2.92792797
2
Properties=species:S:1:pos:R:3:forces:R:3 energy=-13.489757746560242 pbc="F F F"
Re       0.00000000       0.00000000       0.00000000       0.00000000       0.00000000      -0.17825563
Re       0.00000000       0.00000000       2.12626263       0.00000000       0.00000000       0.17825563
2
Properties=species:S:1:pos:R:3:forces:R:3 energy=-13.439768367151995 pbc="F F F"
Re       0.00000000       0.00000000       0.00000000       0.00000000       0.00000000       1.73235106
Re       0.00000000       0.00000000       2.18585859       0.00000000       0.00000000      -1.73235106
2
Properties=species:S:1:pos:R:3:forces:R:3 energy=-13.296220158008138 pbc="F F F"
Re       0.00000000       0.00000000       0.00000000       0.00000000       0.00000000       2.99028015
Re       0.00000000       0.00000000       2.24545455       0.00000000       0.00000000      -2.99028015
2
Properties=species:S:1:pos:R:3:forces:R:3 energy=-13.093135185838726 pbc="F F F"
Re       0.00000000       0.00000000       0.00000000       0.00000000       0.00000000       3.75473046
Re       0.00000000       0.00000000       2.30505051       0.00000000       0.00000000      -3.75473046
2
Properties=species:S:1:pos:R:3:forces:R:3 energy=-12.85583414441449 pbc="F F F"
Re       0.00000000       0.00000000       0.00000000       0.00000000       0.00000000       4.15881824
Re       0.00000000       0.00000000       2.36464646       0.00000000       0.00000000      -4.15881824
2
Properties=species:S:1:pos:R:3:forces:R:3 energy=-12.60236214787548 pbc="F F F"
Re       0.00000000       0.00000000       0.00000000       0.00000000       0.00000000       4.31428957
Re       0.00000000       0.00000000       2.42424242       0.00000000       0.00000000      -4.31428957
2
Properties=species:S:1:pos:R:3:forces:R:3 energy=-12.344750963743056 pbc="F F F"
Re       0.00000000       0.00000000       0.00000000       0.00000000       0.00000000       4.31057644
Re       0.00000000       0.00000000       2.48383838       0.00000000       0.00000000      -4.31057644
2
Properties=species:S:1:pos:R:3:forces:R:3 energy=-12.090471714218587 pbc="F F F"
Re       0.00000000       0.00000000       0.00000000       0.00000000       0.00000000       4.21059704
Re       0.00000000       0.00000000       2.54343434       0.00000000       0.00000000      -4.21059704
2
Properties=species:S:1:pos:R:3:forces:R:3 energy=-11.844030510620914 pbc="F F F"
Re       0.00000000       0.00000000       0.00000000       0.00000000       0.00000000       4.05220556
Re       0.00000000       0.00000000       2.60303030       0.00000000       0.00000000      -4.05220556
2
Properties=species:S:1:pos:R:3:forces:R:3 energy=-11.608209007044035 pbc="F F F"
Re       0.00000000       0.00000000       0.00000000       0.00000000       0.00000000       3.85697961
Re       0.00000000       0.00000000       2.66262626       0.00000000       0.00000000      -3.85697961
2
Properties=species:S:1:pos:R:3:forces:R:3 energy=-11.384738873653573 pbc="F F F"
Re       0.00000000       0.00000000       0.00000000       0.00000000       0.00000000       3.64007545
Re       0.00000000       0.00000000       2.72222222       0.00000000       0.00000000      -3.64007545
2
Properties=species:S:1:pos:R:3:forces:R:3 energy=-11.174491674945305 pbc="F F F"
Re       0.00000000       0.00000000       0.00000000       0.00000000       0.00000000       3.41568947
Re       0.00000000       0.00000000       2.78181818       0.00000000       0.00000000      -3.41568947
2
Properties=species:S:1:pos:R:3:forces:R:3 energy=-10.977486542778708 pbc="F F F"
Re       0.00000000       0.00000000       0.00000000       0.00000000       0.00000000       3.19766545
Re       0.00000000       0.00000000       2.84141414       0.00000000       0.00000000      -3.19766545
2
Properties=species:S:1:pos:R:3:forces:R:3 energy=-10.793087653035577 pbc="F F F"
Re       0.00000000       0.00000000       0.00000000       0.00000000       0.00000000       2.99235249
Re       0.00000000       0.00000000       2.90101010       0.00000000       0.00000000      -2.99235249
2
Properties=species:S:1:pos:R:3:forces:R:3 energy=-10.620789915250413 pbc="F F F"
Re       0.00000000       0.00000000       0.00000000       0.00000000       0.00000000       2.78851724
Re       0.00000000       0.00000000       2.96060606       0.00000000       0.00000000      -2.78851724
2
Properties=species:S:1:pos:R:3:forces:R:3 energy=-10.461010805808808 pbc="F F F"
Re       0.00000000       0.00000000       0.00000000       0.00000000       0.00000000       2.57062244
Re       0.00000000       0.00000000       3.02020202       0.00000000       0.00000000      -2.57062244
2
Properties=species:S:1:pos:R:3:forces:R:3 energy=-10.314690575581974 pbc="F F F"
Re       0.00000000       0.00000000       0.00000000       0.00000000       0.00000000       2.33808517
Re       0.00000000       0.00000000       3.07979798       0.00000000       0.00000000      -2.33808517
2
Properties=species:S:1:pos:R:3:forces:R:3 energy=-10.182406373764824 pbc="F F F"
Re       0.00000000       0.00000000       0.00000000       0.00000000       0.00000000       2.10172868
Re       0.00000000       0.00000000       3.13939394       0.00000000       0.00000000      -2.10172868
2
Properties=species:S:1:pos:R:3:forces:R:3 energy=-10.06401375161805 pbc="F F F"
Re       0.00000000       0.00000000       0.00000000       0.00000000       0.00000000       1.87367690
Re       0.00000000       0.00000000       3.19898990       0.00000000       0.00000000      -1.87367690
2
Properties=species:S:1:pos:R:3:forces:R:3 energy=-9.958745598988708 pbc="F F F"
Re       0.00000000       0.00000000       0.00000000       0.00000000       0.00000000       1.66221905
Re       0.00000000       0.00000000       3.25858586       0.00000000       0.00000000      -1.66221905
2
Properties=species:S:1:pos:R:3:forces:R:3 energy=-9.865495089608396 pbc="F F F"
Re       0.00000000       0.00000000       0.00000000       0.00000000       0.00000000       1.47053123
Re       0.00000000       0.00000000       3.31818182       0.00000000       0.00000000      -1.47053123
2
Properties=species:S:1:pos:R:3:forces:R:3 energy=-9.7830967154538 pbc="F F F"
Re       0.00000000       0.00000000       0.00000000       0.00000000       0.00000000       1.29760683
Re       0.00000000       0.00000000       3.37777778       0.00000000       0.00000000      -1.29760683
2
Properties=species:S:1:pos:R:3:forces:R:3 energy=-9.710522478968274 pbc="F F F"
Re       0.00000000       0.00000000       0.00000000       0.00000000       0.00000000       1.14025593
Re       0.00000000       0.00000000       3.43737374       0.00000000       0.00000000      -1.14025593
2
Properties=species:S:1:pos:R:3:forces:R:3 energy=-9.646946235424425 pbc="F F F"
Re       0.00000000       0.00000000       0.00000000       0.00000000       0.00000000       0.99505383
Re       0.00000000       0.00000000       3.49696970       0.00000000       0.00000000      -0.99505383
2
Properties=species:S:1:pos:R:3:forces:R:3 energy=-9.591725138960605 pbc="F F F"
Re       0.00000000       0.00000000       0.00000000       0.00000000       0.00000000       0.85965681
Re       0.00000000       0.00000000       3.55656566       0.00000000       0.00000000      -0.85965681
2
Properties=species:S:1:pos:R:3:forces:R:3 energy=-9.544304404870138 pbc="F F F"
Re       0.00000000       0.00000000       0.00000000       0.00000000       0.00000000       0.73326570
Re       0.00000000       0.00000000       3.61616162       0.00000000       0.00000000      -0.73326570
2
Properties=species:S:1:pos:R:3:forces:R:3 energy=-9.504137470383471 pbc="F F F"
Re       0.00000000       0.00000000       0.00000000       0.00000000       0.00000000       0.61639571
Re       0.00000000       0.00000000       3.67575758       0.00000000       0.00000000      -0.61639571
2
Properties=species:S:1:pos:R:3:forces:R:3 energy=-9.470621854406817 pbc="F F F"
Re       0.00000000       0.00000000       0.00000000       0.00000000       0.00000000       0.51027125
Re       0.00000000       0.00000000       3.73535354       0.00000000       0.00000000      -0.51027125
2
Properties=species:S:1:pos:R:3:forces:R:3 energy=-9.44307789791885 pbc="F F F"
Re       0.00000000       0.00000000       0.00000000       0.00000000       0.00000000       0.41613370
Re       0.00000000       0.00000000       3.79494949       0.00000000       0.00000000      -0.41613370
2
Properties=species:S:1:pos:R:3:forces:R:3 energy=-9.420768911508585 pbc="F F F"
Re       0.00000000       0.00000000       0.00000000       0.00000000       0.00000000       0.33468398
Re       0.00000000       0.00000000       3.85454545       0.00000000       0.00000000      -0.33468398
2
Properties=species:S:1:pos:R:3:forces:R:3 energy=-9.402936626051842 pbc="F F F"
Re       0.00000000       0.00000000       0.00000000       0.00000000       0.00000000       0.26581919
Re       0.00000000       0.00000000       3.91414141       0.00000000       0.00000000      -0.26581919
2
Properties=species:S:1:pos:R:3:forces:R:3 energy=-9.388852558075804 pbc="F F F"
Re       0.00000000       0.00000000       0.00000000       0.00000000       0.00000000       0.20864454
Re       0.00000000       0.00000000       3.97373737       0.00000000       0.00000000      -0.20864454
2
Properties=species:S:1:pos:R:3:forces:R:3 energy=-9.377864746136154 pbc="F F F"
Re       0.00000000       0.00000000       0.00000000       0.00000000       0.00000000       0.16168793
Re       0.00000000       0.00000000       4.03333333       0.00000000       0.00000000      -0.16168793
2
Properties=species:S:1:pos:R:3:forces:R:3 energy=-9.36941327570321 pbc="F F F"
Re       0.00000000       0.00000000       0.00000000       0.00000000       0.00000000       0.12318927
Re       0.00000000       0.00000000       4.09292929       0.00000000       0.00000000      -0.12318927
2
Properties=species:S:1:pos:R:3:forces:R:3 energy=-9.363048392638285 pbc="F F F"
Re       0.00000000       0.00000000       0.00000000       0.00000000       0.00000000       0.09139089
Re       0.00000000       0.00000000       4.15252525       0.00000000       0.00000000      -0.09139089
2
Properties=species:S:1:pos:R:3:forces:R:3 energy=-9.358417839330517 pbc="F F F"
Re       0.00000000       0.00000000       0.00000000       0.00000000       0.00000000       0.06475343
Re       0.00000000       0.00000000       4.21212121       0.00000000       0.00000000      -0.06475343
2
Properties=species:S:1:pos:R:3:forces:R:3 energy=-9.355252093255883 pbc="F F F"
Re       0.00000000       0.00000000       0.00000000       0.00000000       0.00000000       0.04207101
Re       0.00000000       0.00000000       4.27171717       0.00000000       0.00000000      -0.04207101
2
Properties=species:S:1:pos:R:3:forces:R:3 energy=-9.35334204916144 pbc="F F F"
Re       0.00000000       0.00000000       0.00000000       0.00000000       0.00000000       0.02250452
Re       0.00000000       0.00000000       4.33131313       0.00000000       0.00000000      -0.02250452
2
Properties=species:S:1:pos:R:3:forces:R:3 energy=-9.352518266313563 pbc="F F F"
Re       0.00000000       0.00000000       0.00000000       0.00000000       0.00000000       0.00552954
Re       0.00000000       0.00000000       4.39090909       0.00000000       0.00000000      -0.00552954
2
Properties=species:S:1:pos:R:3:forces:R:3 energy=-9.352636603194568 pbc="F F F"
Re       0.00000000       0.00000000       0.00000000       0.00000000       0.00000000      -0.00914442
Re       0.00000000       0.00000000       4.45050505       0.00000000       0.00000000       0.00914442
2
Properties=species:S:1:pos:R:3:forces:R:3 energy=-9.353565727869773 pbc="F F F"
Re       0.00000000       0.00000000       0.00000000       0.00000000       0.00000000      -0.02167358
Re       0.00000000       0.00000000       4.51010101       0.00000000       0.00000000       0.02167358
2
Properties=species:S:1:pos:R:3:forces:R:3 energy=-9.355179561452857 pbc="F F F"
Re       0.00000000       0.00000000       0.00000000       0.00000000       0.00000000      -0.03216041
Re       0.00000000       0.00000000       4.56969697       0.00000000       0.00000000       0.03216041
2
Properties=species:S:1:pos:R:3:forces:R:3 energy=-9.357360148632296 pbc="F F F"
Re       0.00000000       0.00000000       0.00000000       0.00000000       0.00000000      -0.04069646
Re       0.00000000       0.00000000       4.62929293       0.00000000       0.00000000       0.04069646
2
Properties=species:S:1:pos:R:3:forces:R:3 energy=-9.359993624394347 pbc="F F F"
Re       0.00000000       0.00000000       0.00000000       0.00000000       0.00000000      -0.04738337
Re       0.00000000       0.00000000       4.68888889       0.00000000       0.00000000       0.04738337
2
Properties=species:S:1:pos:R:3:forces:R:3 energy=-9.362973087717306 pbc="F F F"
Re       0.00000000       0.00000000       0.00000000       0.00000000       0.00000000      -0.05232911
Re       0.00000000       0.00000000       4.74848485       0.00000000       0.00000000       0.05232911
2
Properties=species:S:1:pos:R:3:forces:R:3 energy=-9.36619851920812 pbc="F F F"
Re       0.00000000       0.00000000       0.00000000       0.00000000       0.00000000      -0.05563947
Re       0.00000000       0.00000000       4.80808081       0.00000000       0.00000000       0.05563947
2
Properties=species:S:1:pos:R:3:forces:R:3 energy=-9.369574870585936 pbc="F F F"
Re       0.00000000       0.00000000       0.00000000       0.00000000       0.00000000      -0.05743040
Re       0.00000000       0.00000000       4.86767677       0.00000000       0.00000000       0.05743040
2
Properties=species:S:1:pos:R:3:forces:R:3 energy=-9.373016649319998 pbc="F F F"
Re       0.00000000       0.00000000       0.00000000       0.00000000       0.00000000      -0.05786025
Re       0.00000000       0.00000000       4.92727273       0.00000000       0.00000000       0.05786025
2
Properties=species:S:1:pos:R:3:forces:R:3 energy=-9.376449794300058 pbc="F F F"
Re       0.00000000       0.00000000       0.00000000       0.00000000       0.00000000      -0.05719202
Re       0.00000000       0.00000000       4.98686869       0.00000000       0.00000000       0.05719202
2
Properties=species:S:1:pos:R:3:forces:R:3 energy=-9.379819216531887 pbc="F F F"
Re       0.00000000       0.00000000       0.00000000       0.00000000       0.00000000      -0.05585389
Re       0.00000000       0.00000000       5.04646465       0.00000000       0.00000000       0.05585389
2
Properties=species:S:1:pos:R:3:forces:R:3 energy=-9.383104891223415 pbc="F F F"
Re       0.00000000       0.00000000       0.00000000       0.00000000       0.00000000      -0.05442732
Re       0.00000000       0.00000000       5.10606061       0.00000000       0.00000000       0.05442732
2
Properties=species:S:1:pos:R:3:forces:R:3 energy=-9.386316167417046 pbc="F F F"
Re       0.00000000       0.00000000       0.00000000       0.00000000       0.00000000      -0.05344100
Re       0.00000000       0.00000000       5.16565657       0.00000000       0.00000000       0.05344100
2
Properties=species:S:1:pos:R:3:forces:R:3 energy=-9.389484952885283 pbc="F F F"
Re       0.00000000       0.00000000       0.00000000       0.00000000       0.00000000      -0.05293250
Re       0.00000000       0.00000000       5.22525253       0.00000000       0.00000000       0.05293250
2
Properties=species:S:1:pos:R:3:forces:R:3 energy=-9.392616091388039 pbc="F F F"
Re       0.00000000       0.00000000       0.00000000       0.00000000       0.00000000      -0.05195169
Re       0.00000000       0.00000000       5.28484848       0.00000000       0.00000000       0.05195169
2
Properties=species:S:1:pos:R:3:forces:R:3 energy=-9.395633937903991 pbc="F F F"
Re       0.00000000       0.00000000       0.00000000       0.00000000       0.00000000      -0.04886079
Re       0.00000000       0.00000000       5.34444444       0.00000000       0.00000000       0.04886079
2
Properties=species:S:1:pos:R:3:forces:R:3 energy=-9.398403303035586 pbc="F F F"
Re       0.00000000       0.00000000       0.00000000       0.00000000       0.00000000      -0.04411168
Re       0.00000000       0.00000000       5.40404040       0.00000000       0.00000000       0.04411168
2
Properties=species:S:1:pos:R:3:forces:R:3 energy=-9.400969774185048 pbc="F F F"
Re       0.00000000       0.00000000       0.00000000       0.00000000       0.00000000      -0.04312453
Re       0.00000000       0.00000000       5.46363636       0.00000000       0.00000000       0.04312453
2
Properties=species:S:1:pos:R:3:forces:R:3 energy=-9.403652199788302 pbc="F F F"
Re       0.00000000       0.00000000       0.00000000       0.00000000       0.00000000      -0.04705617
Re       0.00000000       0.00000000       5.52323232       0.00000000       0.00000000       0.04705617
2
Properties=species:S:1:pos:R:3:forces:R:3 energy=-9.406454341953852 pbc="F F F"
Re       0.00000000       0.00000000       0.00000000       0.00000000       0.00000000      -0.04531667
Re       0.00000000       0.00000000       5.58282828       0.00000000       0.00000000       0.04531667
2
Properties=species:S:1:pos:R:3:forces:R:3 energy=-9.408907423581983 pbc="F F F"
Re       0.00000000       0.00000000       0.00000000       0.00000000       0.00000000      -0.03665676
Re       0.00000000       0.00000000       5.64242424       0.00000000       0.00000000       0.03665676
2
Properties=species:S:1:pos:R:3:forces:R:3 energy=-9.410921881490482 pbc="F F F"
Re       0.00000000       0.00000000       0.00000000       0.00000000       0.00000000      -0.03276031
Re       0.00000000       0.00000000       5.70202020       0.00000000       0.00000000       0.03276031
2
Properties=species:S:1:pos:R:3:forces:R:3 energy=-9.413060110933475 pbc="F F F"
Re       0.00000000       0.00000000       0.00000000       0.00000000       0.00000000      -0.04037835
Re       0.00000000       0.00000000       5.76161616       0.00000000       0.00000000       0.04037835
2
Properties=species:S:1:pos:R:3:forces:R:3 energy=-9.415615213043957 pbc="F F F"
Re       0.00000000       0.00000000       0.00000000       0.00000000       0.00000000      -0.04201047
Re       0.00000000       0.00000000       5.82121212       0.00000000       0.00000000       0.04201047
2
Properties=species:S:1:pos:R:3:forces:R:3 energy=-9.417600193509154 pbc="F F F"
Re       0.00000000       0.00000000       0.00000000       0.00000000       0.00000000      -0.02199262
Re       0.00000000       0.00000000       5.88080808       0.00000000       0.00000000       0.02199262
2
Properties=species:S:1:pos:R:3:forces:R:3 energy=-9.418139352807327 pbc="F F F"
Re       0.00000000       0.00000000       0.00000000       0.00000000       0.00000000       0.00329518
Re       0.00000000       0.00000000       5.94040404       0.00000000       0.00000000      -0.00329518
2
Properties=species:S:1:pos:R:3:forces:R:3 energy=-9.417528838571862 pbc="F F F"
Re       0.00000000       0.00000000       0.00000000       0.00000000       0.00000000       0.01352419
Re       0.00000000       0.00000000       6.00000000       0.00000000       0.00000000      -0.01352419
