2
Properties=species:S:1:pos:R:3:forces:R:3 energy=36829.85699324633 pbc="F F F"
Rh       0.00000000       0.00000000       0.00000000       0.00000000       0.00000000 -852337.00000000
Rh       0.00000000       0.00000000       0.10000000       0.00000000       0.00000000  852337.00000000
2
Properties=species:S:1:pos:R:3:forces:R:3 energy=11652.009336996329 pbc="F F F"
Rh       0.00000000       0.00000000       0.00000000       0.00000000       0.00000000 -188135.26562500
Rh       0.00000000       0.00000000       0.15959596       0.00000000       0.00000000  188135.26562500
2
Properties=species:S:1:pos:R:3:forces:R:3 energy=5133.03961043383 pbc="F F F"
Rh       0.00000000       0.00000000       0.00000000       0.00000000       0.00000000  -59512.30859375
Rh       0.00000000       0.00000000       0.21919192       0.00000000       0.00000000   59512.30859375
2
Properties=species:S:1:pos:R:3:forces:R:3 energy=2870.09014754954 pbc="F F F"
Rh       0.00000000       0.00000000       0.00000000       0.00000000       0.00000000  -23091.35351562
Rh       0.00000000       0.00000000       0.27878788       0.00000000       0.00000000   23091.35351562
2
Properties=species:S:1:pos:R:3:forces:R:3 energy=1937.04327254954 pbc="F F F"
Rh       0.00000000       0.00000000       0.00000000       0.00000000       0.00000000  -10251.21582031
Rh       0.00000000       0.00000000       0.33838384       0.00000000       0.00000000   10251.21582031
2
Properties=species:S:1:pos:R:3:forces:R:3 energy=1496.1657090856488 pbc="F F F"
Rh       0.00000000       0.00000000       0.00000000       0.00000000       0.00000000   -5305.58886719
Rh       0.00000000       0.00000000       0.39797980       0.00000000       0.00000000    5305.58886719
2
Properties=species:S:1:pos:R:3:forces:R:3 energy=1251.1987901530074 pbc="F F F"
Rh       0.00000000       0.00000000       0.00000000       0.00000000       0.00000000   -3221.76977539
Rh       0.00000000       0.00000000       0.45757576       0.00000000       0.00000000    3221.76977539
2
Properties=species:S:1:pos:R:3:forces:R:3 energy=1087.1102892081233 pbc="F F F"
Rh       0.00000000       0.00000000       0.00000000       0.00000000       0.00000000   -2420.95288086
Rh       0.00000000       0.00000000       0.51717172       0.00000000       0.00000000    2420.95288086
2
Properties=species:S:1:pos:R:3:forces:R:3 energy=951.8370348706128 pbc="F F F"
Rh       0.00000000       0.00000000       0.00000000       0.00000000       0.00000000   -2175.13085938
Rh       0.00000000       0.00000000       0.57676768       0.00000000       0.00000000    2175.13085938
2
Properties=species:S:1:pos:R:3:forces:R:3 energy=823.9608752976787 pbc="F F F"
Rh       0.00000000       0.00000000       0.00000000       0.00000000       0.00000000   -2131.16748047
Rh       0.00000000       0.00000000       0.63636364       0.00000000       0.00000000    2131.16748047
2
Properties=species:S:1:pos:R:3:forces:R:3 energy=696.7893056255155 pbc="F F F"
Rh       0.00000000       0.00000000       0.00000000       0.00000000       0.00000000   -2142.75488281
Rh       0.00000000       0.00000000       0.69595960       0.00000000       0.00000000    2142.75488281
2
Properties=species:S:1:pos:R:3:forces:R:3 energy=568.5375358340674 pbc="F F F"
Rh       0.00000000       0.00000000       0.00000000       0.00000000       0.00000000   -2153.28271484
Rh       0.00000000       0.00000000       0.75555556       0.00000000       0.00000000    2153.28271484
2
Properties=species:S:1:pos:R:3:forces:R:3 energy=443.01019242619213 pbc="F F F"
Rh       0.00000000       0.00000000       0.00000000       0.00000000       0.00000000   -2015.48925781
Rh       0.00000000       0.00000000       0.81515152       0.00000000       0.00000000    2015.48925781
2
Properties=species:S:1:pos:R:3:forces:R:3 energy=333.4234314584343 pbc="F F F"
Rh       0.00000000       0.00000000       0.00000000       0.00000000       0.00000000   -1646.59692383
Rh       0.00000000       0.00000000       0.87474747       0.00000000       0.00000000    1646.59692383
2
Properties=species:S:1:pos:R:3:forces:R:3 energy=245.5326698389249 pbc="F F F"
Rh       0.00000000       0.00000000       0.00000000       0.00000000       0.00000000   -1311.17602539
Rh       0.00000000       0.00000000       0.93434343       0.00000000       0.00000000    1311.17602539
2
Properties=species:S:1:pos:R:3:forces:R:3 energy=177.8117388077782 pbc="F F F"
Rh       0.00000000       0.00000000       0.00000000       0.00000000       0.00000000    -962.15606689
Rh       0.00000000       0.00000000       0.99393939       0.00000000       0.00000000     962.15606689
2
Properties=species:S:1:pos:R:3:forces:R:3 energy=129.386813380451 pbc="F F F"
Rh       0.00000000       0.00000000       0.00000000       0.00000000       0.00000000    -678.44360352
Rh       0.00000000       0.00000000       1.05353535       0.00000000       0.00000000     678.44360352
2
Properties=species:S:1:pos:R:3:forces:R:3 energy=94.99158964220034 pbc="F F F"
Rh       0.00000000       0.00000000       0.00000000       0.00000000       0.00000000    -491.36471558
Rh       0.00000000       0.00000000       1.11313131       0.00000000       0.00000000     491.36471558
2
Properties=species:S:1:pos:R:3:forces:R:3 energy=69.51017719146685 pbc="F F F"
Rh       0.00000000       0.00000000       0.00000000       0.00000000       0.00000000    -370.21405029
Rh       0.00000000       0.00000000       1.17272727       0.00000000       0.00000000     370.21405029
2
Properties=species:S:1:pos:R:3:forces:R:3 energy=50.403273354378264 pbc="F F F"
Rh       0.00000000       0.00000000       0.00000000       0.00000000       0.00000000    -273.72335815
Rh       0.00000000       0.00000000       1.23232323       0.00000000       0.00000000     273.72335815
2
Properties=species:S:1:pos:R:3:forces:R:3 energy=36.49800765333935 pbc="F F F"
Rh       0.00000000       0.00000000       0.00000000       0.00000000       0.00000000    -196.97387695
Rh       0.00000000       0.00000000       1.29191919       0.00000000       0.00000000     196.97387695
2
Properties=species:S:1:pos:R:3:forces:R:3 energy=26.436452949696097 pbc="F F F"
Rh       0.00000000       0.00000000       0.00000000       0.00000000       0.00000000    -144.26565552
Rh       0.00000000       0.00000000       1.35151515       0.00000000       0.00000000     144.26565552
2
Properties=species:S:1:pos:R:3:forces:R:3 energy=18.966091777672037 pbc="F F F"
Rh       0.00000000       0.00000000       0.00000000       0.00000000       0.00000000    -108.64839935
Rh       0.00000000       0.00000000       1.41111111       0.00000000       0.00000000     108.64839935
2
Properties=species:S:1:pos:R:3:forces:R:3 energy=13.268627004523504 pbc="F F F"
Rh       0.00000000       0.00000000       0.00000000       0.00000000       0.00000000     -84.05918884
Rh       0.00000000       0.00000000       1.47070707       0.00000000       0.00000000      84.05918884
2
Properties=species:S:1:pos:R:3:forces:R:3 energy=8.80345621866221 pbc="F F F"
Rh       0.00000000       0.00000000       0.00000000       0.00000000       0.00000000     -66.70598602
Rh       0.00000000       0.00000000       1.53030303       0.00000000       0.00000000      66.70598602
2
Properties=species:S:1:pos:R:3:forces:R:3 energy=5.236594439874272 pbc="F F F"
Rh       0.00000000       0.00000000       0.00000000       0.00000000       0.00000000     -53.49326324
Rh       0.00000000       0.00000000       1.58989899       0.00000000       0.00000000      53.49326324
2
Properties=species:S:1:pos:R:3:forces:R:3 energy=2.3808650231096573 pbc="F F F"
Rh       0.00000000       0.00000000       0.00000000       0.00000000       0.00000000     -42.66974640
Rh       0.00000000       0.00000000       1.64949495       0.00000000       0.00000000      42.66974640
2
Properties=species:S:1:pos:R:3:forces:R:3 energy=0.11508125012970655 pbc="F F F"
Rh       0.00000000       0.00000000       0.00000000       0.00000000       0.00000000     -33.64674759
Rh       0.00000000       0.00000000       1.70909091       0.00000000       0.00000000      33.64674759
2
Properties=species:S:1:pos:R:3:forces:R:3 energy=-1.6603410934018876 pbc="F F F"
Rh       0.00000000       0.00000000       0.00000000       0.00000000       0.00000000     -26.17045593
Rh       0.00000000       0.00000000       1.76868687       0.00000000       0.00000000      26.17045593
2
Properties=species:S:1:pos:R:3:forces:R:3 energy=-3.0294418119729785 pbc="F F F"
Rh       0.00000000       0.00000000       0.00000000       0.00000000       0.00000000     -19.96649551
Rh       0.00000000       0.00000000       1.82828283       0.00000000       0.00000000      19.96649551
2
Properties=species:S:1:pos:R:3:forces:R:3 energy=-4.06104198233792 pbc="F F F"
Rh       0.00000000       0.00000000       0.00000000       0.00000000       0.00000000     -14.81569386
Rh       0.00000000       0.00000000       1.88787879       0.00000000       0.00000000      14.81569386
2
Properties=species:S:1:pos:R:3:forces:R:3 energy=-4.813602180233672 pbc="F F F"
Rh       0.00000000       0.00000000       0.00000000       0.00000000       0.00000000     -10.58436394
Rh       0.00000000       0.00000000       1.94747475       0.00000000       0.00000000      10.58436394
2
Properties=species:S:1:pos:R:3:forces:R:3 energy=-5.338848346803103 pbc="F F F"
Rh       0.00000000       0.00000000       0.00000000       0.00000000       0.00000000      -7.16945171
Rh       0.00000000       0.00000000       2.00707071       0.00000000       0.00000000       7.16945171
2
Properties=species:S:1:pos:R:3:forces:R:3 energy=-5.68207279289936 pbc="F F F"
Rh       0.00000000       0.00000000       0.00000000       0.00000000       0.00000000      -4.45554876
Rh       0.00000000       0.00000000       2.06666667       0.00000000       0.00000000       4.45554876
2
Properties=species:S:1:pos:R:3:forces:R:3 energy=-5.881447919061887 pbc="F F F"
Rh       0.00000000       0.00000000       0.00000000       0.00000000       0.00000000      -2.32304811
Rh       0.00000000       0.00000000       2.12626263       0.00000000       0.00000000       2.32304811
2
Properties=species:S:1:pos:R:3:forces:R:3 energy=-5.968479742371439 pbc="F F F"
Rh       0.00000000       0.00000000       0.00000000       0.00000000       0.00000000      -0.67066664
Rh       0.00000000       0.00000000       2.18585859       0.00000000       0.00000000       0.67066664
2
Properties=species:S:1:pos:R:3:forces:R:3 energy=-5.969380307196194 pbc="F F F"
Rh       0.00000000       0.00000000       0.00000000       0.00000000       0.00000000       0.57865500
Rh       0.00000000       0.00000000       2.24545455       0.00000000       0.00000000      -0.57865500
2
Properties=species:S:1:pos:R:3:forces:R:3 energy=-5.906310479618629 pbc="F F F"
Rh       0.00000000       0.00000000       0.00000000       0.00000000       0.00000000       1.48538053
Rh       0.00000000       0.00000000       2.30505051       0.00000000       0.00000000      -1.48538053
2
Properties=species:S:1:pos:R:3:forces:R:3 energy=-5.798107741093191 pbc="F F F"
Rh       0.00000000       0.00000000       0.00000000       0.00000000       0.00000000       2.10139918
Rh       0.00000000       0.00000000       2.36464646       0.00000000       0.00000000      -2.10139918
2
Properties=species:S:1:pos:R:3:forces:R:3 energy=-5.660676180704215 pbc="F F F"
Rh       0.00000000       0.00000000       0.00000000       0.00000000       0.00000000       2.47393441
Rh       0.00000000       0.00000000       2.42424242       0.00000000       0.00000000      -2.47393441
2
Properties=species:S:1:pos:R:3:forces:R:3 energy=-5.507180907521836 pbc="F F F"
Rh       0.00000000       0.00000000       0.00000000       0.00000000       0.00000000       2.64787221
Rh       0.00000000       0.00000000       2.48383838       0.00000000       0.00000000      -2.64787221
2
Properties=species:S:1:pos:R:3:forces:R:3 energy=-5.348114068902336 pbc="F F F"
Rh       0.00000000       0.00000000       0.00000000       0.00000000       0.00000000       2.66876340
Rh       0.00000000       0.00000000       2.54343434       0.00000000       0.00000000      -2.66876340
2
Properties=species:S:1:pos:R:3:forces:R:3 energy=-5.1911465466925435 pbc="F F F"
Rh       0.00000000       0.00000000       0.00000000       0.00000000       0.00000000       2.58609581
Rh       0.00000000       0.00000000       2.60303030       0.00000000       0.00000000      -2.58609581
2
Properties=species:S:1:pos:R:3:forces:R:3 energy=-5.040829421336945 pbc="F F F"
Rh       0.00000000       0.00000000       0.00000000       0.00000000       0.00000000       2.45520306
Rh       0.00000000       0.00000000       2.66262626       0.00000000       0.00000000      -2.45520306
2
Properties=species:S:1:pos:R:3:forces:R:3 energy=-4.898401840654903 pbc="F F F"
Rh       0.00000000       0.00000000       0.00000000       0.00000000       0.00000000       2.32844448
Rh       0.00000000       0.00000000       2.72222222       0.00000000       0.00000000      -2.32844448
2
Properties=species:S:1:pos:R:3:forces:R:3 energy=-4.762780550356676 pbc="F F F"
Rh       0.00000000       0.00000000       0.00000000       0.00000000       0.00000000       2.22618484
Rh       0.00000000       0.00000000       2.78181818       0.00000000       0.00000000      -2.22618484
2
Properties=species:S:1:pos:R:3:forces:R:3 energy=-4.632921790570615 pbc="F F F"
Rh       0.00000000       0.00000000       0.00000000       0.00000000       0.00000000       2.13110375
Rh       0.00000000       0.00000000       2.84141414       0.00000000       0.00000000      -2.13110375
2
Properties=species:S:1:pos:R:3:forces:R:3 energy=-4.508952316480819 pbc="F F F"
Rh       0.00000000       0.00000000       0.00000000       0.00000000       0.00000000       2.02757049
Rh       0.00000000       0.00000000       2.90101010       0.00000000       0.00000000      -2.02757049
2
Properties=species:S:1:pos:R:3:forces:R:3 energy=-4.391404484426203 pbc="F F F"
Rh       0.00000000       0.00000000       0.00000000       0.00000000       0.00000000       1.91646731
Rh       0.00000000       0.00000000       2.96060606       0.00000000       0.00000000      -1.91646731
2
Properties=species:S:1:pos:R:3:forces:R:3 energy=-4.280571905476133 pbc="F F F"
Rh       0.00000000       0.00000000       0.00000000       0.00000000       0.00000000       1.80287647
Rh       0.00000000       0.00000000       3.02020202       0.00000000       0.00000000      -1.80287647
2
Properties=species:S:1:pos:R:3:forces:R:3 energy=-4.17649695090746 pbc="F F F"
Rh       0.00000000       0.00000000       0.00000000       0.00000000       0.00000000       1.69016397
Rh       0.00000000       0.00000000       3.07979798       0.00000000       0.00000000      -1.69016397
2
Properties=species:S:1:pos:R:3:forces:R:3 energy=-4.079059156758352 pbc="F F F"
Rh       0.00000000       0.00000000       0.00000000       0.00000000       0.00000000       1.58037913
Rh       0.00000000       0.00000000       3.13939394       0.00000000       0.00000000      -1.58037913
2
Properties=species:S:1:pos:R:3:forces:R:3 energy=-3.9880426899645203 pbc="F F F"
Rh       0.00000000       0.00000000       0.00000000       0.00000000       0.00000000       1.47488606
Rh       0.00000000       0.00000000       3.19898990       0.00000000       0.00000000      -1.47488606
2
Properties=species:S:1:pos:R:3:forces:R:3 energy=-3.9031654963553786 pbc="F F F"
Rh       0.00000000       0.00000000       0.00000000       0.00000000       0.00000000       1.37441671
Rh       0.00000000       0.00000000       3.25858586       0.00000000       0.00000000      -1.37441671
2
Properties=species:S:1:pos:R:3:forces:R:3 energy=-3.82412020401701 pbc="F F F"
Rh       0.00000000       0.00000000       0.00000000       0.00000000       0.00000000       1.27913332
Rh       0.00000000       0.00000000       3.31818182       0.00000000       0.00000000      -1.27913332
2
Properties=species:S:1:pos:R:3:forces:R:3 energy=-3.750602883593587 pbc="F F F"
Rh       0.00000000       0.00000000       0.00000000       0.00000000       0.00000000       1.18889558
Rh       0.00000000       0.00000000       3.37777778       0.00000000       0.00000000      -1.18889558
2
Properties=species:S:1:pos:R:3:forces:R:3 energy=-3.682317030719358 pbc="F F F"
Rh       0.00000000       0.00000000       0.00000000       0.00000000       0.00000000       1.10352528
Rh       0.00000000       0.00000000       3.43737374       0.00000000       0.00000000      -1.10352528
2
Properties=species:S:1:pos:R:3:forces:R:3 energy=-3.618974853146211 pbc="F F F"
Rh       0.00000000       0.00000000       0.00000000       0.00000000       0.00000000       1.02299523
Rh       0.00000000       0.00000000       3.49696970       0.00000000       0.00000000      -1.02299523
2
Properties=species:S:1:pos:R:3:forces:R:3 energy=-3.560286137098444 pbc="F F F"
Rh       0.00000000       0.00000000       0.00000000       0.00000000       0.00000000       0.94737631
Rh       0.00000000       0.00000000       3.55656566       0.00000000       0.00000000      -0.94737631
2
Properties=species:S:1:pos:R:3:forces:R:3 energy=-3.505956441294443 pbc="F F F"
Rh       0.00000000       0.00000000       0.00000000       0.00000000       0.00000000       0.87674284
Rh       0.00000000       0.00000000       3.61616162       0.00000000       0.00000000      -0.87674284
2
Properties=species:S:1:pos:R:3:forces:R:3 energy=-3.455687561112551 pbc="F F F"
Rh       0.00000000       0.00000000       0.00000000       0.00000000       0.00000000       0.81105500
Rh       0.00000000       0.00000000       3.67575758       0.00000000       0.00000000      -0.81105500
2
Properties=species:S:1:pos:R:3:forces:R:3 energy=-3.4091906756270425 pbc="F F F"
Rh       0.00000000       0.00000000       0.00000000       0.00000000       0.00000000       0.75011933
Rh       0.00000000       0.00000000       3.73535354       0.00000000       0.00000000      -0.75011933
2
Properties=species:S:1:pos:R:3:forces:R:3 energy=-3.366191052623266 pbc="F F F"
Rh       0.00000000       0.00000000       0.00000000       0.00000000       0.00000000       0.69362497
Rh       0.00000000       0.00000000       3.79494949       0.00000000       0.00000000      -0.69362497
2
Properties=species:S:1:pos:R:3:forces:R:3 energy=-3.3264350894493218 pbc="F F F"
Rh       0.00000000       0.00000000       0.00000000       0.00000000       0.00000000       0.64119017
Rh       0.00000000       0.00000000       3.85454545       0.00000000       0.00000000      -0.64119017
2
Properties=species:S:1:pos:R:3:forces:R:3 energy=-3.2896939019660363 pbc="F F F"
Rh       0.00000000       0.00000000       0.00000000       0.00000000       0.00000000       0.59241152
Rh       0.00000000       0.00000000       3.91414141       0.00000000       0.00000000      -0.59241152
2
Properties=species:S:1:pos:R:3:forces:R:3 energy=-3.255759961344279 pbc="F F F"
Rh       0.00000000       0.00000000       0.00000000       0.00000000       0.00000000       0.54689074
Rh       0.00000000       0.00000000       3.97373737       0.00000000       0.00000000      -0.54689074
2
Properties=species:S:1:pos:R:3:forces:R:3 energy=-3.2244515606615223 pbc="F F F"
Rh       0.00000000       0.00000000       0.00000000       0.00000000       0.00000000       0.50425440
Rh       0.00000000       0.00000000       4.03333333       0.00000000       0.00000000      -0.50425440
2
Properties=species:S:1:pos:R:3:forces:R:3 energy=-3.195606440956648 pbc="F F F"
Rh       0.00000000       0.00000000       0.00000000       0.00000000       0.00000000       0.46415338
Rh       0.00000000       0.00000000       4.09292929       0.00000000       0.00000000      -0.46415338
2
Properties=species:S:1:pos:R:3:forces:R:3 energy=-3.1690836455575213 pbc="F F F"
Rh       0.00000000       0.00000000       0.00000000       0.00000000       0.00000000       0.42628321
Rh       0.00000000       0.00000000       4.15252525       0.00000000       0.00000000      -0.42628321
2
Properties=species:S:1:pos:R:3:forces:R:3 energy=-3.1447577980350943 pbc="F F F"
Rh       0.00000000       0.00000000       0.00000000       0.00000000       0.00000000       0.39039847
Rh       0.00000000       0.00000000       4.21212121       0.00000000       0.00000000      -0.39039847
2
Properties=species:S:1:pos:R:3:forces:R:3 energy=-3.1225155109175238 pbc="F F F"
Rh       0.00000000       0.00000000       0.00000000       0.00000000       0.00000000       0.35632163
Rh       0.00000000       0.00000000       4.27171717       0.00000000       0.00000000      -0.35632163
2
Properties=species:S:1:pos:R:3:forces:R:3 energy=-3.1022531322170095 pbc="F F F"
Rh       0.00000000       0.00000000       0.00000000       0.00000000       0.00000000       0.32395729
Rh       0.00000000       0.00000000       4.33131313       0.00000000       0.00000000      -0.32395729
2
Properties=species:S:1:pos:R:3:forces:R:3 energy=-3.0838690946924237 pbc="F F F"
Rh       0.00000000       0.00000000       0.00000000       0.00000000       0.00000000       0.29327857
Rh       0.00000000       0.00000000       4.39090909       0.00000000       0.00000000      -0.29327857
2
Properties=species:S:1:pos:R:3:forces:R:3 energy=-3.0672623111076183 pbc="F F F"
Rh       0.00000000       0.00000000       0.00000000       0.00000000       0.00000000       0.26432058
Rh       0.00000000       0.00000000       4.45050505       0.00000000       0.00000000      -0.26432058
2
Properties=species:S:1:pos:R:3:forces:R:3 energy=-3.0523284142190548 pbc="F F F"
Rh       0.00000000       0.00000000       0.00000000       0.00000000       0.00000000       0.23716137
Rh       0.00000000       0.00000000       4.51010101       0.00000000       0.00000000      -0.23716137
2
Properties=species:S:1:pos:R:3:forces:R:3 energy=-3.03895707164691 pbc="F F F"
Rh       0.00000000       0.00000000       0.00000000       0.00000000       0.00000000       0.21188474
Rh       0.00000000       0.00000000       4.56969697       0.00000000       0.00000000      -0.21188474
2
Properties=species:S:1:pos:R:3:forces:R:3 energy=-3.0270341949987287 pbc="F F F"
Rh       0.00000000       0.00000000       0.00000000       0.00000000       0.00000000       0.18856739
Rh       0.00000000       0.00000000       4.62929293       0.00000000       0.00000000      -0.18856739
2
Properties=species:S:1:pos:R:3:forces:R:3 energy=-3.0164420112253474 pbc="F F F"
Rh       0.00000000       0.00000000       0.00000000       0.00000000       0.00000000       0.16724272
Rh       0.00000000       0.00000000       4.68888889       0.00000000       0.00000000      -0.16724272
2
Properties=species:S:1:pos:R:3:forces:R:3 energy=-3.007061325597528 pbc="F F F"
Rh       0.00000000       0.00000000       0.00000000       0.00000000       0.00000000       0.14788026
Rh       0.00000000       0.00000000       4.74848485       0.00000000       0.00000000      -0.14788026
2
Properties=species:S:1:pos:R:3:forces:R:3 energy=-2.9987788501573815 pbc="F F F"
Rh       0.00000000       0.00000000       0.00000000       0.00000000       0.00000000       0.13038665
Rh       0.00000000       0.00000000       4.80808081       0.00000000       0.00000000      -0.13038665
2
Properties=species:S:1:pos:R:3:forces:R:3 energy=-2.991486195359161 pbc="F F F"
Rh       0.00000000       0.00000000       0.00000000       0.00000000       0.00000000       0.11460853
Rh       0.00000000       0.00000000       4.86767677       0.00000000       0.00000000      -0.11460853
2
Properties=species:S:1:pos:R:3:forces:R:3 energy=-2.985087322065748 pbc="F F F"
Rh       0.00000000       0.00000000       0.00000000       0.00000000       0.00000000       0.10037640
Rh       0.00000000       0.00000000       4.92727273       0.00000000       0.00000000      -0.10037640
2
Properties=species:S:1:pos:R:3:forces:R:3 energy=-2.9794943070350315 pbc="F F F"
Rh       0.00000000       0.00000000       0.00000000       0.00000000       0.00000000       0.08754875
Rh       0.00000000       0.00000000       4.98686869       0.00000000       0.00000000      -0.08754875
2
Properties=species:S:1:pos:R:3:forces:R:3 energy=-2.9746259884361628 pbc="F F F"
Rh       0.00000000       0.00000000       0.00000000       0.00000000       0.00000000       0.07606398
Rh       0.00000000       0.00000000       5.04646465       0.00000000       0.00000000      -0.07606398
2
Properties=species:S:1:pos:R:3:forces:R:3 energy=-2.9704012141016096 pbc="F F F"
Rh       0.00000000       0.00000000       0.00000000       0.00000000       0.00000000       0.06595077
Rh       0.00000000       0.00000000       5.10606061       0.00000000       0.00000000      -0.06595077
2
Properties=species:S:1:pos:R:3:forces:R:3 energy=-2.9667361927482903 pbc="F F F"
Rh       0.00000000       0.00000000       0.00000000       0.00000000       0.00000000       0.05727436
Rh       0.00000000       0.00000000       5.16565657       0.00000000       0.00000000      -0.05727436
2
Properties=species:S:1:pos:R:3:forces:R:3 energy=-2.9635449771503772 pbc="F F F"
Rh       0.00000000       0.00000000       0.00000000       0.00000000       0.00000000       0.05007041
Rh       0.00000000       0.00000000       5.22525253       0.00000000       0.00000000      -0.05007041
2
Properties=species:S:1:pos:R:3:forces:R:3 energy=-2.960739753243029 pbc="F F F"
Rh       0.00000000       0.00000000       0.00000000       0.00000000       0.00000000       0.04431117
Rh       0.00000000       0.00000000       5.28484848       0.00000000       0.00000000      -0.04431117
2
Properties=species:S:1:pos:R:3:forces:R:3 energy=-2.958235992632372 pbc="F F F"
Rh       0.00000000       0.00000000       0.00000000       0.00000000       0.00000000       0.03990987
Rh       0.00000000       0.00000000       5.34444444       0.00000000       0.00000000      -0.03990987
2
Properties=species:S:1:pos:R:3:forces:R:3 energy=-2.9559682198999413 pbc="F F F"
Rh       0.00000000       0.00000000       0.00000000       0.00000000       0.00000000       0.03616612
Rh       0.00000000       0.00000000       5.40404040       0.00000000       0.00000000      -0.03616612
2
Properties=species:S:1:pos:R:3:forces:R:3 energy=-2.953957120681095 pbc="F F F"
Rh       0.00000000       0.00000000       0.00000000       0.00000000       0.00000000       0.03083174
Rh       0.00000000       0.00000000       5.46363636       0.00000000       0.00000000      -0.03083174
2
Properties=species:S:1:pos:R:3:forces:R:3 energy=-2.9523482114082493 pbc="F F F"
Rh       0.00000000       0.00000000       0.00000000       0.00000000       0.00000000       0.02298131
Rh       0.00000000       0.00000000       5.52323232       0.00000000       0.00000000      -0.02298131
2
Properties=species:S:1:pos:R:3:forces:R:3 energy=-2.951189260896129 pbc="F F F"
Rh       0.00000000       0.00000000       0.00000000       0.00000000       0.00000000       0.01644200
Rh       0.00000000       0.00000000       5.58282828       0.00000000       0.00000000      -0.01644200
2
Properties=species:S:1:pos:R:3:forces:R:3 energy=-2.9503396881138872 pbc="F F F"
Rh       0.00000000       0.00000000       0.00000000       0.00000000       0.00000000       0.01216422
Rh       0.00000000       0.00000000       5.64242424       0.00000000       0.00000000      -0.01216422
2
Properties=species:S:1:pos:R:3:forces:R:3 energy=-2.949776346268132 pbc="F F F"
Rh       0.00000000       0.00000000       0.00000000       0.00000000       0.00000000       0.00609553
Rh       0.00000000       0.00000000       5.70202020       0.00000000       0.00000000      -0.00609553
2
Properties=species:S:1:pos:R:3:forces:R:3 energy=-2.949690083911373 pbc="F F F"
Rh       0.00000000       0.00000000       0.00000000       0.00000000       0.00000000      -0.00345653
Rh       0.00000000       0.00000000       5.76161616       0.00000000       0.00000000       0.00345653
2
Properties=species:S:1:pos:R:3:forces:R:3 energy=-2.9500950117369187 pbc="F F F"
Rh       0.00000000       0.00000000       0.00000000       0.00000000       0.00000000      -0.00831135
Rh       0.00000000       0.00000000       5.82121212       0.00000000       0.00000000       0.00831135
2
Properties=species:S:1:pos:R:3:forces:R:3 energy=-2.950436615294744 pbc="F F F"
Rh       0.00000000       0.00000000       0.00000000       0.00000000       0.00000000      -0.00173017
Rh       0.00000000       0.00000000       5.88080808       0.00000000       0.00000000       0.00173017
2
Properties=species:S:1:pos:R:3:forces:R:3 energy=-2.9502368982435128 pbc="F F F"
Rh       0.00000000       0.00000000       0.00000000       0.00000000       0.00000000       0.00827956
Rh       0.00000000       0.00000000       5.94040404       0.00000000       0.00000000      -0.00827956
2
Properties=species:S:1:pos:R:3:forces:R:3 energy=-2.949580825944038 pbc="F F F"
Rh       0.00000000       0.00000000       0.00000000       0.00000000       0.00000000       0.01216704
Rh       0.00000000       0.00000000       6.00000000       0.00000000       0.00000000      -0.01216704
