2
Properties=species:S:1:pos:R:3:forces:R:3 energy=7052.446369861008 pbc="F F F"
S        0.00000000       0.00000000       0.00000000       0.00000000       0.00000000 -141094.78125000
S        0.00000000       0.00000000       0.10000000       0.00000000       0.00000000  141094.78125000
2
Properties=species:S:1:pos:R:3:forces:R:3 energy=2646.295246814133 pbc="F F F"
S        0.00000000       0.00000000       0.00000000       0.00000000       0.00000000  -35712.21484375
S        0.00000000       0.00000000       0.15959596       0.00000000       0.00000000   35712.21484375
2
Properties=species:S:1:pos:R:3:forces:R:3 energy=1353.4584548219455 pbc="F F F"
S        0.00000000       0.00000000       0.00000000       0.00000000       0.00000000  -12513.00781250
S        0.00000000       0.00000000       0.21919192       0.00000000       0.00000000   12513.00781250
2
Properties=species:S:1:pos:R:3:forces:R:3 energy=858.005940173508 pbc="F F F"
S        0.00000000       0.00000000       0.00000000       0.00000000       0.00000000   -5352.22900391
S        0.00000000       0.00000000       0.27878788       0.00000000       0.00000000    5352.22900391
2
Properties=species:S:1:pos:R:3:forces:R:3 energy=630.3406569767186 pbc="F F F"
S        0.00000000       0.00000000       0.00000000       0.00000000       0.00000000   -2692.18750000
S        0.00000000       0.00000000       0.33838384       0.00000000       0.00000000    2692.18750000
2
Properties=species:S:1:pos:R:3:forces:R:3 energy=506.534565683964 pbc="F F F"
S        0.00000000       0.00000000       0.00000000       0.00000000       0.00000000   -1622.89904785
S        0.00000000       0.00000000       0.39797980       0.00000000       0.00000000    1622.89904785
2
Properties=species:S:1:pos:R:3:forces:R:3 energy=424.4925124898181 pbc="F F F"
S        0.00000000       0.00000000       0.00000000       0.00000000       0.00000000   -1193.15673828
S        0.00000000       0.00000000       0.45757576       0.00000000       0.00000000    1193.15673828
2
Properties=species:S:1:pos:R:3:forces:R:3 energy=359.8907669413702 pbc="F F F"
S        0.00000000       0.00000000       0.00000000       0.00000000       0.00000000    -992.00506592
S        0.00000000       0.00000000       0.51717172       0.00000000       0.00000000     992.00506592
2
Properties=species:S:1:pos:R:3:forces:R:3 energy=306.15657514820924 pbc="F F F"
S        0.00000000       0.00000000       0.00000000       0.00000000       0.00000000    -844.89483643
S        0.00000000       0.00000000       0.57676768       0.00000000       0.00000000     844.89483643
2
Properties=species:S:1:pos:R:3:forces:R:3 energy=252.75684082220133 pbc="F F F"
S        0.00000000       0.00000000       0.00000000       0.00000000       0.00000000    -892.78100586
S        0.00000000       0.00000000       0.63636364       0.00000000       0.00000000     892.78100586
2
Properties=species:S:1:pos:R:3:forces:R:3 energy=205.55414334072776 pbc="F F F"
S        0.00000000       0.00000000       0.00000000       0.00000000       0.00000000    -696.58251953
S        0.00000000       0.00000000       0.69595960       0.00000000       0.00000000     696.58251953
2
Properties=species:S:1:pos:R:3:forces:R:3 energy=169.01473030673185 pbc="F F F"
S        0.00000000       0.00000000       0.00000000       0.00000000       0.00000000    -533.05529785
S        0.00000000       0.00000000       0.75555556       0.00000000       0.00000000     533.05529785
2
Properties=species:S:1:pos:R:3:forces:R:3 energy=140.90448618298407 pbc="F F F"
S        0.00000000       0.00000000       0.00000000       0.00000000       0.00000000    -423.28405762
S        0.00000000       0.00000000       0.81515152       0.00000000       0.00000000     423.28405762
2
Properties=species:S:1:pos:R:3:forces:R:3 energy=117.380385831657 pbc="F F F"
S        0.00000000       0.00000000       0.00000000       0.00000000       0.00000000    -372.63174438
S        0.00000000       0.00000000       0.87474747       0.00000000       0.00000000     372.63174438
2
Properties=species:S:1:pos:R:3:forces:R:3 energy=95.63280562952355 pbc="F F F"
S        0.00000000       0.00000000       0.00000000       0.00000000       0.00000000    -363.08697510
S        0.00000000       0.00000000       0.93434343       0.00000000       0.00000000     363.08697510
2
Properties=species:S:1:pos:R:3:forces:R:3 energy=74.28657785028129 pbc="F F F"
S        0.00000000       0.00000000       0.00000000       0.00000000       0.00000000    -345.86114502
S        0.00000000       0.00000000       0.99393939       0.00000000       0.00000000     345.86114502
2
Properties=species:S:1:pos:R:3:forces:R:3 energy=55.1656848657483 pbc="F F F"
S        0.00000000       0.00000000       0.00000000       0.00000000       0.00000000    -292.72817993
S        0.00000000       0.00000000       1.05353535       0.00000000       0.00000000     292.72817993
2
Properties=species:S:1:pos:R:3:forces:R:3 energy=39.44995931815433 pbc="F F F"
S        0.00000000       0.00000000       0.00000000       0.00000000       0.00000000    -235.25210571
S        0.00000000       0.00000000       1.11313131       0.00000000       0.00000000     235.25210571
2
Properties=species:S:1:pos:R:3:forces:R:3 energy=27.03932664534143 pbc="F F F"
S        0.00000000       0.00000000       0.00000000       0.00000000       0.00000000    -182.27293396
S        0.00000000       0.00000000       1.17272727       0.00000000       0.00000000     182.27293396
2
Properties=species:S:1:pos:R:3:forces:R:3 energy=17.57349465970734 pbc="F F F"
S        0.00000000       0.00000000       0.00000000       0.00000000       0.00000000    -136.77210999
S        0.00000000       0.00000000       1.23232323       0.00000000       0.00000000     136.77210999
2
Properties=species:S:1:pos:R:3:forces:R:3 energy=10.565150378955027 pbc="F F F"
S        0.00000000       0.00000000       0.00000000       0.00000000       0.00000000     -99.94725800
S        0.00000000       0.00000000       1.29191919       0.00000000       0.00000000      99.94725800
2
Properties=species:S:1:pos:R:3:forces:R:3 energy=5.474017617804499 pbc="F F F"
S        0.00000000       0.00000000       0.00000000       0.00000000       0.00000000     -72.41921997
S        0.00000000       0.00000000       1.35151515       0.00000000       0.00000000      72.41921997
2
Properties=species:S:1:pos:R:3:forces:R:3 energy=1.7764882164064864 pbc="F F F"
S        0.00000000       0.00000000       0.00000000       0.00000000       0.00000000     -52.75312042
S        0.00000000       0.00000000       1.41111111       0.00000000       0.00000000      52.75312042
2
Properties=species:S:1:pos:R:3:forces:R:3 energy=-0.9191442028787623 pbc="F F F"
S        0.00000000       0.00000000       0.00000000       0.00000000       0.00000000     -38.43225861
S        0.00000000       0.00000000       1.47070707       0.00000000       0.00000000      38.43225861
2
Properties=species:S:1:pos:R:3:forces:R:3 energy=-2.8765024678441007 pbc="F F F"
S        0.00000000       0.00000000       0.00000000       0.00000000       0.00000000     -27.76510429
S        0.00000000       0.00000000       1.53030303       0.00000000       0.00000000      27.76510429
2
Properties=species:S:1:pos:R:3:forces:R:3 energy=-4.28024414634972 pbc="F F F"
S        0.00000000       0.00000000       0.00000000       0.00000000       0.00000000     -19.71140289
S        0.00000000       0.00000000       1.58989899       0.00000000       0.00000000      19.71140289
2
Properties=species:S:1:pos:R:3:forces:R:3 energy=-5.263314075874064 pbc="F F F"
S        0.00000000       0.00000000       0.00000000       0.00000000       0.00000000     -13.54575539
S        0.00000000       0.00000000       1.64949495       0.00000000       0.00000000      13.54575539
2
Properties=species:S:1:pos:R:3:forces:R:3 energy=-5.9219749206398165 pbc="F F F"
S        0.00000000       0.00000000       0.00000000       0.00000000       0.00000000      -8.75462437
S        0.00000000       0.00000000       1.70909091       0.00000000       0.00000000       8.75462437
2
Properties=species:S:1:pos:R:3:forces:R:3 energy=-6.327318424590174 pbc="F F F"
S        0.00000000       0.00000000       0.00000000       0.00000000       0.00000000      -5.00112867
S        0.00000000       0.00000000       1.76868687       0.00000000       0.00000000       5.00112867
2
Properties=species:S:1:pos:R:3:forces:R:3 energy=-6.5345780505920175 pbc="F F F"
S        0.00000000       0.00000000       0.00000000       0.00000000       0.00000000      -2.08110642
S        0.00000000       0.00000000       1.82828283       0.00000000       0.00000000       2.08110642
2
Properties=species:S:1:pos:R:3:forces:R:3 energy=-6.589349352842896 pbc="F F F"
S        0.00000000       0.00000000       0.00000000       0.00000000       0.00000000       0.13445343
S        0.00000000       0.00000000       1.88787879       0.00000000       0.00000000      -0.13445343
2
Properties=species:S:1:pos:R:3:forces:R:3 energy=-6.530451489328691 pbc="F F F"
S        0.00000000       0.00000000       0.00000000       0.00000000       0.00000000       1.75136876
S        0.00000000       0.00000000       1.94747475       0.00000000       0.00000000      -1.75136876
2
Properties=species:S:1:pos:R:3:forces:R:3 energy=-6.390263328663705 pbc="F F F"
S        0.00000000       0.00000000       0.00000000       0.00000000       0.00000000       2.88221359
S        0.00000000       0.00000000       2.00707071       0.00000000       0.00000000      -2.88221359
2
Properties=species:S:1:pos:R:3:forces:R:3 energy=-6.1941627846272835 pbc="F F F"
S        0.00000000       0.00000000       0.00000000       0.00000000       0.00000000       3.64788914
S        0.00000000       0.00000000       2.06666667       0.00000000       0.00000000      -3.64788914
2
Properties=species:S:1:pos:R:3:forces:R:3 energy=-5.960446691682121 pbc="F F F"
S        0.00000000       0.00000000       0.00000000       0.00000000       0.00000000       4.16211510
S        0.00000000       0.00000000       2.12626263       0.00000000       0.00000000      -4.16211510
2
Properties=species:S:1:pos:R:3:forces:R:3 energy=-5.701183876153755 pbc="F F F"
S        0.00000000       0.00000000       0.00000000       0.00000000       0.00000000       4.51878214
S        0.00000000       0.00000000       2.18585859       0.00000000       0.00000000      -4.51878214
2
Properties=species:S:1:pos:R:3:forces:R:3 energy=-5.423593256799464 pbc="F F F"
S        0.00000000       0.00000000       0.00000000       0.00000000       0.00000000       4.78653240
S        0.00000000       0.00000000       2.24545455       0.00000000       0.00000000      -4.78653240
2
Properties=species:S:1:pos:R:3:forces:R:3 energy=-5.131642689303184 pbc="F F F"
S        0.00000000       0.00000000       0.00000000       0.00000000       0.00000000       5.00376034
S        0.00000000       0.00000000       2.30505051       0.00000000       0.00000000      -5.00376034
2
Properties=species:S:1:pos:R:3:forces:R:3 energy=-4.828215907559536 pbc="F F F"
S        0.00000000       0.00000000       0.00000000       0.00000000       0.00000000       5.16755247
S        0.00000000       0.00000000       2.36464646       0.00000000       0.00000000      -5.16755247
2
Properties=species:S:1:pos:R:3:forces:R:3 energy=-4.517622055784995 pbc="F F F"
S        0.00000000       0.00000000       0.00000000       0.00000000       0.00000000       5.23480797
S        0.00000000       0.00000000       2.42424242       0.00000000       0.00000000      -5.23480797
2
Properties=species:S:1:pos:R:3:forces:R:3 energy=-4.20726485916623 pbc="F F F"
S        0.00000000       0.00000000       0.00000000       0.00000000       0.00000000       5.15243149
S        0.00000000       0.00000000       2.48383838       0.00000000       0.00000000      -5.15243149
2
Properties=species:S:1:pos:R:3:forces:R:3 energy=-3.906926894133769 pbc="F F F"
S        0.00000000       0.00000000       0.00000000       0.00000000       0.00000000       4.89903975
S        0.00000000       0.00000000       2.54343434       0.00000000       0.00000000      -4.89903975
2
Properties=species:S:1:pos:R:3:forces:R:3 energy=-3.626218564922569 pbc="F F F"
S        0.00000000       0.00000000       0.00000000       0.00000000       0.00000000       4.50186253
S        0.00000000       0.00000000       2.60303030       0.00000000       0.00000000      -4.50186253
2
Properties=species:S:1:pos:R:3:forces:R:3 energy=-3.3720443892691674 pbc="F F F"
S        0.00000000       0.00000000       0.00000000       0.00000000       0.00000000       4.01894855
S        0.00000000       0.00000000       2.66262626       0.00000000       0.00000000      -4.01894855
2
Properties=species:S:1:pos:R:3:forces:R:3 energy=-3.147709114678967 pbc="F F F"
S        0.00000000       0.00000000       0.00000000       0.00000000       0.00000000       3.50925374
S        0.00000000       0.00000000       2.72222222       0.00000000       0.00000000      -3.50925374
2
Properties=species:S:1:pos:R:3:forces:R:3 energy=-2.953466906103394 pbc="F F F"
S        0.00000000       0.00000000       0.00000000       0.00000000       0.00000000       3.01422358
S        0.00000000       0.00000000       2.78181818       0.00000000       0.00000000      -3.01422358
2
Properties=species:S:1:pos:R:3:forces:R:3 energy=-2.7876888892778497 pbc="F F F"
S        0.00000000       0.00000000       0.00000000       0.00000000       0.00000000       2.55649710
S        0.00000000       0.00000000       2.84141414       0.00000000       0.00000000      -2.55649710
2
Properties=species:S:1:pos:R:3:forces:R:3 energy=-2.6477929652957193 pbc="F F F"
S        0.00000000       0.00000000       0.00000000       0.00000000       0.00000000       2.14691710
S        0.00000000       0.00000000       2.90101010       0.00000000       0.00000000      -2.14691710
2
Properties=species:S:1:pos:R:3:forces:R:3 energy=-2.530745622934737 pbc="F F F"
S        0.00000000       0.00000000       0.00000000       0.00000000       0.00000000       1.79001153
S        0.00000000       0.00000000       2.96060606       0.00000000       0.00000000      -1.79001153
2
Properties=species:S:1:pos:R:3:forces:R:3 energy=-2.433382034684544 pbc="F F F"
S        0.00000000       0.00000000       0.00000000       0.00000000       0.00000000       1.48609054
S        0.00000000       0.00000000       3.02020202       0.00000000       0.00000000      -1.48609054
2
Properties=species:S:1:pos:R:3:forces:R:3 energy=-2.3526221341509888 pbc="F F F"
S        0.00000000       0.00000000       0.00000000       0.00000000       0.00000000       1.23209476
S        0.00000000       0.00000000       3.07979798       0.00000000       0.00000000      -1.23209476
2
Properties=species:S:1:pos:R:3:forces:R:3 energy=-2.285642381811362 pbc="F F F"
S        0.00000000       0.00000000       0.00000000       0.00000000       0.00000000       1.02259696
S        0.00000000       0.00000000       3.13939394       0.00000000       0.00000000      -1.02259696
2
Properties=species:S:1:pos:R:3:forces:R:3 energy=-2.2299825660426005 pbc="F F F"
S        0.00000000       0.00000000       0.00000000       0.00000000       0.00000000       0.85108924
S        0.00000000       0.00000000       3.19898990       0.00000000       0.00000000      -0.85108924
2
Properties=species:S:1:pos:R:3:forces:R:3 energy=-2.183574003709954 pbc="F F F"
S        0.00000000       0.00000000       0.00000000       0.00000000       0.00000000       0.71106470
S        0.00000000       0.00000000       3.25858586       0.00000000       0.00000000      -0.71106470
2
Properties=species:S:1:pos:R:3:forces:R:3 energy=-2.1447197180828614 pbc="F F F"
S        0.00000000       0.00000000       0.00000000       0.00000000       0.00000000       0.59670413
S        0.00000000       0.00000000       3.31818182       0.00000000       0.00000000      -0.59670413
2
Properties=species:S:1:pos:R:3:forces:R:3 energy=-2.1120391185570395 pbc="F F F"
S        0.00000000       0.00000000       0.00000000       0.00000000       0.00000000       0.50314993
S        0.00000000       0.00000000       3.37777778       0.00000000       0.00000000      -0.50314993
2
Properties=species:S:1:pos:R:3:forces:R:3 energy=-2.0844132372411948 pbc="F F F"
S        0.00000000       0.00000000       0.00000000       0.00000000       0.00000000       0.42650121
S        0.00000000       0.00000000       3.43737374       0.00000000       0.00000000      -0.42650121
2
Properties=species:S:1:pos:R:3:forces:R:3 energy=-2.0609291647568075 pbc="F F F"
S        0.00000000       0.00000000       0.00000000       0.00000000       0.00000000       0.36368114
S        0.00000000       0.00000000       3.49696970       0.00000000       0.00000000      -0.36368114
2
Properties=species:S:1:pos:R:3:forces:R:3 energy=-2.0408388592608353 pbc="F F F"
S        0.00000000       0.00000000       0.00000000       0.00000000       0.00000000       0.31227309
S        0.00000000       0.00000000       3.55656566       0.00000000       0.00000000      -0.31227309
2
Properties=species:S:1:pos:R:3:forces:R:3 energy=-2.023520871176256 pbc="F F F"
S        0.00000000       0.00000000       0.00000000       0.00000000       0.00000000       0.27035329
S        0.00000000       0.00000000       3.61616162       0.00000000       0.00000000      -0.27035329
2
Properties=species:S:1:pos:R:3:forces:R:3 energy=-2.008457930677684 pbc="F F F"
S        0.00000000       0.00000000       0.00000000       0.00000000       0.00000000       0.23636228
S        0.00000000       0.00000000       3.67575758       0.00000000       0.00000000      -0.23636228
2
Properties=species:S:1:pos:R:3:forces:R:3 energy=-1.9952169146110386 pbc="F F F"
S        0.00000000       0.00000000       0.00000000       0.00000000       0.00000000       0.20899725
S        0.00000000       0.00000000       3.73535354       0.00000000       0.00000000      -0.20899725
2
Properties=species:S:1:pos:R:3:forces:R:3 energy=-1.9834375600408611 pbc="F F F"
S        0.00000000       0.00000000       0.00000000       0.00000000       0.00000000       0.18714294
S        0.00000000       0.00000000       3.79494949       0.00000000       0.00000000      -0.18714294
2
Properties=species:S:1:pos:R:3:forces:R:3 energy=-1.9728210431651927 pbc="F F F"
S        0.00000000       0.00000000       0.00000000       0.00000000       0.00000000       0.16982546
S        0.00000000       0.00000000       3.85454545       0.00000000       0.00000000      -0.16982546
2
Properties=species:S:1:pos:R:3:forces:R:3 energy=-1.9631226093464231 pbc="F F F"
S        0.00000000       0.00000000       0.00000000       0.00000000       0.00000000       0.15620458
S        0.00000000       0.00000000       3.91414141       0.00000000       0.00000000      -0.15620458
2
Properties=species:S:1:pos:R:3:forces:R:3 energy=-1.954143667700275 pbc="F F F"
S        0.00000000       0.00000000       0.00000000       0.00000000       0.00000000       0.14555578
S        0.00000000       0.00000000       3.97373737       0.00000000       0.00000000      -0.14555578
2
Properties=species:S:1:pos:R:3:forces:R:3 energy=-1.9457264571880437 pbc="F F F"
S        0.00000000       0.00000000       0.00000000       0.00000000       0.00000000       0.13727278
S        0.00000000       0.00000000       4.03333333       0.00000000       0.00000000      -0.13727278
2
Properties=species:S:1:pos:R:3:forces:R:3 energy=-1.9377451332623266 pbc="F F F"
S        0.00000000       0.00000000       0.00000000       0.00000000       0.00000000       0.13085172
S        0.00000000       0.00000000       4.09292929       0.00000000       0.00000000      -0.13085172
2
Properties=species:S:1:pos:R:3:forces:R:3 energy=-1.9301012985186015 pbc="F F F"
S        0.00000000       0.00000000       0.00000000       0.00000000       0.00000000       0.12586880
S        0.00000000       0.00000000       4.15252525       0.00000000       0.00000000      -0.12586880
2
Properties=species:S:1:pos:R:3:forces:R:3 energy=-1.9227211115779668 pbc="F F F"
S        0.00000000       0.00000000       0.00000000       0.00000000       0.00000000       0.12195562
S        0.00000000       0.00000000       4.21212121       0.00000000       0.00000000      -0.12195562
2
Properties=species:S:1:pos:R:3:forces:R:3 energy=-1.9155504933729817 pbc="F F F"
S        0.00000000       0.00000000       0.00000000       0.00000000       0.00000000       0.11878145
S        0.00000000       0.00000000       4.27171717       0.00000000       0.00000000      -0.11878145
2
Properties=species:S:1:pos:R:3:forces:R:3 energy=-1.9085548075336638 pbc="F F F"
S        0.00000000       0.00000000       0.00000000       0.00000000       0.00000000       0.11604211
S        0.00000000       0.00000000       4.33131313       0.00000000       0.00000000      -0.11604211
2
Properties=species:S:1:pos:R:3:forces:R:3 energy=-1.9017158849069828 pbc="F F F"
S        0.00000000       0.00000000       0.00000000       0.00000000       0.00000000       0.11346687
S        0.00000000       0.00000000       4.39090909       0.00000000       0.00000000      -0.11346687
2
Properties=species:S:1:pos:R:3:forces:R:3 energy=-1.8950316164117913 pbc="F F F"
S        0.00000000       0.00000000       0.00000000       0.00000000       0.00000000       0.11082522
S        0.00000000       0.00000000       4.45050505       0.00000000       0.00000000      -0.11082522
2
Properties=species:S:1:pos:R:3:forces:R:3 energy=-1.8885118163516874 pbc="F F F"
S        0.00000000       0.00000000       0.00000000       0.00000000       0.00000000       0.10792968
S        0.00000000       0.00000000       4.51010101       0.00000000       0.00000000      -0.10792968
2
Properties=species:S:1:pos:R:3:forces:R:3 energy=-1.882175284156421 pbc="F F F"
S        0.00000000       0.00000000       0.00000000       0.00000000       0.00000000       0.10462575
S        0.00000000       0.00000000       4.56969697       0.00000000       0.00000000      -0.10462575
2
Properties=species:S:1:pos:R:3:forces:R:3 energy=-1.876051819436479 pbc="F F F"
S        0.00000000       0.00000000       0.00000000       0.00000000       0.00000000       0.10077070
S        0.00000000       0.00000000       4.62929293       0.00000000       0.00000000      -0.10077070
2
Properties=species:S:1:pos:R:3:forces:R:3 energy=-1.8701780599533737 pbc="F F F"
S        0.00000000       0.00000000       0.00000000       0.00000000       0.00000000       0.09623072
S        0.00000000       0.00000000       4.68888889       0.00000000       0.00000000      -0.09623072
2
Properties=species:S:1:pos:R:3:forces:R:3 energy=-1.8645979247787083 pbc="F F F"
S        0.00000000       0.00000000       0.00000000       0.00000000       0.00000000       0.09087988
S        0.00000000       0.00000000       4.74848485       0.00000000       0.00000000      -0.09087988
2
Properties=species:S:1:pos:R:3:forces:R:3 energy=-1.859363234891247 pbc="F F F"
S        0.00000000       0.00000000       0.00000000       0.00000000       0.00000000       0.08466276
S        0.00000000       0.00000000       4.80808081       0.00000000       0.00000000      -0.08466276
2
Properties=species:S:1:pos:R:3:forces:R:3 energy=-1.8545223554082715 pbc="F F F"
S        0.00000000       0.00000000       0.00000000       0.00000000       0.00000000       0.07767721
S        0.00000000       0.00000000       4.86767677       0.00000000       0.00000000      -0.07767721
2
Properties=species:S:1:pos:R:3:forces:R:3 energy=-1.8501123329201823 pbc="F F F"
S        0.00000000       0.00000000       0.00000000       0.00000000       0.00000000       0.07030510
S        0.00000000       0.00000000       4.92727273       0.00000000       0.00000000      -0.07030510
2
Properties=species:S:1:pos:R:3:forces:R:3 energy=-1.8461352251109422 pbc="F F F"
S        0.00000000       0.00000000       0.00000000       0.00000000       0.00000000       0.06331617
S        0.00000000       0.00000000       4.98686869       0.00000000       0.00000000      -0.06331617
2
Properties=species:S:1:pos:R:3:forces:R:3 energy=-1.8425351222715713 pbc="F F F"
S        0.00000000       0.00000000       0.00000000       0.00000000       0.00000000       0.05789284
S        0.00000000       0.00000000       5.04646465       0.00000000       0.00000000      -0.05789284
2
Properties=species:S:1:pos:R:3:forces:R:3 energy=-1.839176458337048 pbc="F F F"
S        0.00000000       0.00000000       0.00000000       0.00000000       0.00000000       0.05541890
S        0.00000000       0.00000000       5.10606061       0.00000000       0.00000000      -0.05541890
2
Properties=species:S:1:pos:R:3:forces:R:3 energy=-1.8358484707312657 pbc="F F F"
S        0.00000000       0.00000000       0.00000000       0.00000000       0.00000000       0.05695476
S        0.00000000       0.00000000       5.16565657       0.00000000       0.00000000      -0.05695476
2
Properties=species:S:1:pos:R:3:forces:R:3 energy=-1.8323078761047589 pbc="F F F"
S        0.00000000       0.00000000       0.00000000       0.00000000       0.00000000       0.06243550
S        0.00000000       0.00000000       5.22525253       0.00000000       0.00000000      -0.06243550
2
Properties=species:S:1:pos:R:3:forces:R:3 energy=-1.828365067758537 pbc="F F F"
S        0.00000000       0.00000000       0.00000000       0.00000000       0.00000000       0.06996475
S        0.00000000       0.00000000       5.28484848       0.00000000       0.00000000      -0.06996475
2
Properties=species:S:1:pos:R:3:forces:R:3 energy=-1.823997380308268 pbc="F F F"
S        0.00000000       0.00000000       0.00000000       0.00000000       0.00000000       0.07606717
S        0.00000000       0.00000000       5.34444444       0.00000000       0.00000000      -0.07606717
2
Properties=species:S:1:pos:R:3:forces:R:3 energy=-1.819376874952211 pbc="F F F"
S        0.00000000       0.00000000       0.00000000       0.00000000       0.00000000       0.07842249
S        0.00000000       0.00000000       5.40404040       0.00000000       0.00000000      -0.07842249
2
Properties=species:S:1:pos:R:3:forces:R:3 energy=-1.8146629113476191 pbc="F F F"
S        0.00000000       0.00000000       0.00000000       0.00000000       0.00000000       0.08015632
S        0.00000000       0.00000000       5.46363636       0.00000000       0.00000000      -0.08015632
2
Properties=species:S:1:pos:R:3:forces:R:3 energy=-1.809764810230778 pbc="F F F"
S        0.00000000       0.00000000       0.00000000       0.00000000       0.00000000       0.08430556
S        0.00000000       0.00000000       5.52323232       0.00000000       0.00000000      -0.08430556
2
Properties=species:S:1:pos:R:3:forces:R:3 energy=-1.804741445331446 pbc="F F F"
S        0.00000000       0.00000000       0.00000000       0.00000000       0.00000000       0.08241390
S        0.00000000       0.00000000       5.58282828       0.00000000       0.00000000      -0.08241390
2
Properties=species:S:1:pos:R:3:forces:R:3 energy=-1.8001486099371282 pbc="F F F"
S        0.00000000       0.00000000       0.00000000       0.00000000       0.00000000       0.07057881
S        0.00000000       0.00000000       5.64242424       0.00000000       0.00000000      -0.07057881
2
Properties=species:S:1:pos:R:3:forces:R:3 energy=-1.7963458289315484 pbc="F F F"
S        0.00000000       0.00000000       0.00000000       0.00000000       0.00000000       0.05796600
S        0.00000000       0.00000000       5.70202020       0.00000000       0.00000000      -0.05796600
2
Properties=species:S:1:pos:R:3:forces:R:3 energy=-1.793015692485993 pbc="F F F"
S        0.00000000       0.00000000       0.00000000       0.00000000       0.00000000       0.05576680
S        0.00000000       0.00000000       5.76161616       0.00000000       0.00000000      -0.05576680
2
Properties=species:S:1:pos:R:3:forces:R:3 energy=-1.7896924330190118 pbc="F F F"
S        0.00000000       0.00000000       0.00000000       0.00000000       0.00000000       0.05355658
S        0.00000000       0.00000000       5.82121212       0.00000000       0.00000000      -0.05355658
2
Properties=species:S:1:pos:R:3:forces:R:3 energy=-1.7869952664859992 pbc="F F F"
S        0.00000000       0.00000000       0.00000000       0.00000000       0.00000000       0.03482253
S        0.00000000       0.00000000       5.88080808       0.00000000       0.00000000      -0.03482253
2
Properties=species:S:1:pos:R:3:forces:R:3 energy=-1.7856207039793102 pbc="F F F"
S        0.00000000       0.00000000       0.00000000       0.00000000       0.00000000       0.01185854
S        0.00000000       0.00000000       5.94040404       0.00000000       0.00000000      -0.01185854
2
Properties=species:S:1:pos:R:3:forces:R:3 energy=-1.785301504328204 pbc="F F F"
S        0.00000000       0.00000000       0.00000000       0.00000000       0.00000000       0.00211222
S        0.00000000       0.00000000       6.00000000       0.00000000       0.00000000      -0.00211222
