2
Properties=species:S:1:pos:R:3:forces:R:3 energy=-1003288.6995302546 pbc="F F F"
Sm       0.00000000       0.00000000       0.00000000       0.00000000       0.00000000 -1453082.87500000
Sm       0.00000000       0.00000000       0.10000000       0.00000000       0.00000000 1453082.87500000
2
Properties=species:S:1:pos:R:3:forces:R:3 energy=-1044136.9495302546 pbc="F F F"
Sm       0.00000000       0.00000000       0.00000000       0.00000000       0.00000000 -257826.59375000
Sm       0.00000000       0.00000000       0.15959596       0.00000000       0.00000000  257826.59375000
2
Properties=species:S:1:pos:R:3:forces:R:3 energy=-1048905.6370302546 pbc="F F F"
Sm       0.00000000       0.00000000       0.00000000       0.00000000       0.00000000   63210.90625000
Sm       0.00000000       0.00000000       0.21919192       0.00000000       0.00000000  -63210.90625000
2
Properties=species:S:1:pos:R:3:forces:R:3 energy=-1037385.4495302546 pbc="F F F"
Sm       0.00000000       0.00000000       0.00000000       0.00000000       0.00000000  332290.00000000
Sm       0.00000000       0.00000000       0.27878788       0.00000000       0.00000000 -332290.00000000
2
Properties=species:S:1:pos:R:3:forces:R:3 energy=-1007296.3870302546 pbc="F F F"
Sm       0.00000000       0.00000000       0.00000000       0.00000000       0.00000000  699005.81250000
Sm       0.00000000       0.00000000       0.33838384       0.00000000       0.00000000 -699005.81250000
2
Properties=species:S:1:pos:R:3:forces:R:3 energy=-951355.1995302546 pbc="F F F"
Sm       0.00000000       0.00000000       0.00000000       0.00000000       0.00000000 1200310.12500000
Sm       0.00000000       0.00000000       0.39797980       0.00000000       0.00000000 -1200310.12500000
2
Properties=species:S:1:pos:R:3:forces:R:3 energy=-862077.8870302419 pbc="F F F"
Sm       0.00000000       0.00000000       0.00000000       0.00000000       0.00000000 1806705.25000000
Sm       0.00000000       0.00000000       0.45757576       0.00000000       0.00000000 -1806705.25000000
2
Properties=species:S:1:pos:R:3:forces:R:3 energy=-735983.1370302292 pbc="F F F"
Sm       0.00000000       0.00000000       0.00000000       0.00000000       0.00000000 2411647.25000000
Sm       0.00000000       0.00000000       0.51717172       0.00000000       0.00000000 -2411647.25000000
2
Properties=species:S:1:pos:R:3:forces:R:3 energy=-578214.074530204 pbc="F F F"
Sm       0.00000000       0.00000000       0.00000000       0.00000000       0.00000000 2835714.25000000
Sm       0.00000000       0.00000000       0.57676768       0.00000000       0.00000000 -2835714.25000000
2
Properties=species:S:1:pos:R:3:forces:R:3 energy=-405530.0745301532 pbc="F F F"
Sm       0.00000000       0.00000000       0.00000000       0.00000000       0.00000000 2883780.25000000
Sm       0.00000000       0.00000000       0.63636364       0.00000000       0.00000000 -2883780.25000000
2
Properties=species:S:1:pos:R:3:forces:R:3 energy=-243983.10578008986 pbc="F F F"
Sm       0.00000000       0.00000000       0.00000000       0.00000000       0.00000000 2461772.00000000
Sm       0.00000000       0.00000000       0.69595960       0.00000000       0.00000000 -2461772.00000000
2
Properties=species:S:1:pos:R:3:forces:R:3 energy=-118326.23077998847 pbc="F F F"
Sm       0.00000000       0.00000000       0.00000000       0.00000000       0.00000000 1705209.87500000
Sm       0.00000000       0.00000000       0.75555556       0.00000000       0.00000000 -1705209.87500000
2
Properties=species:S:1:pos:R:3:forces:R:3 energy=-42492.304998573745 pbc="F F F"
Sm       0.00000000       0.00000000       0.00000000       0.00000000       0.00000000  864231.43750000
Sm       0.00000000       0.00000000       0.81515152       0.00000000       0.00000000 -864231.43750000
2
Properties=species:S:1:pos:R:3:forces:R:3 energy=-9892.035467108335 pbc="F F F"
Sm       0.00000000       0.00000000       0.00000000       0.00000000       0.00000000  291419.59375000
Sm       0.00000000       0.00000000       0.87474747       0.00000000       0.00000000 -291419.59375000
2
Properties=species:S:1:pos:R:3:forces:R:3 energy=-1094.5038505806153 pbc="F F F"
Sm       0.00000000       0.00000000       0.00000000       0.00000000       0.00000000   50269.03125000
Sm       0.00000000       0.00000000       0.93434343       0.00000000       0.00000000  -50269.03125000
2
Properties=species:S:1:pos:R:3:forces:R:3 energy=106.4184521089735 pbc="F F F"
Sm       0.00000000       0.00000000       0.00000000       0.00000000       0.00000000    3976.35937500
Sm       0.00000000       0.00000000       0.99393939       0.00000000       0.00000000   -3976.35937500
2
Properties=species:S:1:pos:R:3:forces:R:3 energy=187.35412164983657 pbc="F F F"
Sm       0.00000000       0.00000000       0.00000000       0.00000000       0.00000000    -105.00784302
Sm       0.00000000       0.00000000       1.05353535       0.00000000       0.00000000     105.00784302
2
Properties=species:S:1:pos:R:3:forces:R:3 energy=161.86034804673653 pbc="F F F"
Sm       0.00000000       0.00000000       0.00000000       0.00000000       0.00000000    -466.64340210
Sm       0.00000000       0.00000000       1.11313131       0.00000000       0.00000000     466.64340210
2
Properties=species:S:1:pos:R:3:forces:R:3 energy=134.22814696268728 pbc="F F F"
Sm       0.00000000       0.00000000       0.00000000       0.00000000       0.00000000    -491.98214722
Sm       0.00000000       0.00000000       1.17272727       0.00000000       0.00000000     491.98214722
2
Properties=species:S:1:pos:R:3:forces:R:3 energy=107.39475141956535 pbc="F F F"
Sm       0.00000000       0.00000000       0.00000000       0.00000000       0.00000000    -402.51794434
Sm       0.00000000       0.00000000       1.23232323       0.00000000       0.00000000     402.51794434
2
Properties=species:S:1:pos:R:3:forces:R:3 energy=86.26606819598716 pbc="F F F"
Sm       0.00000000       0.00000000       0.00000000       0.00000000       0.00000000    -312.14370728
Sm       0.00000000       0.00000000       1.29191919       0.00000000       0.00000000     312.14370728
2
Properties=species:S:1:pos:R:3:forces:R:3 energy=69.45034320491852 pbc="F F F"
Sm       0.00000000       0.00000000       0.00000000       0.00000000       0.00000000    -256.84637451
Sm       0.00000000       0.00000000       1.35151515       0.00000000       0.00000000     256.84637451
2
Properties=species:S:1:pos:R:3:forces:R:3 energy=55.303934122192636 pbc="F F F"
Sm       0.00000000       0.00000000       0.00000000       0.00000000       0.00000000    -219.45893860
Sm       0.00000000       0.00000000       1.41111111       0.00000000       0.00000000     219.45893860
2
Properties=species:S:1:pos:R:3:forces:R:3 energy=43.23481913238372 pbc="F F F"
Sm       0.00000000       0.00000000       0.00000000       0.00000000       0.00000000    -185.17843628
Sm       0.00000000       0.00000000       1.47070707       0.00000000       0.00000000     185.17843628
2
Properties=species:S:1:pos:R:3:forces:R:3 energy=33.283487558981996 pbc="F F F"
Sm       0.00000000       0.00000000       0.00000000       0.00000000       0.00000000    -149.00683594
Sm       0.00000000       0.00000000       1.53030303       0.00000000       0.00000000     149.00683594
2
Properties=species:S:1:pos:R:3:forces:R:3 energy=25.34525856437086 pbc="F F F"
Sm       0.00000000       0.00000000       0.00000000       0.00000000       0.00000000    -118.81835175
Sm       0.00000000       0.00000000       1.58989899       0.00000000       0.00000000     118.81835175
2
Properties=species:S:1:pos:R:3:forces:R:3 energy=19.01298392672843 pbc="F F F"
Sm       0.00000000       0.00000000       0.00000000       0.00000000       0.00000000     -93.97825623
Sm       0.00000000       0.00000000       1.64949495       0.00000000       0.00000000      93.97825623
2
Properties=species:S:1:pos:R:3:forces:R:3 energy=14.116425379264857 pbc="F F F"
Sm       0.00000000       0.00000000       0.00000000       0.00000000       0.00000000     -70.92493439
Sm       0.00000000       0.00000000       1.70909091       0.00000000       0.00000000      70.92493439
2
Properties=species:S:1:pos:R:3:forces:R:3 energy=10.441520446657183 pbc="F F F"
Sm       0.00000000       0.00000000       0.00000000       0.00000000       0.00000000     -53.56074142
Sm       0.00000000       0.00000000       1.76868687       0.00000000       0.00000000      53.56074142
2
Properties=species:S:1:pos:R:3:forces:R:3 energy=7.613376683363063 pbc="F F F"
Sm       0.00000000       0.00000000       0.00000000       0.00000000       0.00000000     -42.10390091
Sm       0.00000000       0.00000000       1.82828283       0.00000000       0.00000000      42.10390091
2
Properties=species:S:1:pos:R:3:forces:R:3 energy=5.35905422197814 pbc="F F F"
Sm       0.00000000       0.00000000       0.00000000       0.00000000       0.00000000     -33.92744064
Sm       0.00000000       0.00000000       1.88787879       0.00000000       0.00000000      33.92744064
2
Properties=species:S:1:pos:R:3:forces:R:3 energy=3.5350332624786005 pbc="F F F"
Sm       0.00000000       0.00000000       0.00000000       0.00000000       0.00000000     -27.51414108
Sm       0.00000000       0.00000000       1.94747475       0.00000000       0.00000000      27.51414108
2
Properties=species:S:1:pos:R:3:forces:R:3 energy=2.0568467612905525 pbc="F F F"
Sm       0.00000000       0.00000000       0.00000000       0.00000000       0.00000000     -22.25329781
Sm       0.00000000       0.00000000       2.00707071       0.00000000       0.00000000      22.25329781
2
Properties=species:S:1:pos:R:3:forces:R:3 energy=0.866063736947599 pbc="F F F"
Sm       0.00000000       0.00000000       0.00000000       0.00000000       0.00000000     -17.82975388
Sm       0.00000000       0.00000000       2.06666667       0.00000000       0.00000000      17.82975388
2
Properties=species:S:1:pos:R:3:forces:R:3 energy=-0.08108185294954418 pbc="F F F"
Sm       0.00000000       0.00000000       0.00000000       0.00000000       0.00000000     -14.05104637
Sm       0.00000000       0.00000000       2.12626263       0.00000000       0.00000000      14.05104637
2
Properties=species:S:1:pos:R:3:forces:R:3 energy=-0.81903847016314 pbc="F F F"
Sm       0.00000000       0.00000000       0.00000000       0.00000000       0.00000000     -10.79498672
Sm       0.00000000       0.00000000       2.18585859       0.00000000       0.00000000      10.79498672
2
Properties=species:S:1:pos:R:3:forces:R:3 energy=-1.3771266569848464 pbc="F F F"
Sm       0.00000000       0.00000000       0.00000000       0.00000000       0.00000000      -8.01314259
Sm       0.00000000       0.00000000       2.24545455       0.00000000       0.00000000       8.01314259
2
Properties=species:S:1:pos:R:3:forces:R:3 energy=-1.7837883072146006 pbc="F F F"
Sm       0.00000000       0.00000000       0.00000000       0.00000000       0.00000000      -5.71676588
Sm       0.00000000       0.00000000       2.30505051       0.00000000       0.00000000       5.71676588
2
Properties=species:S:1:pos:R:3:forces:R:3 energy=-2.0684634845440177 pbc="F F F"
Sm       0.00000000       0.00000000       0.00000000       0.00000000       0.00000000      -3.91971064
Sm       0.00000000       0.00000000       2.36464646       0.00000000       0.00000000       3.91971064
2
Properties=species:S:1:pos:R:3:forces:R:3 energy=-2.260592108112846 pbc="F F F"
Sm       0.00000000       0.00000000       0.00000000       0.00000000       0.00000000      -2.60505676
Sm       0.00000000       0.00000000       2.42424242       0.00000000       0.00000000       2.60505676
2
Properties=species:S:1:pos:R:3:forces:R:3 energy=-2.3874629325847176 pbc="F F F"
Sm       0.00000000       0.00000000       0.00000000       0.00000000       0.00000000      -1.71674788
Sm       0.00000000       0.00000000       2.48383838       0.00000000       0.00000000       1.71674788
2
Properties=species:S:1:pos:R:3:forces:R:3 energy=-2.471816979597209 pbc="F F F"
Sm       0.00000000       0.00000000       0.00000000       0.00000000       0.00000000      -1.16025269
Sm       0.00000000       0.00000000       2.54343434       0.00000000       0.00000000       1.16025269
2
Properties=species:S:1:pos:R:3:forces:R:3 energy=-2.5301817658342967 pbc="F F F"
Sm       0.00000000       0.00000000       0.00000000       0.00000000       0.00000000      -0.82730877
Sm       0.00000000       0.00000000       2.60303030       0.00000000       0.00000000       0.82730877
2
Properties=species:S:1:pos:R:3:forces:R:3 energy=-2.573070273170116 pbc="F F F"
Sm       0.00000000       0.00000000       0.00000000       0.00000000       0.00000000      -0.62854284
Sm       0.00000000       0.00000000       2.66262626       0.00000000       0.00000000       0.62854284
2
Properties=species:S:1:pos:R:3:forces:R:3 energy=-2.6065656029226516 pbc="F F F"
Sm       0.00000000       0.00000000       0.00000000       0.00000000       0.00000000      -0.50432563
Sm       0.00000000       0.00000000       2.72222222       0.00000000       0.00000000       0.50432563
2
Properties=species:S:1:pos:R:3:forces:R:3 energy=-2.633892567770734 pbc="F F F"
Sm       0.00000000       0.00000000       0.00000000       0.00000000       0.00000000      -0.41622907
Sm       0.00000000       0.00000000       2.78181818       0.00000000       0.00000000       0.41622907
2
Properties=species:S:1:pos:R:3:forces:R:3 energy=-2.656343156650378 pbc="F F F"
Sm       0.00000000       0.00000000       0.00000000       0.00000000       0.00000000      -0.33668032
Sm       0.00000000       0.00000000       2.84141414       0.00000000       0.00000000       0.33668032
2
Properties=species:S:1:pos:R:3:forces:R:3 energy=-2.673774367755141 pbc="F F F"
Sm       0.00000000       0.00000000       0.00000000       0.00000000       0.00000000      -0.24488613
Sm       0.00000000       0.00000000       2.90101010       0.00000000       0.00000000       0.24488613
2
Properties=species:S:1:pos:R:3:forces:R:3 energy=-2.685019265173166 pbc="F F F"
Sm       0.00000000       0.00000000       0.00000000       0.00000000       0.00000000      -0.12767315
Sm       0.00000000       0.00000000       2.96060606       0.00000000       0.00000000       0.12767315
2
Properties=species:S:1:pos:R:3:forces:R:3 energy=-2.6884055139541516 pbc="F F F"
Sm       0.00000000       0.00000000       0.00000000       0.00000000       0.00000000       0.01872671
Sm       0.00000000       0.00000000       3.02020202       0.00000000       0.00000000      -0.01872671
2
Properties=species:S:1:pos:R:3:forces:R:3 energy=-2.682317522769622 pbc="F F F"
Sm       0.00000000       0.00000000       0.00000000       0.00000000       0.00000000       0.18862197
Sm       0.00000000       0.00000000       3.07979798       0.00000000       0.00000000      -0.18862197
2
Properties=species:S:1:pos:R:3:forces:R:3 energy=-2.6657069337687465 pbc="F F F"
Sm       0.00000000       0.00000000       0.00000000       0.00000000       0.00000000       0.36933279
Sm       0.00000000       0.00000000       3.13939394       0.00000000       0.00000000      -0.36933279
2
Properties=species:S:1:pos:R:3:forces:R:3 energy=-2.638385552648937 pbc="F F F"
Sm       0.00000000       0.00000000       0.00000000       0.00000000       0.00000000       0.54557186
Sm       0.00000000       0.00000000       3.19898990       0.00000000       0.00000000      -0.54557186
2
Properties=species:S:1:pos:R:3:forces:R:3 energy=-2.6010327879810533 pbc="F F F"
Sm       0.00000000       0.00000000       0.00000000       0.00000000       0.00000000       0.70413113
Sm       0.00000000       0.00000000       3.25858586       0.00000000       0.00000000      -0.70413113
2
Properties=species:S:1:pos:R:3:forces:R:3 energy=-2.5549744264464755 pbc="F F F"
Sm       0.00000000       0.00000000       0.00000000       0.00000000       0.00000000       0.83692086
Sm       0.00000000       0.00000000       3.31818182       0.00000000       0.00000000      -0.83692086
2
Properties=species:S:1:pos:R:3:forces:R:3 energy=-2.5018421054138025 pbc="F F F"
Sm       0.00000000       0.00000000       0.00000000       0.00000000       0.00000000       0.94155031
Sm       0.00000000       0.00000000       3.37777778       0.00000000       0.00000000      -0.94155031
2
Properties=species:S:1:pos:R:3:forces:R:3 energy=-2.4432719161769034 pbc="F F F"
Sm       0.00000000       0.00000000       0.00000000       0.00000000       0.00000000       1.02001691
Sm       0.00000000       0.00000000       3.43737374       0.00000000       0.00000000      -1.02001691
2
Properties=species:S:1:pos:R:3:forces:R:3 energy=-2.380697431285682 pbc="F F F"
Sm       0.00000000       0.00000000       0.00000000       0.00000000       0.00000000       1.07668769
Sm       0.00000000       0.00000000       3.49696970       0.00000000       0.00000000      -1.07668769
2
Properties=species:S:1:pos:R:3:forces:R:3 energy=-2.3152726319885826 pbc="F F F"
Sm       0.00000000       0.00000000       0.00000000       0.00000000       0.00000000       1.11647201
Sm       0.00000000       0.00000000       3.55656566       0.00000000       0.00000000      -1.11647201
2
Properties=species:S:1:pos:R:3:forces:R:3 energy=-2.247873665861665 pbc="F F F"
Sm       0.00000000       0.00000000       0.00000000       0.00000000       0.00000000       1.14357674
Sm       0.00000000       0.00000000       3.61616162       0.00000000       0.00000000      -1.14357674
2
Properties=species:S:1:pos:R:3:forces:R:3 energy=-2.1791620530746445 pbc="F F F"
Sm       0.00000000       0.00000000       0.00000000       0.00000000       0.00000000       1.16088521
Sm       0.00000000       0.00000000       3.67575758       0.00000000       0.00000000      -1.16088521
2
Properties=species:S:1:pos:R:3:forces:R:3 energy=-2.1096711309647933 pbc="F F F"
Sm       0.00000000       0.00000000       0.00000000       0.00000000       0.00000000       1.16985476
Sm       0.00000000       0.00000000       3.73535354       0.00000000       0.00000000      -1.16985476
2
Properties=species:S:1:pos:R:3:forces:R:3 energy=-2.039883014888745 pbc="F F F"
Sm       0.00000000       0.00000000       0.00000000       0.00000000       0.00000000       1.17083466
Sm       0.00000000       0.00000000       3.79494949       0.00000000       0.00000000      -1.17083466
2
Properties=species:S:1:pos:R:3:forces:R:3 energy=-1.970278978234508 pbc="F F F"
Sm       0.00000000       0.00000000       0.00000000       0.00000000       0.00000000       1.16365290
Sm       0.00000000       0.00000000       3.85454545       0.00000000       0.00000000      -1.16365290
2
Properties=species:S:1:pos:R:3:forces:R:3 energy=-1.9013484766495128 pbc="F F F"
Sm       0.00000000       0.00000000       0.00000000       0.00000000       0.00000000       1.14827299
Sm       0.00000000       0.00000000       3.91414141       0.00000000       0.00000000      -1.14827299
2
Properties=species:S:1:pos:R:3:forces:R:3 energy=-1.8335662955349787 pbc="F F F"
Sm       0.00000000       0.00000000       0.00000000       0.00000000       0.00000000       1.12523460
Sm       0.00000000       0.00000000       3.97373737       0.00000000       0.00000000      -1.12523460
2
Properties=species:S:1:pos:R:3:forces:R:3 energy=-1.7673575175219782 pbc="F F F"
Sm       0.00000000       0.00000000       0.00000000       0.00000000       0.00000000       1.09576237
Sm       0.00000000       0.00000000       4.03333333       0.00000000       0.00000000      -1.09576237
2
Properties=species:S:1:pos:R:3:forces:R:3 energy=-1.703055170327474 pbc="F F F"
Sm       0.00000000       0.00000000       0.00000000       0.00000000       0.00000000       1.06152391
Sm       0.00000000       0.00000000       4.09292929       0.00000000       0.00000000      -1.06152391
2
Properties=species:S:1:pos:R:3:forces:R:3 energy=-1.6408918464260882 pbc="F F F"
Sm       0.00000000       0.00000000       0.00000000       0.00000000       0.00000000       1.02425718
Sm       0.00000000       0.00000000       4.15252525       0.00000000       0.00000000      -1.02425718
2
Properties=species:S:1:pos:R:3:forces:R:3 energy=-1.581002356164741 pbc="F F F"
Sm       0.00000000       0.00000000       0.00000000       0.00000000       0.00000000       0.98546946
Sm       0.00000000       0.00000000       4.21212121       0.00000000       0.00000000      -0.98546946
2
Properties=species:S:1:pos:R:3:forces:R:3 energy=-1.5234394835637581 pbc="F F F"
Sm       0.00000000       0.00000000       0.00000000       0.00000000       0.00000000       0.94628692
Sm       0.00000000       0.00000000       4.27171717       0.00000000       0.00000000      -0.94628692
2
Properties=species:S:1:pos:R:3:forces:R:3 energy=-1.4682050872701538 pbc="F F F"
Sm       0.00000000       0.00000000       0.00000000       0.00000000       0.00000000       0.90747088
Sm       0.00000000       0.00000000       4.33131313       0.00000000       0.00000000      -0.90747088
2
Properties=species:S:1:pos:R:3:forces:R:3 energy=-1.4152591299533674 pbc="F F F"
Sm       0.00000000       0.00000000       0.00000000       0.00000000       0.00000000       0.86953670
Sm       0.00000000       0.00000000       4.39090909       0.00000000       0.00000000      -0.86953670
2
Properties=species:S:1:pos:R:3:forces:R:3 energy=-1.3645381684164328 pbc="F F F"
Sm       0.00000000       0.00000000       0.00000000       0.00000000       0.00000000       0.83284068
Sm       0.00000000       0.00000000       4.45050505       0.00000000       0.00000000      -0.83284068
2
Properties=species:S:1:pos:R:3:forces:R:3 energy=-1.3159606189796025 pbc="F F F"
Sm       0.00000000       0.00000000       0.00000000       0.00000000       0.00000000       0.79768652
Sm       0.00000000       0.00000000       4.51010101       0.00000000       0.00000000      -0.79768652
2
Properties=species:S:1:pos:R:3:forces:R:3 energy=-1.2694249618374096 pbc="F F F"
Sm       0.00000000       0.00000000       0.00000000       0.00000000       0.00000000       0.76429999
Sm       0.00000000       0.00000000       4.56969697       0.00000000       0.00000000      -0.76429999
2
Properties=species:S:1:pos:R:3:forces:R:3 energy=-1.224823409281311 pbc="F F F"
Sm       0.00000000       0.00000000       0.00000000       0.00000000       0.00000000       0.73281622
Sm       0.00000000       0.00000000       4.62929293       0.00000000       0.00000000      -0.73281622
2
Properties=species:S:1:pos:R:3:forces:R:3 energy=-1.1820422990055182 pbc="F F F"
Sm       0.00000000       0.00000000       0.00000000       0.00000000       0.00000000       0.70322657
Sm       0.00000000       0.00000000       4.68888889       0.00000000       0.00000000      -0.70322657
2
Properties=species:S:1:pos:R:3:forces:R:3 energy=-1.1409706795117491 pbc="F F F"
Sm       0.00000000       0.00000000       0.00000000       0.00000000       0.00000000       0.67533565
Sm       0.00000000       0.00000000       4.74848485       0.00000000       0.00000000      -0.67533565
2
Properties=species:S:1:pos:R:3:forces:R:3 energy=-1.1015198022439634 pbc="F F F"
Sm       0.00000000       0.00000000       0.00000000       0.00000000       0.00000000       0.64886278
Sm       0.00000000       0.00000000       4.80808081       0.00000000       0.00000000      -0.64886278
2
Properties=species:S:1:pos:R:3:forces:R:3 energy=-1.063607400969335 pbc="F F F"
Sm       0.00000000       0.00000000       0.00000000       0.00000000       0.00000000       0.62361258
Sm       0.00000000       0.00000000       4.86767677       0.00000000       0.00000000      -0.62361258
2
Properties=species:S:1:pos:R:3:forces:R:3 energy=-1.0271609472749827 pbc="F F F"
Sm       0.00000000       0.00000000       0.00000000       0.00000000       0.00000000       0.59978616
Sm       0.00000000       0.00000000       4.92727273       0.00000000       0.00000000      -0.59978616
2
Properties=species:S:1:pos:R:3:forces:R:3 energy=-0.992073141153459 pbc="F F F"
Sm       0.00000000       0.00000000       0.00000000       0.00000000       0.00000000       0.57820642
Sm       0.00000000       0.00000000       4.98686869       0.00000000       0.00000000      -0.57820642
2
Properties=species:S:1:pos:R:3:forces:R:3 energy=-0.9581738637255892 pbc="F F F"
Sm       0.00000000       0.00000000       0.00000000       0.00000000       0.00000000       0.56030393
Sm       0.00000000       0.00000000       5.04646465       0.00000000       0.00000000      -0.56030393
2
Properties=species:S:1:pos:R:3:forces:R:3 energy=-0.9251900546429892 pbc="F F F"
Sm       0.00000000       0.00000000       0.00000000       0.00000000       0.00000000       0.54751641
Sm       0.00000000       0.00000000       5.10606061       0.00000000       0.00000000      -0.54751641
2
Properties=species:S:1:pos:R:3:forces:R:3 energy=-0.892800948922744 pbc="F F F"
Sm       0.00000000       0.00000000       0.00000000       0.00000000       0.00000000       0.54005659
Sm       0.00000000       0.00000000       5.16565657       0.00000000       0.00000000      -0.54005659
2
Properties=species:S:1:pos:R:3:forces:R:3 energy=-0.8607654408178977 pbc="F F F"
Sm       0.00000000       0.00000000       0.00000000       0.00000000       0.00000000       0.53502160
Sm       0.00000000       0.00000000       5.22525253       0.00000000       0.00000000      -0.53502160
2
Properties=species:S:1:pos:R:3:forces:R:3 energy=-0.8291298897837659 pbc="F F F"
Sm       0.00000000       0.00000000       0.00000000       0.00000000       0.00000000       0.52505219
Sm       0.00000000       0.00000000       5.28484848       0.00000000       0.00000000      -0.52505219
2
Properties=species:S:1:pos:R:3:forces:R:3 energy=-0.7984581512252105 pbc="F F F"
Sm       0.00000000       0.00000000       0.00000000       0.00000000       0.00000000       0.50164020
Sm       0.00000000       0.00000000       5.34444444       0.00000000       0.00000000      -0.50164020
2
Properties=species:S:1:pos:R:3:forces:R:3 energy=-0.7695366503783873 pbc="F F F"
Sm       0.00000000       0.00000000       0.00000000       0.00000000       0.00000000       0.46914598
Sm       0.00000000       0.00000000       5.40404040       0.00000000       0.00000000      -0.46914598
2
Properties=species:S:1:pos:R:3:forces:R:3 energy=-0.7422047451111831 pbc="F F F"
Sm       0.00000000       0.00000000       0.00000000       0.00000000       0.00000000       0.45234576
Sm       0.00000000       0.00000000       5.46363636       0.00000000       0.00000000      -0.45234576
2
Properties=species:S:1:pos:R:3:forces:R:3 energy=-0.7152957060694942 pbc="F F F"
Sm       0.00000000       0.00000000       0.00000000       0.00000000       0.00000000       0.45015374
Sm       0.00000000       0.00000000       5.52323232       0.00000000       0.00000000      -0.45015374
2
Properties=species:S:1:pos:R:3:forces:R:3 energy=-0.6891289403466425 pbc="F F F"
Sm       0.00000000       0.00000000       0.00000000       0.00000000       0.00000000       0.42145064
Sm       0.00000000       0.00000000       5.58282828       0.00000000       0.00000000      -0.42145064
2
Properties=species:S:1:pos:R:3:forces:R:3 energy=-0.6655896462954684 pbc="F F F"
Sm       0.00000000       0.00000000       0.00000000       0.00000000       0.00000000       0.36778623
Sm       0.00000000       0.00000000       5.64242424       0.00000000       0.00000000      -0.36778623
2
Properties=species:S:1:pos:R:3:forces:R:3 energy=-0.6448007006562282 pbc="F F F"
Sm       0.00000000       0.00000000       0.00000000       0.00000000       0.00000000       0.33820111
Sm       0.00000000       0.00000000       5.70202020       0.00000000       0.00000000      -0.33820111
2
Properties=species:S:1:pos:R:3:forces:R:3 energy=-0.6241169761437712 pbc="F F F"
Sm       0.00000000       0.00000000       0.00000000       0.00000000       0.00000000       0.36240819
Sm       0.00000000       0.00000000       5.76161616       0.00000000       0.00000000      -0.36240819
2
Properties=species:S:1:pos:R:3:forces:R:3 energy=-0.6022075305196752 pbc="F F F"
Sm       0.00000000       0.00000000       0.00000000       0.00000000       0.00000000       0.35613120
Sm       0.00000000       0.00000000       5.82121212       0.00000000       0.00000000      -0.35613120
2
Properties=species:S:1:pos:R:3:forces:R:3 energy=-0.5840002481158121 pbc="F F F"
Sm       0.00000000       0.00000000       0.00000000       0.00000000       0.00000000       0.24167903
Sm       0.00000000       0.00000000       5.88080808       0.00000000       0.00000000      -0.24167903
2
Properties=species:S:1:pos:R:3:forces:R:3 energy=-0.5738938448915736 pbc="F F F"
Sm       0.00000000       0.00000000       0.00000000       0.00000000       0.00000000       0.10051094
Sm       0.00000000       0.00000000       5.94040404       0.00000000       0.00000000      -0.10051094
2
Properties=species:S:1:pos:R:3:forces:R:3 energy=-0.5702848101435936 pbc="F F F"
Sm       0.00000000       0.00000000       0.00000000       0.00000000       0.00000000       0.04060670
Sm       0.00000000       0.00000000       6.00000000       0.00000000       0.00000000      -0.04060670
